<event>
 7    1  0.2810263E-009  0.8141837E+02  0.7561462E-02  0.1325074E+00
          1   -1    0    0  501    0  0.00000000000E+00  0.00000000000E+00  0.99298069605E+02  0.99298069605E+02  0.00000000000E+00 0. -1.
         -1   -1    0    0    0  501 -0.00000000000E+00 -0.00000000000E+00 -0.14028785902E+03  0.14028785902E+03  0.00000000000E+00 0.  1.
         25    2    1    2    0    0 -0.39223320591E+02 -0.20079236908E+02 -0.42914383574E+02  0.13939265181E+03  0.12508805869E+03 0.  0.
          5    1    3    3  502    0 -0.60239464119E+02 -0.20801890593E+01  0.25420363752E+02  0.65549885714E+02  0.41800000000E+01 0. -1.
         -5    1    3    3    0  502  0.21016143528E+02 -0.17999047849E+02 -0.68334747326E+02  0.73842766094E+02  0.41800000000E+01 0. -1.
        -11    1    1    2    0    0 -0.97509222530E+00 -0.18612758428E+02 -0.30439175133E+02  0.35692141487E+02  0.00000000000E+00 0.  1.
         11    1    1    2    0    0  0.40198412816E+02  0.38691995336E+02  0.32363769293E+02  0.64501135330E+02  0.00000000000E+00 0. -1.
</event>
<event>
 7    1  0.2810263E-009  0.1228317E+03  0.7561462E-02  0.1238497E+00
         -2   -1    0    0    0  501 -0.00000000000E+00  0.00000000000E+00  0.13290595363E+03  0.13290595363E+03  0.00000000000E+00 0. -1.
          2   -1    0    0  501    0  0.00000000000E+00 -0.00000000000E+00 -0.13278114508E+03  0.13278114508E+03  0.00000000000E+00 0.  1.
         25    2    1    2    0    0 -0.51708904139E+02 -0.58498499688E+02 -0.72023176924E+00  0.14744546956E+03  0.12507502759E+03 0.  0.
          5    1    3    3  502    0  0.94841430465E+01  0.26789874028E+02 -0.26710969799E+02  0.39224923549E+02  0.41800000000E+01 0. -1.
         -5    1    3    3    0  502 -0.61193047186E+02 -0.85288373716E+02  0.25990738030E+02  0.10822054601E+03  0.41800000000E+01 0. -1.
        -11    1    1    2    0    0  0.14665495915E+02 -0.20166296468E+02 -0.16065140872E+02  0.29662181897E+02  0.00000000000E+00 0.  1.
         11    1    1    2    0    0  0.37043408224E+02  0.78664796156E+02  0.16910181193E+02  0.88579447250E+02  0.00000000000E+00 0. -1.
</event>
<event>
 7    1  0.2810263E-009  0.1035060E+03  0.7561462E-02  0.1273091E+00
         -2   -1    0    0    0  501 -0.00000000000E+00  0.00000000000E+00  0.11123647435E+03  0.11123647435E+03  0.00000000000E+00 0. -1.
          2   -1    0    0  501    0  0.00000000000E+00 -0.00000000000E+00 -0.16999474907E+03  0.16999474907E+03  0.00000000000E+00 0.  1.
         25    2    1    2    0    0 -0.40087279913E+02  0.36474181811E+01  0.49761775973E+02  0.14050515249E+03  0.12508065342E+03 0.  0.
          5    1    3    3  502    0 -0.73804514368E+02 -0.29916321320E+02  0.47221942546E+02  0.92679430729E+02  0.41800000000E+01 0.  1.
         -5    1    3    3    0  502  0.33717234455E+02  0.33563739501E+02  0.25398334265E+01  0.47825721766E+02  0.41800000000E+01 0.  1.
        -11    1    1    2    0    0  0.51566514217E+02 -0.23426257970E+02 -0.42364419107E+02  0.70729335903E+02  0.00000000000E+00 0. -1.
         11    1    1    2    0    0 -0.11479234305E+02  0.19778839789E+02 -0.66155631588E+02  0.69996735027E+02  0.00000000000E+00 0.  1.
</event>
<event>
 7    1  0.4041221E-009  0.8762096E+02  0.7561462E-02  0.1308717E+00
         -1   -1    0    0    0  501 -0.00000000000E+00  0.00000000000E+00  0.50169680761E+02  0.50169680761E+02  0.00000000000E+00 0.  1.
          1   -1    0    0  501    0  0.00000000000E+00 -0.00000000000E+00 -0.39249883734E+03  0.39249883734E+03  0.00000000000E+00 0. -1.
         25    2    1    2    0    0  0.23769237543E+02  0.60796293590E+02 -0.92532299102E+02  0.16873689904E+03  0.12509495894E+03 0.  0.
          5    1    3    3  502    0 -0.31735912070E+02  0.12871369697E+02 -0.88713818732E+02  0.95186418710E+02  0.41800000000E+01 0. -1.
         -5    1    3    3    0  502  0.55505149613E+02  0.47924923893E+02 -0.38184803703E+01  0.73550480325E+02  0.41800000000E+01 0. -1.
        -11    1    1    2    0    0 -0.13960051641E+02 -0.52859253427E+02 -0.25461982078E+03  0.26042318800E+03  0.00000000000E+00 0. -1.
         11    1    1    2    0    0 -0.98091859011E+01 -0.79370401638E+01  0.48229633080E+01  0.13508431059E+02  0.00000000000E+00 0.  1.
</event>
<event>
 7    1  0.2810263E-009  0.8075559E+02  0.7561462E-02  0.1326921E+00
         -1   -1    0    0    0  501 -0.00000000000E+00  0.00000000000E+00  0.10402718066E+03  0.10402718066E+03  0.00000000000E+00 0.  1.
          1   -1    0    0  501    0  0.00000000000E+00 -0.00000000000E+00 -0.11820655531E+03  0.11820655531E+03  0.00000000000E+00 0. -1.
         25    2    1    2    0    0  0.41629281551E+01 -0.26194029221E+02 -0.20745331936E+02  0.12954973174E+03  0.12509719045E+03 0.  0.
          5    1    3    3  502    0 -0.37884252359E+02  0.21944464172E+02  0.25231833474E+02  0.50703983128E+02  0.41800000000E+01 0.  1.
         -5    1    3    3    0  502  0.42047180514E+02 -0.48138493392E+02 -0.45977165410E+02  0.78845748613E+02  0.41800000000E+01 0.  1.
        -11    1    1    2    0    0 -0.25088944894E+02  0.18542096749E+02  0.41091919892E+02  0.51592735808E+02  0.00000000000E+00 0.  1.
         11    1    1    2    0    0  0.20926016739E+02  0.76519324711E+01 -0.34525962598E+02  0.41091268420E+02  0.00000000000E+00 0. -1.
</event>
<event>
 7    1  0.2810263E-009  0.1033643E+03  0.7561462E-02  0.1273376E+00
          1   -1    0    0  501    0  0.00000000000E+00  0.00000000000E+00  0.32215066227E+02  0.32215066227E+02  0.00000000000E+00 0. -1.
         -1   -1    0    0    0  501 -0.00000000000E+00 -0.00000000000E+00 -0.45683975509E+03  0.45683975509E+03  0.00000000000E+00 0.  1.
         25    2    1    2    0    0  0.15648980412E+02 -0.46557078418E+02 -0.28612287354E+03  0.31611073301E+03  0.12508894684E+03 0.  0.
          5    1    3    3  502    0  0.51726383495E+02 -0.54335072640E+02 -0.93544040978E+02  0.11998282740E+03  0.41800000000E+01 0.  1.
         -5    1    3    3    0  502 -0.36077403083E+02  0.77779942227E+01 -0.19257883256E+03  0.19612790561E+03  0.41800000000E+01 0.  1.
        -11    1    1    2    0    0 -0.48543429399E+02  0.33882853810E+02 -0.49333304341E+02  0.77060283138E+02  0.00000000000E+00 0.  1.
         11    1    1    2    0    0  0.32894448986E+02  0.12674224608E+02 -0.89168510977E+02  0.95883805168E+02  0.00000000000E+00 0. -1.
</event>
<event>
 7    1  0.2810263E-009  0.1535282E+03  0.7561462E-02  0.1196203E+00
         -1   -1    0    0    0  501 -0.00000000000E+00  0.00000000000E+00  0.30651053727E+03  0.30651053727E+03  0.00000000000E+00 0.  1.
          1   -1    0    0  501    0  0.00000000000E+00 -0.00000000000E+00 -0.11829583567E+03  0.11829583567E+03  0.00000000000E+00 0. -1.
         25    2    1    2    0    0 -0.11877740723E+03 -0.48102974956E+02 -0.33926779796E+01  0.17911655578E+03  0.12509700884E+03 0.  0.
          5    1    3    3  502    0 -0.11185920572E+03 -0.80957399341E+02 -0.22947404267E+02  0.14003798833E+03  0.41800000000E+01 0.  1.
         -5    1    3    3    0  502 -0.69182015181E+01  0.32854424385E+02  0.19554726287E+02  0.39078567452E+02  0.41800000000E+01 0.  1.
        -11    1    1    2    0    0  0.89006580768E+02  0.14494115079E+02  0.17670014903E+03  0.19838143426E+03  0.00000000000E+00 0.  1.
         11    1    1    2    0    0  0.29770826467E+02  0.33608859877E+02  0.14907230548E+02  0.47308382908E+02  0.00000000000E+00 0. -1.
</event>
<event>
 7    1  0.2810263E-009  0.7840575E+02  0.7561462E-02  0.1333638E+00
         -1   -1    0    0    0  501 -0.00000000000E+00  0.00000000000E+00  0.86473486477E+02  0.86473486477E+02  0.00000000000E+00 0.  1.
          1   -1    0    0  501    0  0.00000000000E+00 -0.00000000000E+00 -0.16393908164E+03  0.16393908164E+03  0.00000000000E+00 0. -1.
         25    2    1    2    0    0 -0.95166366789E+01 -0.42536852407E+02 -0.73720897774E+02  0.15159917921E+03  0.12509032809E+03 0.  0.
          5    1    3    3  502    0 -0.34008229481E+02  0.66505320801E+01  0.21921891884E+02  0.41216877528E+02  0.41800000000E+01 0.  1.
         -5    1    3    3    0  502  0.24491592802E+02 -0.49187384487E+02 -0.95642789659E+02  0.11038230168E+03  0.41800000000E+01 0.  1.
        -11    1    1    2    0    0 -0.15452993571E+02 -0.21597726501E+01 -0.35353578545E+02  0.38643694752E+02  0.00000000000E+00 0. -1.
         11    1    1    2    0    0  0.24969630250E+02  0.44696625057E+02  0.31608881159E+02  0.60169694153E+02  0.00000000000E+00 0.  1.
</event>
<event>
 7    1  0.2810263E-009  0.1767617E+03  0.7561462E-02  0.1170974E+00
         -1   -1    0    0    0  501 -0.00000000000E+00  0.00000000000E+00  0.49207603717E+02  0.49207603717E+02  0.00000000000E+00 0.  1.
          1   -1    0    0  501    0  0.00000000000E+00 -0.00000000000E+00 -0.65693724941E+03  0.65693724941E+03  0.00000000000E+00 0. -1.
         25    2    1    2    0    0 -0.12603895506E+03 -0.65452793530E+02 -0.26154484597E+03  0.32283579437E+03  0.12508939724E+03 0.  0.
          5    1    3    3  502    0  0.98124668102E+01 -0.51407838772E+02 -0.77651570325E+02  0.93735207719E+02  0.41800000000E+01 0. -1.
         -5    1    3    3    0  502 -0.13585142187E+03 -0.14044954758E+02 -0.18389327564E+03  0.22910058665E+03  0.41800000000E+01 0. -1.
        -11    1    1    2    0    0  0.46113522181E+02  0.70560772436E+02 -0.16843881278E+03  0.18835316081E+03  0.00000000000E+00 0.  1.
         11    1    1    2    0    0  0.79925432881E+02 -0.51079789054E+01 -0.17774598694E+03  0.19495589795E+03  0.00000000000E+00 0. -1.
</event>
<event>
 7    1  0.2810263E-009  0.1004590E+03  0.7561462E-02  0.1279334E+00
          1   -1    0    0  501    0  0.00000000000E+00  0.00000000000E+00  0.16459426225E+03  0.16459426225E+03  0.00000000000E+00 0. -1.
         -1   -1    0    0    0  501 -0.00000000000E+00 -0.00000000000E+00 -0.16876051794E+03  0.16876051794E+03  0.00000000000E+00 0.  1.
         25    2    1    2    0    0  0.18558997531E+02 -0.74667517381E+02 -0.10867938593E+03  0.18269705415E+03  0.12508928862E+03 0.  0.
          5    1    3    3  502    0 -0.26391465379E+02 -0.11917466059E+02  0.17958958301E+02  0.34329754229E+02  0.41800000000E+01 0.  1.
         -5    1    3    3    0  502  0.44950462910E+02 -0.62750051321E+02 -0.12663834423E+03  0.14836729992E+03  0.41800000000E+01 0.  1.
        -11    1    1    2    0    0 -0.37492442417E+02  0.39775814556E+02  0.95365265711E+02  0.10991966415E+03  0.00000000000E+00 0. -1.
         11    1    1    2    0    0  0.18933444886E+02  0.34891702824E+02  0.91478645245E+01  0.40738061890E+02  0.00000000000E+00 0.  1.
</event>
<event>
 7    1  0.2810263E-009  0.1174093E+03  0.7561462E-02  0.1247433E+00
          2   -1    0    0  501    0  0.00000000000E+00  0.00000000000E+00  0.28465382486E+02  0.28465382486E+02  0.00000000000E+00 0. -1.
         -2   -1    0    0    0  501 -0.00000000000E+00 -0.00000000000E+00 -0.49167186350E+03  0.49167186350E+03  0.00000000000E+00 0.  1.
         25    2    1    2    0    0  0.31295808311E+02 -0.50209365899E+02 -0.29739915525E+03  0.32801386129E+03  0.12508568109E+03 0.  0.
          5    1    3    3  502    0  0.39225926733E+02 -0.89364469284E+02 -0.22319543754E+03  0.24363570641E+03  0.41800000000E+01 0.  1.
         -5    1    3    3    0  502 -0.79301184219E+01  0.39155103386E+02 -0.74203717715E+02  0.84378154886E+02  0.41800000000E+01 0.  1.
        -11    1    1    2    0    0 -0.44918440072E+02 -0.24365677573E-01 -0.80866774761E+02  0.92504605899E+02  0.00000000000E+00 0.  1.
         11    1    1    2    0    0  0.13622631761E+02  0.50233731576E+02 -0.84940551000E+02  0.99618778794E+02  0.00000000000E+00 0. -1.
</event>
<event>
 7    1  0.2810263E-009  0.1325010E+03  0.7561462E-02  0.1223791E+00
         -4   -1    0    0    0  501 -0.00000000000E+00  0.00000000000E+00  0.58911074877E+03  0.58911074877E+03  0.00000000000E+00 0.  1.
          4   -1    0    0  501    0  0.00000000000E+00 -0.00000000000E+00 -0.31391119785E+02  0.31391119785E+02  0.00000000000E+00 0. -1.
         25    2    1    2    0    0 -0.78574485332E+02  0.14670161728E+02  0.26176493522E+03  0.30092811973E+03  0.12509072124E+03 0.  0.
          5    1    3    3  502    0 -0.18837425468E+02  0.64443408123E+02  0.15326509024E+03  0.16737819970E+03  0.41800000000E+01 0. -1.
         -5    1    3    3    0  502 -0.59737059863E+02 -0.49773246394E+02  0.10849984499E+03  0.13354992003E+03  0.41800000000E+01 0. -1.
        -11    1    1    2    0    0  0.39194920269E+02 -0.52326386288E+02  0.17851268650E+03  0.19010805274E+03  0.00000000000E+00 0. -1.
         11    1    1    2    0    0  0.39379565063E+02  0.37656224560E+02  0.11744200727E+03  0.12946569609E+03  0.00000000000E+00 0.  1.
</event>
<event>
 7    1  0.2810263E-009  0.1593472E+03  0.7561462E-02  0.1189436E+00
          4   -1    0    0  501    0  0.00000000000E+00  0.00000000000E+00  0.51110609756E+03  0.51110609756E+03  0.00000000000E+00 0. -1.
         -4   -1    0    0    0  501 -0.00000000000E+00 -0.00000000000E+00 -0.80441788982E+02  0.80441788982E+02  0.00000000000E+00 0.  1.
         25    2    1    2    0    0 -0.70887740085E+02  0.12755952612E+03  0.92798304470E+02  0.21343815198E+03  0.12509122675E+03 0.  0.
          5    1    3    3  502    0 -0.43905045865E+02  0.13615103752E+03  0.32601777685E+02  0.14678251387E+03  0.41800000000E+01 0.  1.
         -5    1    3    3    0  502 -0.26982694220E+02 -0.85915113954E+01  0.60196526785E+02  0.66655638115E+02  0.41800000000E+01 0.  1.
        -11    1    1    2    0    0  0.15880997616E+02 -0.15857695595E+02  0.53856142195E+01  0.23079805792E+02  0.00000000000E+00 0.  1.
         11    1    1    2    0    0  0.55006742469E+02 -0.11170183053E+03  0.33248038989E+03  0.35502992877E+03  0.00000000000E+00 0. -1.
</event>
<event>
 7    1  0.2810263E-009  0.1245359E+03  0.7561462E-02  0.1235796E+00
         -1   -1    0    0    0  501 -0.00000000000E+00  0.00000000000E+00  0.15781768617E+03  0.15781768617E+03  0.00000000000E+00 0.  1.
          1   -1    0    0  501    0  0.00000000000E+00 -0.00000000000E+00 -0.10063076308E+03  0.10063076308E+03  0.00000000000E+00 0. -1.
         25    2    1    2    0    0 -0.37288323031E+01 -0.64271002919E+02  0.25394061119E+02  0.14296000333E+03  0.12509211888E+03 0.  0.
          5    1    3    3  502    0  0.35782228199E+02  0.23928388864E+02  0.14494757689E+02  0.45612564595E+02  0.41800000000E+01 0. -1.
         -5    1    3    3    0  502 -0.39511060502E+02 -0.88199391783E+02  0.10899303430E+02  0.97347438734E+02  0.41800000000E+01 0. -1.
        -11    1    1    2    0    0  0.33779729537E+02 -0.44618413732E+01  0.20121480223E+02  0.39570849402E+02  0.00000000000E+00 0.  1.
         11    1    1    2    0    0 -0.30050897234E+02  0.68732844293E+02  0.11671381743E+02  0.75917596517E+02  0.00000000000E+00 0. -1.
</event>
<event>
 7    1  0.2810263E-009  0.2563823E+03  0.7561462E-02  0.1109337E+00
          2   -1    0    0  501    0  0.00000000000E+00  0.00000000000E+00  0.11355248816E+04  0.11355248816E+04  0.00000000000E+00 0. -1.
         -2   -1    0    0    0  501 -0.00000000000E+00 -0.00000000000E+00 -0.76259326722E+02  0.76259326722E+02  0.00000000000E+00 0.  1.
         25    2    1    2    0    0 -0.70888102307E+02 -0.22705546444E+03  0.26339227786E+03  0.37630479053E+03  0.12510194386E+03 0.  0.
          5    1    3    3  502    0 -0.50418953461E+02 -0.25978760446E+02  0.20883172055E+02  0.60585032290E+02  0.41800000000E+01 0. -1.
         -5    1    3    3    0  502 -0.20469148845E+02 -0.20107670399E+03  0.24250910581E+03  0.31571975824E+03  0.41800000000E+01 0. -1.
        -11    1    1    2    0    0  0.73757769063E+02  0.88751062476E+02  0.38697145331E+03  0.40381167055E+03  0.00000000000E+00 0.  1.
         11    1    1    2    0    0 -0.28696667566E+01  0.13830440196E+03  0.40890182368E+03  0.43166774723E+03  0.00000000000E+00 0. -1.
</event>
<event>
 7    1  0.2810263E-009  0.1227316E+03  0.7561462E-02  0.1238658E+00
         -2   -1    0    0    0  501 -0.00000000000E+00  0.00000000000E+00  0.33074653706E+02  0.33074653706E+02  0.00000000000E+00 0.  1.
          2   -1    0    0  501    0  0.00000000000E+00 -0.00000000000E+00 -0.57607794784E+03  0.57607794784E+03  0.00000000000E+00 0. -1.
         25    2    1    2    0    0 -0.51035468658E+02 -0.31136793819E+02 -0.42959087909E+03  0.45140889628E+03  0.12509016449E+03 0.  0.
          5    1    3    3  502    0  0.31100754717E+02 -0.43420450397E+02 -0.13307982468E+03  0.14345837233E+03  0.41800000000E+01 0. -1.
         -5    1    3    3    0  502 -0.82136223375E+02  0.12283656578E+02 -0.29651105441E+03  0.30795052395E+03  0.41800000000E+01 0. -1.
        -11    1    1    2    0    0  0.27815409691E+02 -0.31446644646E+02 -0.53844741744E+02  0.68277702724E+02  0.00000000000E+00 0. -1.
         11    1    1    2    0    0  0.23220058967E+02  0.62583438465E+02 -0.59567673299E+02  0.89466002541E+02  0.00000000000E+00 0.  1.
</event>
<event>
 7    1  0.2810263E-009  0.1764210E+03  0.7561462E-02  0.1171312E+00
         -1   -1    0    0    0  501 -0.00000000000E+00  0.00000000000E+00  0.98072517949E+02  0.98072517949E+02  0.00000000000E+00 0.  1.
          1   -1    0    0  501    0  0.00000000000E+00 -0.00000000000E+00 -0.33271701606E+03  0.33271701606E+03  0.00000000000E+00 0. -1.
         25    2    1    2    0    0  0.11990075680E+03 -0.79956646595E+02 -0.13710510217E+03  0.23497700844E+03  0.12508848323E+03 0.  0.
          5    1    3    3  502    0 -0.22153813581E+02 -0.18268164034E+02 -0.14506406461E+01  0.29053296399E+02  0.41800000000E+01 0.  1.
         -5    1    3    3    0  502  0.14205457039E+03 -0.61688482560E+02 -0.13565446152E+03  0.20592371204E+03  0.41800000000E+01 0.  1.
        -11    1    1    2    0    0  0.13083909014E+02 -0.11447881464E+01 -0.25784389587E+01  0.13384601692E+02  0.00000000000E+00 0.  1.
         11    1    1    2    0    0 -0.13298466582E+03  0.81101434741E+02 -0.94960956978E+02  0.18242792388E+03  0.00000000000E+00 0. -1.
</event>
<event>
 7    1  0.2810263E-009  0.6220709E+02  0.7561462E-02  0.1388796E+00
          3   -1    0    0  501    0  0.00000000000E+00  0.00000000000E+00  0.48701394309E+03  0.48701394309E+03  0.00000000000E+00 0. -1.
         -3   -1    0    0    0  501 -0.00000000000E+00 -0.00000000000E+00 -0.26288499004E+02  0.26288499004E+02  0.00000000000E+00 0.  1.
         25    2    1    2    0    0  0.44453604216E+02 -0.51614423916E+01  0.30549182858E+03  0.33313001352E+03  0.12509030803E+03 0.  0.
          5    1    3    3  502    0  0.40205171240E+02 -0.18420112824E+02  0.22553607008E+02  0.49818610378E+02  0.41800000000E+01 0. -1.
         -5    1    3    3    0  502  0.42484329765E+01  0.13258670432E+02  0.28293822157E+03  0.28331140315E+03  0.41800000000E+01 0. -1.
        -11    1    1    2    0    0 -0.23563309470E+02  0.26591276788E+02  0.18220305445E+02  0.39928750104E+02  0.00000000000E+00 0.  1.
         11    1    1    2    0    0 -0.20890294746E+02 -0.21429834396E+02  0.13701331005E+03  0.14024367846E+03  0.00000000000E+00 0. -1.
</event>
<event>
 7    1  0.2810263E-009  0.1223227E+03  0.7561462E-02  0.1239314E+00
         -2   -1    0    0    0  501 -0.00000000000E+00  0.00000000000E+00  0.28744033662E+02  0.28744033662E+02  0.00000000000E+00 0.  1.
          2   -1    0    0  501    0  0.00000000000E+00 -0.00000000000E+00 -0.66590008649E+03  0.66590008649E+03  0.00000000000E+00 0. -1.
         25    2    1    2    0    0 -0.49442775139E+02  0.61421685947E+02 -0.43202219596E+03  0.45662575999E+03  0.12508675135E+03 0.  0.
          5    1    3    3  502    0  0.35267962740E+02 -0.81107379551E+01 -0.79755903457E+02  0.87681752960E+02  0.41800000000E+01 0.  1.
         -5    1    3    3    0  502 -0.84710737879E+02  0.69532423902E+02 -0.35226629250E+03  0.36894400703E+03  0.41800000000E+01 0.  1.
        -11    1    1    2    0    0  0.10927304267E+02  0.11631154976E+02  0.96617525123E+00  0.15988221891E+02  0.00000000000E+00 0.  1.
         11    1    1    2    0    0  0.38515470872E+02 -0.73052840923E+02 -0.20610003212E+03  0.22203013828E+03  0.00000000000E+00 0. -1.
</event>
<event>
 7    1  0.2810263E-009  0.2625422E+03  0.7561462E-02  0.1105625E+00
          1   -1    0    0  501    0  0.00000000000E+00  0.00000000000E+00  0.19610958334E+04  0.19610958334E+04  0.00000000000E+00 0. -1.
         -1   -1    0    0    0  501 -0.00000000000E+00 -0.00000000000E+00 -0.41114379695E+02  0.41114379695E+02  0.00000000000E+00 0.  1.
         25    2    1    2    0    0 -0.23585813842E+03 -0.55227896703E+02  0.62931638258E+03  0.68583237859E+03  0.12509100730E+03 0.  0.
          5    1    3    3  502    0 -0.10084564285E+03 -0.82036716431E+02  0.24161499862E+03  0.27439961094E+03  0.41800000000E+01 0. -1.
         -5    1    3    3    0  502 -0.13501249558E+03  0.26808819728E+02  0.38770138396E+03  0.41143276766E+03  0.41800000000E+01 0. -1.
        -11    1    1    2    0    0  0.11322524204E+03 -0.17739806402E+02  0.50302857523E+03  0.51591898944E+03  0.00000000000E+00 0. -1.
         11    1    1    2    0    0  0.12263289638E+03  0.72967703105E+02  0.78763649589E+03  0.80045884506E+03  0.00000000000E+00 0.  1.
</event>
<event>
 7    1  0.2810263E-009  0.1123766E+03  0.7561462E-02  0.1256231E+00
         -1   -1    0    0    0  501 -0.00000000000E+00  0.00000000000E+00  0.26555686767E+02  0.26555686767E+02  0.00000000000E+00 0.  1.
          1   -1    0    0  501    0  0.00000000000E+00 -0.00000000000E+00 -0.84529452352E+03  0.84529452352E+03  0.00000000000E+00 0. -1.
         25    2    1    2    0    0 -0.15404635132E+02 -0.98767232758E+02 -0.34754447249E+03  0.38265725592E+03  0.12508855304E+03 0.  0.
          5    1    3    3  502    0 -0.32936471362E+02 -0.17946787802E+02 -0.16110225527E+02  0.41035473736E+02  0.41800000000E+01 0.  1.
         -5    1    3    3    0  502  0.17531836229E+02 -0.80820444955E+02 -0.33143424696E+03  0.34162178218E+03  0.41800000000E+01 0.  1.
        -11    1    1    2    0    0  0.13970596722E+02  0.15268368347E+02 -0.15362002911E+02  0.25773858426E+02  0.00000000000E+00 0. -1.
         11    1    1    2    0    0  0.14340384101E+01  0.83498864411E+02 -0.45583236136E+03  0.46341909594E+03  0.00000000000E+00 0.  1.
</event>
<event>
 7    1  0.2810263E-009  0.1582858E+03  0.7561462E-02  0.1190646E+00
          2   -1    0    0  501    0  0.00000000000E+00  0.00000000000E+00  0.12139198700E+03  0.12139198700E+03  0.00000000000E+00 0. -1.
         -2   -1    0    0    0  501 -0.00000000000E+00 -0.00000000000E+00 -0.23767154964E+03  0.23767154964E+03  0.00000000000E+00 0.  1.
         25    2    1    2    0    0  0.67563522001E+02  0.11093259786E+03 -0.45963359039E+02  0.18609587970E+03  0.12509266683E+03 0.  0.
          5    1    3    3  502    0 -0.33572177251E+02  0.55102636137E+02 -0.19029093361E+02  0.67401560730E+02  0.41800000000E+01 0.  1.
         -5    1    3    3    0  502  0.10113569925E+03  0.55829961723E+02 -0.26934265678E+02  0.11869431897E+03  0.41800000000E+01 0.  1.
        -11    1    1    2    0    0 -0.62258175219E+02 -0.64742691382E+02 -0.13958439294E+01  0.89831201981E+02  0.00000000000E+00 0.  1.
         11    1    1    2    0    0 -0.53053467819E+01 -0.46189906478E+02 -0.68920359671E+02  0.83136454953E+02  0.00000000000E+00 0. -1.
</event>
<event>
 7    1  0.2810263E-009  0.1162465E+03  0.7561462E-02  0.1249421E+00
          2   -1    0    0  501    0  0.00000000000E+00  0.00000000000E+00  0.23574563699E+03  0.23574563699E+03  0.00000000000E+00 0. -1.
         -2   -1    0    0    0  501 -0.00000000000E+00 -0.00000000000E+00 -0.71772319288E+02  0.71772319288E+02  0.00000000000E+00 0.  1.
         25    2    1    2    0    0  0.64709161101E+02 -0.17528104819E+02  0.11494549213E+03  0.18263128520E+03  0.12508880919E+03 0.  0.
          5    1    3    3  502    0  0.77400614986E+02  0.18144063548E+02  0.12020610060E+03  0.14417711768E+03  0.41800000000E+01 0.  1.
         -5    1    3    3    0  502 -0.12691453885E+02 -0.35672168367E+02 -0.52606084728E+01  0.38454167514E+02  0.41800000000E+01 0.  1.
        -11    1    1    2    0    0 -0.56187114290E+02 -0.31915736893E+02  0.29738386130E+02  0.71133520110E+02  0.00000000000E+00 0. -1.
         11    1    1    2    0    0 -0.85220468113E+01  0.49443841713E+02  0.19289439448E+02  0.53753150972E+02  0.00000000000E+00 0.  1.
</event>
<event>
 7    1  0.2810263E-009  0.1177174E+03  0.7561462E-02  0.1246911E+00
          2   -1    0    0  501    0  0.00000000000E+00  0.00000000000E+00  0.67886956682E+03  0.67886956682E+03  0.00000000000E+00 0.  1.
         -2   -1    0    0    0  501 -0.00000000000E+00 -0.00000000000E+00 -0.25338032456E+02  0.25338032456E+02  0.00000000000E+00 0. -1.
         25    2    1    2    0    0 -0.30440446314E+02  0.62688097745E+02  0.29551592557E+03  0.32838047888E+03  0.12509060027E+03 0.  0.
          5    1    3    3  502    0 -0.63926941071E+02  0.20586162165E+02  0.24637738360E+03  0.25540111866E+03  0.41800000000E+01 0.  1.
         -5    1    3    3    0  502  0.33486494757E+02  0.42101935580E+02  0.49138541970E+02  0.72979360217E+02  0.41800000000E+01 0.  1.
        -11    1    1    2    0    0  0.39347034366E+02  0.10288167077E+02  0.13655072608E+03  0.14247854676E+03  0.00000000000E+00 0. -1.
         11    1    1    2    0    0 -0.89065880518E+01 -0.72976264822E+02  0.22146488271E+03  0.23334857363E+03  0.00000000000E+00 0.  1.
</event>
<event>
 7    1  0.2810263E-009  0.8144091E+02  0.7561462E-02  0.1325011E+00
          2   -1    0    0  501    0  0.00000000000E+00  0.00000000000E+00  0.16510750024E+03  0.16510750024E+03  0.00000000000E+00 0. -1.
         -2   -1    0    0    0  501 -0.00000000000E+00 -0.00000000000E+00 -0.75998858106E+02  0.75998858106E+02  0.00000000000E+00 0.  1.
         25    2    1    2    0    0 -0.61711253787E+01 -0.39216106846E+02  0.46476416518E+02  0.13922357213E+03  0.12508860827E+03 0.  0.
          5    1    3    3  502    0  0.16724064172E+02  0.13126712572E+02  0.72963375384E+02  0.76112623479E+02  0.41800000000E+01 0. -1.
         -5    1    3    3    0  502 -0.22895189550E+02 -0.52342819418E+02 -0.26486958866E+02  0.63110948647E+02  0.41800000000E+01 0. -1.
        -11    1    1    2    0    0  0.65784287451E+01  0.61395767852E+02  0.48973695959E+02  0.78810779280E+02  0.00000000000E+00 0. -1.
         11    1    1    2    0    0 -0.40730336636E+00 -0.22179661006E+02 -0.63414703385E+01  0.23072006944E+02  0.00000000000E+00 0.  1.
</event>
<event>
 7    1  0.2810263E-009  0.9953796E+02  0.7561462E-02  0.1281271E+00
         -2   -1    0    0    0  501 -0.00000000000E+00  0.00000000000E+00  0.39111428878E+02  0.39111428878E+02  0.00000000000E+00 0.  1.
          2   -1    0    0  501    0  0.00000000000E+00 -0.00000000000E+00 -0.41738656069E+03  0.41738656069E+03  0.00000000000E+00 0. -1.
         25    2    1    2    0    0  0.46015627111E+02 -0.13615020268E+02 -0.29456359194E+03  0.32360162472E+03  0.12508994808E+03 0.  0.
          5    1    3    3  502    0 -0.14909520155E+02  0.38338714200E+02 -0.43366042110E+02  0.59918584814E+02  0.41800000000E+01 0.  1.
         -5    1    3    3    0  502  0.60925147266E+02 -0.51953734468E+02 -0.25119754983E+03  0.26368303991E+03  0.41800000000E+01 0.  1.
        -11    1    1    2    0    0 -0.15529108260E+02  0.36344505911E+02  0.15348368951E+01  0.39552901759E+02  0.00000000000E+00 0.  1.
         11    1    1    2    0    0 -0.30486518851E+02 -0.22729485643E+02 -0.85246376766E+02  0.93343463086E+02  0.00000000000E+00 0. -1.
</event>
<event>
 7    1  0.2810263E-009  0.1044742E+03  0.7561462E-02  0.1271159E+00
         -2   -1    0    0    0  501 -0.00000000000E+00  0.00000000000E+00  0.19944731290E+03  0.19944731290E+03  0.00000000000E+00 0.  1.
          2   -1    0    0  501    0  0.00000000000E+00 -0.00000000000E+00 -0.15126550871E+03  0.15126550871E+03  0.00000000000E+00 0. -1.
         25    2    1    2    0    0  0.11409324824E+02 -0.63046114515E+02  0.14411825812E+03  0.20130797570E+03  0.12509933457E+03 0.  0.
          5    1    3    3  502    0  0.10598687198E+00  0.27498931952E+02  0.92062410073E+02  0.96172564904E+02  0.41800000000E+01 0.  1.
         -5    1    3    3    0  502  0.11303337952E+02 -0.90545046467E+02  0.52055848045E+02  0.10513541080E+03  0.41800000000E+01 0.  1.
        -11    1    1    2    0    0  0.26134560520E+02  0.21982779566E+02 -0.86465343037E+02  0.92965119251E+02  0.00000000000E+00 0. -1.
         11    1    1    2    0    0 -0.37543885344E+02  0.41063334948E+02 -0.94711108874E+01  0.56439726658E+02  0.00000000000E+00 0.  1.
</event>
<event>
 7    1  0.2810263E-009  0.1047823E+03  0.7561462E-02  0.1270549E+00
         -1   -1    0    0    0  501 -0.00000000000E+00  0.00000000000E+00  0.90907156935E+02  0.90907156935E+02  0.00000000000E+00 0.  1.
          1   -1    0    0  501    0  0.00000000000E+00 -0.00000000000E+00 -0.13917008976E+03  0.13917008976E+03  0.00000000000E+00 0. -1.
         25    2    1    2    0    0 -0.18639327717E+02 -0.59404571430E+01 -0.38114590026E+02  0.13222208999E+03  0.12508895051E+03 0.  0.
          5    1    3    3  502    0 -0.71982564707E+02 -0.70206304223E+01 -0.15291657316E+02  0.74041110585E+02  0.41800000000E+01 0.  1.
         -5    1    3    3    0  502  0.53343236990E+02  0.10801732793E+01 -0.22822932710E+02  0.58180979403E+02  0.41800000000E+01 0.  1.
        -11    1    1    2    0    0  0.50623527427E+02  0.91985667645E+01 -0.30492514206E+02  0.59809268364E+02  0.00000000000E+00 0. -1.
         11    1    1    2    0    0 -0.31984199710E+02 -0.32581096216E+01  0.20344171408E+02  0.38045888341E+02  0.00000000000E+00 0.  1.
</event>
<event>
 7    1  0.2810263E-009  0.1290820E+03  0.7561462E-02  0.1228824E+00
          2   -1    0    0  501    0  0.00000000000E+00  0.00000000000E+00  0.88660630491E+03  0.88660630491E+03  0.00000000000E+00 0. -1.
         -2   -1    0    0    0  501 -0.00000000000E+00 -0.00000000000E+00 -0.21936824038E+02  0.21936824038E+02  0.00000000000E+00 0.  1.
         25    2    1    2    0    0 -0.18783841163E+01  0.87585458287E+02  0.47956763238E+03  0.50329260981E+03  0.12507436280E+03 0.  0.
          5    1    3    3  502    0 -0.51073157748E+02  0.60306876898E+02  0.15686369059E+03  0.17569597795E+03  0.41800000000E+01 0. -1.
         -5    1    3    3    0  502  0.49194773632E+02  0.27278581389E+02  0.32270394179E+03  0.32759663186E+03  0.41800000000E+01 0. -1.
        -11    1    1    2    0    0 -0.24186665029E+02  0.64549635295E+01  0.45807111490E+02  0.52201080281E+02  0.00000000000E+00 0.  1.
         11    1    1    2    0    0  0.26065049145E+02 -0.94040421817E+02  0.33929473699E+03  0.35304943885E+03  0.00000000000E+00 0. -1.
</event>
<event>
 7    1  0.3251381E-009  0.1737794E+03  0.7561462E-02  0.1173963E+00
          4   -1    0    0  501    0  0.00000000000E+00  0.00000000000E+00  0.68304391724E+02  0.68304391724E+02  0.00000000000E+00 0. -1.
         -4   -1    0    0    0  501 -0.00000000000E+00 -0.00000000000E+00 -0.58748268880E+03  0.58748268880E+03  0.00000000000E+00 0.  1.
         25    2    1    2    0    0  0.13179419698E+03 -0.10243442082E+03 -0.24086179479E+03  0.31862907724E+03  0.12509022243E+03 0.  0.
          5    1    3    3  502    0  0.11253754839E+03 -0.91972027121E+02 -0.25404756742E+03  0.29271349897E+03  0.41800000000E+01 0.  1.
         -5    1    3    3    0  502  0.19256648594E+02 -0.10462393694E+02  0.13185772631E+02  0.25915578264E+02  0.41800000000E+01 0.  1.
        -11    1    1    2    0    0 -0.10702402714E+03  0.42782134648E+02 -0.22729046499E+03  0.25484389124E+03  0.00000000000E+00 0.  1.
         11    1    1    2    0    0 -0.24770169846E+02  0.59652286167E+02 -0.51026037307E+02  0.82314112049E+02  0.00000000000E+00 0. -1.
</event>
<event>
 7    1  0.2810263E-009  0.1389775E+03  0.7561462E-02  0.1214712E+00
          3   -1    0    0  501    0  0.00000000000E+00  0.00000000000E+00  0.65067617174E+02  0.65067617174E+02  0.00000000000E+00 0.  1.
         -3   -1    0    0    0  501 -0.00000000000E+00 -0.00000000000E+00 -0.43534303241E+03  0.43534303241E+03  0.00000000000E+00 0. -1.
         25    2    1    2    0    0  0.10804208720E+03 -0.66321067607E+02 -0.22650808933E+03  0.28813985841E+03  0.12508831623E+03 0.  0.
          5    1    3    3  502    0  0.67643073891E+02 -0.34987902237E+01 -0.23547293891E+02  0.71831569856E+02  0.41800000000E+01 0.  1.
         -5    1    3    3    0  502  0.40399013312E+02 -0.62822277383E+02 -0.20296079544E+03  0.21630828855E+03  0.41800000000E+01 0.  1.
        -11    1    1    2    0    0 -0.88627314033E+02  0.29061345715E+02 -0.42231890070E+02  0.10238601050E+03  0.00000000000E+00 0.  1.
         11    1    1    2    0    0 -0.19414773170E+02  0.37259721892E+02 -0.10153543583E+03  0.10988478067E+03  0.00000000000E+00 0. -1.
</event>
<event>
 7    1  0.2810263E-009  0.7503958E+02  0.7561462E-02  0.1343749E+00
         -1   -1    0    0    0  501 -0.00000000000E+00  0.00000000000E+00  0.35567063089E+03  0.35567063089E+03  0.00000000000E+00 0.  1.
          1   -1    0    0  501    0  0.00000000000E+00 -0.00000000000E+00 -0.51815688067E+02  0.51815688067E+02  0.00000000000E+00 0. -1.
         25    2    1    2    0    0  0.90482057466E+01 -0.30931608459E+02  0.28162427690E+03  0.30983429030E+03  0.12508564935E+03 0.  0.
          5    1    3    3  502    0  0.43584471118E+02 -0.20743506660E+02  0.26597386107E+03  0.27035063596E+03  0.41800000000E+01 0.  1.
         -5    1    3    3    0  502 -0.34536265372E+02 -0.10188101799E+02  0.15650415836E+02  0.39483654339E+02  0.41800000000E+01 0.  1.
        -11    1    1    2    0    0 -0.29670979742E+02  0.18502867155E+01  0.46023712250E+02  0.54790260896E+02  0.00000000000E+00 0.  1.
         11    1    1    2    0    0  0.20622773996E+02  0.29081321744E+02 -0.23793046335E+02  0.42861767760E+02  0.00000000000E+00 0. -1.
</event>
<event>
 7    1  0.2810263E-009  0.1163686E+03  0.7561462E-02  0.1249211E+00
          4   -1    0    0  501    0  0.00000000000E+00  0.00000000000E+00  0.19042083645E+03  0.19042083645E+03  0.00000000000E+00 0. -1.
         -4   -1    0    0    0  501 -0.00000000000E+00 -0.00000000000E+00 -0.74818873181E+02  0.74818873181E+02  0.00000000000E+00 0.  1.
         25    2    1    2    0    0 -0.32893830587E+02 -0.31488863602E+02  0.83288441182E+02  0.15703124561E+03  0.12509314547E+03 0.  0.
          5    1    3    3  502    0 -0.55834776552E+02  0.32120371196E+02  0.49372765553E+02  0.81267354434E+02  0.41800000000E+01 0.  1.
         -5    1    3    3    0  502  0.22940945966E+02 -0.63609234798E+02  0.33915675630E+02  0.75763891181E+02  0.41800000000E+01 0.  1.
        -11    1    1    2    0    0  0.21103744285E+02 -0.30637894513E+02  0.24374252562E+02  0.44476429612E+02  0.00000000000E+00 0. -1.
         11    1    1    2    0    0  0.11790086302E+02  0.62126758115E+02  0.79392695268E+01  0.63732034406E+02  0.00000000000E+00 0.  1.
</event>
<event>
 7    1  0.2810263E-009  0.1246551E+03  0.7561462E-02  0.1235609E+00
          2   -1    0    0  501    0  0.00000000000E+00  0.00000000000E+00  0.64643546085E+02  0.64643546085E+02  0.00000000000E+00 0. -1.
         -2   -1    0    0    0  501 -0.00000000000E+00 -0.00000000000E+00 -0.34888830525E+03  0.34888830525E+03  0.00000000000E+00 0.  1.
         25    2    1    2    0    0 -0.89718215577E+02 -0.14949132619E+01 -0.81461112299E+02  0.17417010488E+03  0.12509084557E+03 0.  0.
          5    1    3    3  502    0 -0.11464595615E+03 -0.70420773826E+01 -0.33578801133E+02  0.11974261732E+03  0.41800000000E+01 0.  1.
         -5    1    3    3    0  502  0.24927740578E+02  0.55471641207E+01 -0.47882311166E+02  0.54427487566E+02  0.41800000000E+01 0.  1.
        -11    1    1    2    0    0 -0.43654590692E-01 -0.16872938425E+02 -0.10106186000E+03  0.10246071200E+03  0.00000000000E+00 0.  1.
         11    1    1    2    0    0  0.89761870167E+02  0.18367851687E+02 -0.10172178687E+03  0.13690103446E+03  0.00000000000E+00 0. -1.
</event>
<event>
 7    1  0.2810263E-009  0.1401658E+03  0.7561462E-02  0.1213106E+00
         -1   -1    0    0    0  501 -0.00000000000E+00  0.00000000000E+00  0.32186038212E+03  0.32186038212E+03  0.00000000000E+00 0.  1.
          1   -1    0    0  501    0  0.00000000000E+00 -0.00000000000E+00 -0.89403304462E+02  0.89403304462E+02  0.00000000000E+00 0. -1.
         25    2    1    2    0    0  0.12057335913E+03 -0.38452028405E+01  0.59975823829E+02  0.18384567124E+03  0.12509760538E+03 0.  0.
          5    1    3    3  502    0  0.10225388364E+03 -0.46844409518E+02  0.74203596486E+02  0.13481061366E+03  0.41800000000E+01 0. -1.
         -5    1    3    3    0  502  0.18319475485E+02  0.42999206678E+02 -0.14227772657E+02  0.49035057579E+02  0.41800000000E+01 0. -1.
        -11    1    1    2    0    0 -0.21949665623E+02  0.35249301079E+01 -0.64144395891E+01  0.23137804314E+02  0.00000000000E+00 0. -1.
         11    1    1    2    0    0 -0.98623693506E+02  0.32027273259E+00  0.17889569342E+03  0.20428021103E+03  0.00000000000E+00 0.  1.
</event>
<event>
 7    1  0.2810263E-009  0.1223319E+03  0.7561462E-02  0.1239299E+00
          4   -1    0    0  501    0  0.00000000000E+00  0.00000000000E+00  0.89784979417E+02  0.89784979417E+02  0.00000000000E+00 0. -1.
         -4   -1    0    0    0  501 -0.00000000000E+00 -0.00000000000E+00 -0.21473109592E+03  0.21473109592E+03  0.00000000000E+00 0.  1.
         25    2    1    2    0    0 -0.63052961243E+02 -0.59455061168E+02 -0.56097114649E+02  0.16219087868E+03  0.12509362348E+03 0.  0.
          5    1    3    3  502    0 -0.43609654503E+02  0.12954857718E+02  0.24660895385E+02  0.51915917266E+02  0.41800000000E+01 0. -1.
         -5    1    3    3    0  502 -0.19443306740E+02 -0.72409918886E+02 -0.80758010034E+02  0.11027496141E+03  0.41800000000E+01 0. -1.
        -11    1    1    2    0    0 -0.18353300659E+02 -0.61287858185E+01 -0.16414017694E+02  0.25373719427E+02  0.00000000000E+00 0.  1.
         11    1    1    2    0    0  0.81406261903E+02  0.65583846986E+02 -0.52434984159E+02  0.11695147723E+03  0.00000000000E+00 0. -1.
</event>
<event>
 7    1  0.2810263E-009  0.9949847E+02  0.7561462E-02  0.1281354E+00
          4   -1    0    0  501    0  0.00000000000E+00  0.00000000000E+00  0.53426012686E+02  0.53426012686E+02  0.00000000000E+00 0. -1.
         -4   -1    0    0    0  501 -0.00000000000E+00 -0.00000000000E+00 -0.42379187476E+03  0.42379187476E+03  0.00000000000E+00 0.  1.
         25    2    1    2    0    0 -0.62793555366E+02 -0.33311143421E+02 -0.32278032299E+03  0.35339724673E+03  0.12509921749E+03 0.  0.
          5    1    3    3  502    0  0.19889638974E+02  0.16847669610E+02 -0.17338769225E+03  0.17538587724E+03  0.41800000000E+01 0.  1.
         -5    1    3    3    0  502 -0.82683194341E+02 -0.50158813031E+02 -0.14939263074E+03  0.17801136950E+03  0.41800000000E+01 0.  1.
        -11    1    1    2    0    0  0.40175281513E+02  0.34773300306E+02  0.16667598486E+02  0.55687022709E+02  0.00000000000E+00 0. -1.
         11    1    1    2    0    0  0.22618273853E+02 -0.14621568853E+01 -0.64253137571E+02  0.68133618006E+02  0.00000000000E+00 0.  1.
</event>
<event>
 7    1  0.2810263E-009  0.1938881E+03  0.7561462E-02  0.1155001E+00
          1   -1    0    0  501    0  0.00000000000E+00  0.00000000000E+00  0.37680860669E+03  0.37680860669E+03  0.00000000000E+00 0. -1.
         -1   -1    0    0    0  501 -0.00000000000E+00 -0.00000000000E+00 -0.12323007201E+03  0.12323007201E+03  0.00000000000E+00 0.  1.
         25    2    1    2    0    0  0.38682195751E+02  0.16999811162E+03  0.18616377334E+03  0.28407768038E+03  0.12508999866E+03 0.  0.
          5    1    3    3  502    0 -0.40675677392E+02  0.96562332286E+02  0.10846401997E+03  0.15086653299E+03  0.41800000000E+01 0.  1.
         -5    1    3    3    0  502  0.79357873144E+02  0.73435779338E+02  0.77699753368E+02  0.13321114739E+03  0.41800000000E+01 0.  1.
        -11    1    1    2    0    0 -0.16045383370E+02 -0.95835135832E+02  0.92806714907E+02  0.13436857490E+03  0.00000000000E+00 0. -1.
         11    1    1    2    0    0 -0.22636812381E+02 -0.74162975792E+02 -0.25391953565E+02  0.81592423417E+02  0.00000000000E+00 0.  1.
</event>
<event>
 7    1  0.2810263E-009  0.1964536E+03  0.7561462E-02  0.1152766E+00
         -4   -1    0    0    0  501 -0.00000000000E+00  0.00000000000E+00  0.29635602585E+03  0.29635602585E+03  0.00000000000E+00 0.  1.
          4   -1    0    0  501    0  0.00000000000E+00 -0.00000000000E+00 -0.23723325189E+03  0.23723325189E+03  0.00000000000E+00 0. -1.
         25    2    1    2    0    0  0.16477315132E+03  0.96390826744E+02  0.17917480455E+03  0.29015882906E+03  0.12508857909E+03 0.  0.
          5    1    3    3  502    0  0.66596685746E+02  0.35503594439E+01  0.14190387211E+01  0.66837187818E+02  0.41800000000E+01 0.  1.
         -5    1    3    3    0  502  0.98176465578E+02  0.92840467301E+02  0.17775576583E+03  0.22332164124E+03  0.41800000000E+01 0.  1.
        -11    1    1    2    0    0 -0.32152979190E+02 -0.18404378987E+02  0.13768779160E+02  0.39523594425E+02  0.00000000000E+00 0.  1.
         11    1    1    2    0    0 -0.13262017213E+03 -0.77986447758E+02 -0.13382080975E+03  0.20390685426E+03  0.00000000000E+00 0. -1.
</event>
<event>
 7    1  0.2810263E-009  0.1657788E+03  0.7561462E-02  0.1182323E+00
          2   -1    0    0  501    0  0.00000000000E+00  0.00000000000E+00  0.21904023058E+03  0.21904023058E+03  0.00000000000E+00 0. -1.
         -2   -1    0    0    0  501 -0.00000000000E+00 -0.00000000000E+00 -0.18526909100E+03  0.18526909100E+03  0.00000000000E+00 0.  1.
         25    2    1    2    0    0 -0.59278214854E+02  0.12129483934E+03  0.11944821834E+03  0.21941314697E+03  0.12509159601E+03 0.  0.
          5    1    3    3  502    0  0.14822538054E+02  0.85938659099E+02  0.18537611752E+02  0.89253998295E+02  0.41800000000E+01 0. -1.
         -5    1    3    3    0  502 -0.74100752907E+02  0.35356180241E+02  0.10091060659E+03  0.13015914868E+03  0.41800000000E+01 0. -1.
        -11    1    1    2    0    0  0.60811502930E+02 -0.25027093924E+02 -0.48401443376E+02  0.81652275166E+02  0.00000000000E+00 0.  1.
         11    1    1    2    0    0 -0.15332880767E+01 -0.96267745417E+02 -0.37275635382E+02  0.10324389945E+03  0.00000000000E+00 0. -1.
</event>
<event>
 7    1  0.2810263E-009  0.8484381E+02  0.7561462E-02  0.1315842E+00
          2   -1    0    0  501    0  0.00000000000E+00  0.00000000000E+00  0.73538658136E+02  0.73538658136E+02  0.00000000000E+00 0. -1.
         -2   -1    0    0    0  501 -0.00000000000E+00 -0.00000000000E+00 -0.17800320131E+03  0.17800320131E+03  0.00000000000E+00 0.  1.
         25    2    1    2    0    0  0.12842107081E+02 -0.20528805789E+02 -0.31243425306E+02  0.13118549820E+03  0.12508849560E+03 0.  0.
          5    1    3    3  502    0 -0.40438926511E+02 -0.51471463244E+02 -0.14006014274E+02  0.67069062478E+02  0.41800000000E+01 0.  1.
         -5    1    3    3    0  502  0.53281033592E+02  0.30942657455E+02 -0.17237411032E+02  0.64116435725E+02  0.41800000000E+01 0.  1.
        -11    1    1    2    0    0  0.11821895249E+02  0.10154664628E+02  0.18860412461E+02  0.24466090394E+02  0.00000000000E+00 0. -1.
         11    1    1    2    0    0 -0.24664002330E+02  0.10374141161E+02 -0.92081530331E+02  0.95890270851E+02  0.00000000000E+00 0.  1.
</event>
<event>
 7    1  0.2810263E-009  0.1148234E+03  0.7561462E-02  0.1251890E+00
         -2   -1    0    0    0  501 -0.00000000000E+00  0.00000000000E+00  0.31992378413E+02  0.31992378413E+02  0.00000000000E+00 0.  1.
          2   -1    0    0  501    0  0.00000000000E+00 -0.00000000000E+00 -0.68841235856E+03  0.68841235856E+03  0.00000000000E+00 0. -1.
         25    2    1    2    0    0 -0.96000928089E+02  0.29869890141E+02 -0.34138247277E+03  0.37722365179E+03  0.12508917707E+03 0.  0.
          5    1    3    3  502    0 -0.10071103430E+03  0.64048546236E+01 -0.13086245716E+03  0.16530635101E+03  0.41800000000E+01 0. -1.
         -5    1    3    3    0  502  0.47101062082E+01  0.23465035517E+02 -0.21052001561E+03  0.21191730077E+03  0.41800000000E+01 0. -1.
        -11    1    1    2    0    0  0.13293918337E+02 -0.15473291643E+02 -0.37113013119E+01  0.20734627474E+02  0.00000000000E+00 0.  1.
         11    1    1    2    0    0  0.82707009752E+02 -0.14396598497E+02 -0.31132620607E+03  0.32244645772E+03  0.00000000000E+00 0. -1.
</event>
<event>
 7    1  0.2810263E-009  0.1191036E+03  0.7561462E-02  0.1244583E+00
         -4   -1    0    0    0  501 -0.00000000000E+00  0.00000000000E+00  0.30700121688E+03  0.30700121688E+03  0.00000000000E+00 0.  1.
          4   -1    0    0  501    0  0.00000000000E+00 -0.00000000000E+00 -0.73857175256E+02  0.73857175256E+02  0.00000000000E+00 0. -1.
         25    2    1    2    0    0 -0.69061494550E+02 -0.68949237533E+02  0.17207167156E+03  0.23404982508E+03  0.12508866088E+03 0.  0.
          5    1    3    3  502    0 -0.27186577445E+02 -0.73772997826E+02  0.17468707520E+03  0.19161057341E+03  0.41800000000E+01 0. -1.
         -5    1    3    3    0  502 -0.41874917105E+02  0.48237602930E+01 -0.26154036419E+01  0.42439251668E+02  0.41800000000E+01 0. -1.
        -11    1    1    2    0    0 -0.60563775513E+00 -0.11030693813E+02  0.36221660511E+02  0.37868874994E+02  0.00000000000E+00 0.  1.
         11    1    1    2    0    0  0.69667132305E+02  0.79979931346E+02  0.24850709558E+02  0.10893969207E+03  0.00000000000E+00 0. -1.
</event>
<event>
 7    1  0.2810263E-009  0.9657471E+02  0.7561462E-02  0.1287668E+00
         -1   -1    0    0    0  501 -0.00000000000E+00  0.00000000000E+00  0.10758244859E+03  0.10758244859E+03  0.00000000000E+00 0.  1.
          1   -1    0    0  501    0  0.00000000000E+00 -0.00000000000E+00 -0.14873684227E+03  0.14873684227E+03  0.00000000000E+00 0. -1.
         25    2    1    2    0    0 -0.18286418057E+02  0.41392416724E+02 -0.68410444404E+02  0.14957904122E+03  0.12508467300E+03 0.  0.
          5    1    3    3  502    0  0.44067379298E+02  0.47346213125E+02 -0.55848665980E+02  0.85557838374E+02  0.41800000000E+01 0. -1.
         -5    1    3    3    0  502 -0.62353797355E+02 -0.59537964004E+01 -0.12561778424E+02  0.64021202842E+02  0.41800000000E+01 0. -1.
        -11    1    1    2    0    0 -0.15026244043E+02 -0.23086847830E+02  0.53756625502E+02  0.60403355356E+02  0.00000000000E+00 0.  1.
         11    1    1    2    0    0  0.33312662101E+02 -0.18305568894E+02 -0.26500574776E+02  0.46336894288E+02  0.00000000000E+00 0. -1.
</event>
<event>
 7    1  0.2810263E-009  0.9820833E+02  0.7561462E-02  0.1284109E+00
          1   -1    0    0  501    0  0.00000000000E+00  0.00000000000E+00  0.74151759159E+03  0.74151759159E+03  0.00000000000E+00 0. -1.
         -1   -1    0    0    0  501 -0.00000000000E+00 -0.00000000000E+00 -0.19375885229E+02  0.19375885229E+02  0.00000000000E+00 0.  1.
         25    2    1    2    0    0 -0.12293272168E+02 -0.14017540428E+02  0.57433452624E+03  0.58809411908E+03  0.12508768480E+03 0.  0.
          5    1    3    3  502    0  0.47448417792E+02  0.10949875332E+00  0.11235305525E+03  0.12203296999E+03  0.41800000000E+01 0.  1.
         -5    1    3    3    0  502 -0.59741689960E+02 -0.14127039181E+02  0.46198147098E+03  0.46606114909E+03  0.41800000000E+01 0.  1.
        -11    1    1    2    0    0  0.49096175412E+02  0.11094656151E+02  0.65623514487E+02  0.82704120144E+02  0.00000000000E+00 0.  1.
         11    1    1    2    0    0 -0.36802903243E+02  0.29228842773E+01  0.82183665641E+02  0.90095237598E+02  0.00000000000E+00 0. -1.
</event>
<event>
 7    1  0.2810263E-009  0.1121648E+03  0.7561462E-02  0.1256613E+00
         -3   -1    0    0    0  501 -0.00000000000E+00  0.00000000000E+00  0.65739133678E+02  0.65739133678E+02  0.00000000000E+00 0.  1.
          3   -1    0    0  501    0  0.00000000000E+00 -0.00000000000E+00 -0.22917613047E+03  0.22917613047E+03  0.00000000000E+00 0. -1.
         25    2    1    2    0    0  0.33106166228E+02 -0.47125790941E+02 -0.10957263586E+03  0.17598441456E+03  0.12508994054E+03 0.  0.
          5    1    3    3  502    0 -0.15356616655E+02  0.30565829767E+02 -0.66080920920E+02  0.74526881956E+02  0.41800000000E+01 0.  1.
         -5    1    3    3    0  502  0.48462782883E+02 -0.77691620708E+02 -0.43491714939E+02  0.10145753260E+03  0.41800000000E+01 0.  1.
        -11    1    1    2    0    0 -0.58590079083E+02  0.42311541935E+02 -0.58002681660E+02  0.92668090666E+02  0.00000000000E+00 0. -1.
         11    1    1    2    0    0  0.25483912855E+02  0.48142490059E+01  0.41383207290E+01  0.26262758925E+02  0.00000000000E+00 0.  1.
</event>
<event>
 7    1  0.2810263E-009  0.1703687E+03  0.7561462E-02  0.1177464E+00
         -2   -1    0    0    0  501 -0.00000000000E+00  0.00000000000E+00  0.95462882667E+02  0.95462882667E+02  0.00000000000E+00 0.  1.
          2   -1    0    0  501    0  0.00000000000E+00 -0.00000000000E+00 -0.40111795381E+03  0.40111795381E+03  0.00000000000E+00 0. -1.
         25    2    1    2    0    0  0.11695682759E+03 -0.10835678715E+03 -0.19791829189E+03  0.28326531853E+03  0.12508995793E+03 0.  0.
          5    1    3    3  502    0 -0.93827066295E+01 -0.10400169294E+02  0.12319515024E+02  0.19116525716E+02  0.41800000000E+01 0.  1.
         -5    1    3    3    0  502  0.12633953422E+03 -0.97956617858E+02 -0.21023780692E+03  0.26414879282E+03  0.41800000000E+01 0.  1.
        -11    1    1    2    0    0 -0.36394176999E+02  0.65535907046E+02 -0.38624735706E+01  0.75062706678E+02  0.00000000000E+00 0.  1.
         11    1    1    2    0    0 -0.80562650589E+02  0.42820880106E+02 -0.10387430568E+03  0.13825281127E+03  0.00000000000E+00 0. -1.
</event>
<event>
 7    1  0.2810263E-009  0.2907582E+03  0.7561462E-02  0.1089954E+00
          1   -1    0    0  501    0  0.00000000000E+00  0.00000000000E+00  0.53780122275E+03  0.53780122275E+03  0.00000000000E+00 0. -1.
         -1   -1    0    0    0  501 -0.00000000000E+00 -0.00000000000E+00 -0.16049067131E+03  0.16049067131E+03  0.00000000000E+00 0.  1.
         25    2    1    2    0    0 -0.23273839385E+03 -0.13825817250E+03  0.23044119322E+03  0.37687257125E+03  0.12508920492E+03 0.  0.
          5    1    3    3  502    0 -0.62359539189E+02  0.19315915029E+02  0.61527233612E+02  0.89804730261E+02  0.41800000000E+01 0. -1.
         -5    1    3    3    0  502 -0.17037885466E+03 -0.15757408753E+03  0.16891395961E+03  0.28706784098E+03  0.41800000000E+01 0. -1.
        -11    1    1    2    0    0  0.31434248009E+02  0.60517144312E+02  0.51674970393E+02  0.85561318765E+02  0.00000000000E+00 0.  1.
         11    1    1    2    0    0  0.20130414584E+03  0.77741028187E+02  0.95194387828E+02  0.23585800404E+03  0.00000000000E+00 0. -1.
</event>
<event>
 7    1  0.2810263E-009  0.1006601E+03  0.7561462E-02  0.1278914E+00
          2   -1    0    0  501    0  0.00000000000E+00  0.00000000000E+00  0.47910769850E+03  0.47910769850E+03  0.00000000000E+00 0. -1.
         -2   -1    0    0    0  501 -0.00000000000E+00 -0.00000000000E+00 -0.27767210913E+02  0.27767210913E+02  0.00000000000E+00 0.  1.
         25    2    1    2    0    0 -0.38603190201E+01 -0.77177212189E+01  0.16716721500E+03  0.20896584115E+03  0.12508948682E+03 0.  0.
          5    1    3    3  502    0 -0.41752160259E+02 -0.46968145096E+02  0.12470192818E+03  0.13970430499E+03  0.41800000000E+01 0.  1.
         -5    1    3    3    0  502  0.37891841239E+02  0.39250423877E+02  0.42465286821E+02  0.69261536164E+02  0.41800000000E+01 0.  1.
        -11    1    1    2    0    0 -0.88876853290E+01  0.44143879379E+02  0.20426569040E+03  0.20917013484E+03  0.00000000000E+00 0.  1.
         11    1    1    2    0    0  0.12748004349E+02 -0.36426158160E+02  0.79907582193E+02  0.88738933424E+02  0.00000000000E+00 0. -1.
</event>
<event>
 7    1  0.2810263E-009  0.1210826E+03  0.7561462E-02  0.1241322E+00
         -2   -1    0    0    0  501 -0.00000000000E+00  0.00000000000E+00  0.11049202601E+03  0.11049202601E+03  0.00000000000E+00 0. -1.
          2   -1    0    0  501    0  0.00000000000E+00 -0.00000000000E+00 -0.13890415298E+03  0.13890415298E+03  0.00000000000E+00 0.  1.
         25    2    1    2    0    0 -0.79438419433E+01 -0.59064649835E+02 -0.28366970001E+02  0.14144274323E+03  0.12509846977E+03 0.  0.
          5    1    3    3  502    0 -0.63549932681E+02 -0.41215055974E+02 -0.32963652391E+02  0.82712451068E+02  0.41800000000E+01 0.  1.
         -5    1    3    3    0  502  0.55606090737E+02 -0.17849593861E+02  0.45966823905E+01  0.58730292159E+02  0.41800000000E+01 0.  1.
        -11    1    1    2    0    0  0.30296732560E+02  0.74610869091E+02 -0.28785759029E+01  0.80578905363E+02  0.00000000000E+00 0. -1.
         11    1    1    2    0    0 -0.22352890617E+02 -0.15546219256E+02  0.28334189373E+01  0.27374530406E+02  0.00000000000E+00 0.  1.
</event>
<event>
 7    1  0.2810263E-009  0.2007390E+03  0.7561462E-02  0.1149117E+00
         -2   -1    0    0    0  501 -0.00000000000E+00  0.00000000000E+00  0.18710501876E+02  0.18710501876E+02  0.00000000000E+00 0. -1.
          2   -1    0    0  501    0  0.00000000000E+00 -0.00000000000E+00 -0.27667631397E+04  0.27667631397E+04  0.00000000000E+00 0.  1.
         25    2    1    2    0    0 -0.31769944988E+02 -0.17057555052E+03 -0.20297300709E+04  0.20409696972E+04  0.12509115191E+03 0.  0.
          5    1    3    3  502    0 -0.11777130469E+02  0.19261607933E+02 -0.21297114188E+03  0.21420525208E+03  0.41800000000E+01 0.  1.
         -5    1    3    3    0  502 -0.19992814519E+02 -0.18983715846E+03 -0.18167589290E+04  0.18267644451E+04  0.41800000000E+01 0.  1.
        -11    1    1    2    0    0 -0.67496535710E+01  0.13494227485E+03 -0.60070127309E+03  0.61570853077E+03  0.00000000000E+00 0.  1.
         11    1    1    2    0    0  0.38519598559E+02  0.35633275669E+02 -0.11762129390E+03  0.12879541368E+03  0.00000000000E+00 0. -1.
</event>
<event>
 7    1  0.2810263E-009  0.1457215E+03  0.7561462E-02  0.1205831E+00
          1   -1    0    0  501    0  0.00000000000E+00  0.00000000000E+00  0.18277229920E+03  0.18277229920E+03  0.00000000000E+00 0. -1.
         -1   -1    0    0    0  501 -0.00000000000E+00 -0.00000000000E+00 -0.14666774715E+03  0.14666774715E+03  0.00000000000E+00 0.  1.
         25    2    1    2    0    0 -0.10710231204E+03  0.34275077908E+02 -0.32171510860E+02  0.17125339724E+03  0.12508810392E+03 0.  0.
          5    1    3    3  502    0 -0.12266007468E+03  0.44548075943E+02  0.36916297772E+01  0.13061824345E+03  0.41800000000E+01 0. -1.
         -5    1    3    3    0  502  0.15557762639E+02 -0.10272998035E+02 -0.35863140637E+02  0.40635153788E+02  0.41800000000E+01 0. -1.
        -11    1    1    2    0    0  0.64814394883E+02  0.24562764560E+02  0.42368697664E+02  0.81236332565E+02  0.00000000000E+00 0.  1.
         11    1    1    2    0    0  0.42287917160E+02 -0.58837842468E+02  0.25907365246E+02  0.76950316555E+02  0.00000000000E+00 0. -1.
</event>
<event>
 7    1  0.2810263E-009  0.8126115E+02  0.7561462E-02  0.1325510E+00
          2   -1    0    0  501    0  0.00000000000E+00  0.00000000000E+00  0.77301446148E+03  0.77301446148E+03  0.00000000000E+00 0. -1.
         -2   -1    0    0    0  501 -0.00000000000E+00 -0.00000000000E+00 -0.15814153743E+02  0.15814153743E+02  0.00000000000E+00 0.  1.
         25    2    1    2    0    0  0.10696708372E+02 -0.13171745693E+02  0.47146678973E+03  0.48807367683E+03  0.12508823185E+03 0.  0.
          5    1    3    3  502    0 -0.46797277150E+00  0.27684969340E+02  0.42153631750E+03  0.42246540201E+03  0.41800000000E+01 0. -1.
         -5    1    3    3    0  502  0.11164681144E+02 -0.40856715033E+02  0.49930472228E+02  0.65608274823E+02  0.41800000000E+01 0. -1.
        -11    1    1    2    0    0 -0.29481194420E+02 -0.31714595442E+02  0.10480785681E+03  0.11340036701E+03  0.00000000000E+00 0.  1.
         11    1    1    2    0    0  0.18784486048E+02  0.44886341136E+02  0.18092566120E+03  0.18735457138E+03  0.00000000000E+00 0. -1.
</event>
<event>
 7    1  0.2810263E-009  0.1273481E+03  0.7561462E-02  0.1231445E+00
          2   -1    0    0  501    0  0.00000000000E+00  0.00000000000E+00  0.51137142008E+03  0.51137142008E+03  0.00000000000E+00 0. -1.
         -2   -1    0    0    0  501 -0.00000000000E+00 -0.00000000000E+00 -0.33989188114E+02  0.33989188114E+02  0.00000000000E+00 0.  1.
         25    2    1    2    0    0  0.61419429502E+02 -0.37554659434E+02  0.31268787134E+03  0.34438947621E+03  0.12509079772E+03 0.  0.
          5    1    3    3  502    0 -0.26853218746E+02 -0.43368355248E+02  0.75546969786E+02  0.91250899381E+02  0.41800000000E+01 0. -1.
         -5    1    3    3    0  502  0.88272648249E+02  0.58136958145E+01  0.23714090156E+03  0.25313857683E+03  0.41800000000E+01 0. -1.
        -11    1    1    2    0    0 -0.77451452426E+02  0.37525844923E+01  0.10515450143E+03  0.13065327605E+03  0.00000000000E+00 0. -1.
         11    1    1    2    0    0  0.16032022924E+02  0.33802074942E+02  0.59539859197E+02  0.70317855930E+02  0.00000000000E+00 0.  1.
</event>
<event>
 7    1  0.2810263E-009  0.8440267E+02  0.7561462E-02  0.1317002E+00
         -1   -1    0    0    0  501 -0.00000000000E+00  0.00000000000E+00  0.39138176678E+03  0.39138176678E+03  0.00000000000E+00 0.  1.
          1   -1    0    0  501    0  0.00000000000E+00 -0.00000000000E+00 -0.30664135292E+02  0.30664135292E+02  0.00000000000E+00 0. -1.
         25    2    1    2    0    0  0.14864220512E+02 -0.52019968562E+01  0.23370138014E+03  0.26554032052E+03  0.12508925180E+03 0.  0.
          5    1    3    3  502    0 -0.27391003824E+02 -0.17998367076E+02  0.21481054037E+03  0.21733671794E+03  0.41800000000E+01 0. -1.
         -5    1    3    3    0  502  0.42255224336E+02  0.12796370220E+02  0.18890839770E+02  0.48203602580E+02  0.41800000000E+01 0. -1.
        -11    1    1    2    0    0 -0.40725872423E+02  0.33752741740E+02  0.71839779181E+02  0.89212096335E+02  0.00000000000E+00 0. -1.
         11    1    1    2    0    0  0.25861651911E+02 -0.28550744884E+02  0.55176472164E+02  0.67293485223E+02  0.00000000000E+00 0.  1.
</event>
<event>
 7    1  0.2810263E-009  0.9151927E+02  0.7561462E-02  0.1299214E+00
          2   -1    0    0  501    0  0.00000000000E+00  0.00000000000E+00  0.70574862970E+03  0.70574862970E+03  0.00000000000E+00 0. -1.
         -2   -1    0    0    0  501 -0.00000000000E+00 -0.00000000000E+00 -0.22319110714E+02  0.22319110714E+02  0.00000000000E+00 0.  1.
         25    2    1    2    0    0 -0.24019197489E+02  0.47601633026E+02  0.48405187433E+03  0.50278770240E+03  0.12508564796E+03 0.  0.
          5    1    3    3  502    0 -0.60622389466E+02  0.55781790124E+02  0.42334934048E+03  0.43131058264E+03  0.41800000000E+01 0.  1.
         -5    1    3    3    0  502  0.36603191977E+02 -0.81801570972E+01  0.60702533857E+02  0.71477119763E+02  0.41800000000E+01 0.  1.
        -11    1    1    2    0    0 -0.62782818621E+01 -0.22830289344E+02  0.16703436141E+01  0.23736659041E+02  0.00000000000E+00 0.  1.
         11    1    1    2    0    0  0.30297479351E+02 -0.24771343683E+02  0.19770730104E+03  0.20154337897E+03  0.00000000000E+00 0. -1.
</event>
<event>
 7    1  0.2810263E-009  0.1102678E+03  0.7561462E-02  0.1260075E+00
          2   -1    0    0  501    0  0.00000000000E+00  0.00000000000E+00  0.42248486319E+03  0.42248486319E+03  0.00000000000E+00 0. -1.
         -2   -1    0    0    0  501 -0.00000000000E+00 -0.00000000000E+00 -0.32919665448E+02  0.32919665448E+02  0.00000000000E+00 0.  1.
         25    2    1    2    0    0  0.24586723885E+02  0.39343671898E+02  0.20124828348E+03  0.24145549061E+03  0.12508977110E+03 0.  0.
          5    1    3    3  502    0 -0.41874335046E+02  0.34568319837E+02  0.41986644422E+02  0.68766120886E+02  0.41800000000E+01 0.  1.
         -5    1    3    3    0  502  0.66461058931E+02  0.47753520610E+01  0.15926163906E+03  0.17268936973E+03  0.41800000000E+01 0.  1.
        -11    1    1    2    0    0  0.91520230914E+01 -0.59374204408E+02  0.13488126945E+03  0.14765504571E+03  0.00000000000E+00 0.  1.
         11    1    1    2    0    0 -0.33738746976E+02  0.20030532510E+02  0.53435644813E+02  0.66293992312E+02  0.00000000000E+00 0. -1.
</event>
<event>
 7    1  0.2810263E-009  0.9769936E+02  0.7561462E-02  0.1285210E+00
         -2   -1    0    0    0  501 -0.00000000000E+00  0.00000000000E+00  0.17685813147E+03  0.17685813147E+03  0.00000000000E+00 0. -1.
          2   -1    0    0  501    0  0.00000000000E+00 -0.00000000000E+00 -0.71371931761E+02  0.71371931761E+02  0.00000000000E+00 0.  1.
         25    2    1    2    0    0  0.54439938477E+01  0.28133644304E+02  0.50600555967E+02  0.13794149014E+03  0.12508516870E+03 0.  0.
          5    1    3    3  502    0 -0.54255325110E+02  0.21860244190E+02 -0.10327362283E+01  0.58651935373E+02  0.41800000000E+01 0.  1.
         -5    1    3    3    0  502  0.59699318957E+02  0.62734001136E+01  0.51633292195E+02  0.79289554772E+02  0.41800000000E+01 0.  1.
        -11    1    1    2    0    0  0.53061450716E+00 -0.51988299757E+02  0.20742348799E+01  0.52032367943E+02  0.00000000000E+00 0.  1.
         11    1    1    2    0    0 -0.59746083549E+01  0.23854655453E+02  0.52811408863E+02  0.58256205145E+02  0.00000000000E+00 0. -1.
</event>
<event>
 7    1  0.2810263E-009  0.1090902E+03  0.7561462E-02  0.1262264E+00
         -2   -1    0    0    0  501 -0.00000000000E+00  0.00000000000E+00  0.10860409878E+03  0.10860409878E+03  0.00000000000E+00 0.  1.
          2   -1    0    0  501    0  0.00000000000E+00 -0.00000000000E+00 -0.12151000344E+03  0.12151000344E+03  0.00000000000E+00 0. -1.
         25    2    1    2    0    0  0.29267091158E+02 -0.31216742516E+02 -0.19756510246E+01  0.13221748663E+03  0.12508602215E+03 0.  0.
          5    1    3    3  502    0 -0.67320420592E+01  0.42691926323E+02  0.18806241132E+02  0.47318791922E+02  0.41800000000E+01 0.  1.
         -5    1    3    3    0  502  0.35999133218E+02 -0.73908668839E+02 -0.20781892156E+02  0.84898694710E+02  0.41800000000E+01 0.  1.
        -11    1    1    2    0    0  0.28068137621E+02  0.18790236025E+02 -0.18877528227E+02  0.38694371572E+02  0.00000000000E+00 0. -1.
         11    1    1    2    0    0 -0.57335228779E+02  0.12426506491E+02  0.79472745969E+01  0.59202244013E+02  0.00000000000E+00 0.  1.
</event>
<event>
 7    1  0.2810263E-009  0.1131635E+03  0.7561462E-02  0.1254821E+00
         -1   -1    0    0    0  501 -0.00000000000E+00  0.00000000000E+00  0.46140368189E+02  0.46140368189E+02  0.00000000000E+00 0.  1.
          1   -1    0    0  501    0  0.00000000000E+00 -0.00000000000E+00 -0.34547214449E+03  0.34547214449E+03  0.00000000000E+00 0. -1.
         25    2    1    2    0    0  0.38683225326E+02  0.39359077063E+02 -0.11641786269E+03  0.17956789033E+03  0.12508389032E+03 0.  0.
          5    1    3    3  502    0 -0.38161985439E+02  0.29892517592E+02 -0.80619656837E+02  0.94164224678E+02  0.41800000000E+01 0. -1.
         -5    1    3    3    0  502  0.76845210765E+02  0.94665594712E+01 -0.35798205849E+02  0.85403665657E+02  0.41800000000E+01 0. -1.
        -11    1    1    2    0    0 -0.39380046166E+02  0.17624907638E+02 -0.42744029997E+02  0.60732837129E+02  0.00000000000E+00 0.  1.
         11    1    1    2    0    0  0.69682084014E+00 -0.56983984702E+02 -0.14016988362E+03  0.15131178522E+03  0.00000000000E+00 0. -1.
</event>
<event>
 7    1  0.2810263E-009  0.1005298E+03  0.7561462E-02  0.1279186E+00
          1   -1    0    0  501    0  0.00000000000E+00  0.00000000000E+00  0.36673732486E+03  0.36673732486E+03  0.00000000000E+00 0. -1.
         -1   -1    0    0    0  501 -0.00000000000E+00 -0.00000000000E+00 -0.53215434105E+02  0.53215434105E+02  0.00000000000E+00 0.  1.
         25    2    1    2    0    0 -0.71771375543E+01 -0.52823135175E+02  0.69079499870E+02  0.15251778194E+03  0.12509157282E+03 0.  0.
          5    1    3    3  502    0 -0.40835993225E+02 -0.16123268098E+02 -0.21502946063E+02  0.49065132286E+02  0.41800000000E+01 0. -1.
         -5    1    3    3    0  502  0.33658855671E+02 -0.36699867077E+02  0.90582445933E+02  0.10345264965E+03  0.41800000000E+01 0. -1.
        -11    1    1    2    0    0 -0.42919941055E+02  0.25407015668E+02  0.92060019670E+02  0.10470284145E+03  0.00000000000E+00 0.  1.
         11    1    1    2    0    0  0.50097078610E+02  0.27416119507E+02  0.15238237122E+03  0.16273213558E+03  0.00000000000E+00 0. -1.
</event>
<event>
 7    1  0.2810263E-009  0.1147605E+03  0.7561462E-02  0.1252000E+00
          2   -1    0    0  501    0  0.00000000000E+00  0.00000000000E+00  0.13460309854E+03  0.13460309854E+03  0.00000000000E+00 0. -1.
         -2   -1    0    0    0  501 -0.00000000000E+00 -0.00000000000E+00 -0.15722465070E+03  0.15722465070E+03  0.00000000000E+00 0.  1.
         25    2    1    2    0    0  0.27225618895E+01 -0.86785331342E+02  0.30104001439E+02  0.15521871336E+03  0.12508993563E+03 0.  0.
          5    1    3    3  502    0 -0.42354642360E+02 -0.59281951334E+02  0.59927150659E+02  0.94429874879E+02  0.41800000000E+01 0.  1.
         -5    1    3    3    0  502  0.45077204250E+02 -0.27503380008E+02 -0.29823149220E+02  0.60788838484E+02  0.41800000000E+01 0.  1.
        -11    1    1    2    0    0  0.18188727111E+02  0.45896239463E+01 -0.48146109620E+02  0.51671484529E+02  0.00000000000E+00 0.  1.
         11    1    1    2    0    0 -0.20911289000E+02  0.82195707396E+02 -0.45794439868E+01  0.84937551349E+02  0.00000000000E+00 0. -1.
</event>
<event>
 7    1  0.2810263E-009  0.1459757E+03  0.7561462E-02  0.1205507E+00
          2   -1    0    0  501    0  0.00000000000E+00  0.00000000000E+00  0.81046475912E+03  0.81046475912E+03  0.00000000000E+00 0. -1.
         -2   -1    0    0    0  501 -0.00000000000E+00 -0.00000000000E+00 -0.40681026127E+02  0.40681026127E+02  0.00000000000E+00 0.  1.
         25    2    1    2    0    0 -0.13326649882E+03  0.34952949100E+02  0.29779257095E+03  0.35115381775E+03  0.12508764948E+03 0.  0.
          5    1    3    3  502    0 -0.99934563876E+02  0.49329621679E+02  0.29397038209E+03  0.31441435492E+03  0.41800000000E+01 0.  1.
         -5    1    3    3    0  502 -0.33331934943E+02 -0.14376672578E+02  0.38221888507E+01  0.36739462830E+02  0.41800000000E+01 0.  1.
        -11    1    1    2    0    0  0.56706253913E+02 -0.36272194750E+02  0.34654890499E+03  0.35302608246E+03  0.00000000000E+00 0. -1.
         11    1    1    2    0    0  0.76560244906E+02  0.13192456499E+01  0.12544225706E+03  0.14696588504E+03  0.00000000000E+00 0.  1.
</event>
<event>
 7    1  0.2810263E-009  0.1281475E+03  0.7561462E-02  0.1230231E+00
         -1   -1    0    0    0  501 -0.00000000000E+00  0.00000000000E+00  0.42895419081E+02  0.42895419081E+02  0.00000000000E+00 0.  1.
          1   -1    0    0  501    0  0.00000000000E+00 -0.00000000000E+00 -0.43363263124E+03  0.43363263124E+03  0.00000000000E+00 0. -1.
         25    2    1    2    0    0 -0.25310793306E+02 -0.70494478338E+02 -0.27500440200E+03  0.31126315262E+03  0.12508885373E+03 0.  0.
          5    1    3    3  502    0 -0.71087037952E+02 -0.22284737743E+02 -0.10620391280E+03  0.12979491514E+03  0.41800000000E+01 0. -1.
         -5    1    3    3    0  502  0.45776244647E+02 -0.48209740595E+02 -0.16880048920E+03  0.18146823749E+03  0.41800000000E+01 0. -1.
        -11    1    1    2    0    0  0.24238556366E+02 -0.15692155973E+02 -0.14507595840E+02  0.32314419550E+02  0.00000000000E+00 0.  1.
         11    1    1    2    0    0  0.10722369400E+01  0.86186634311E+02 -0.10122521431E+03  0.13295047814E+03  0.00000000000E+00 0. -1.
</event>
<event>
 7    1  0.2810263E-009  0.1288568E+03  0.7561462E-02  0.1229162E+00
          2   -1    0    0  501    0  0.00000000000E+00  0.00000000000E+00  0.90737897123E+03  0.90737897123E+03  0.00000000000E+00 0.  1.
         -2   -1    0    0    0  501 -0.00000000000E+00 -0.00000000000E+00 -0.19724096738E+02  0.19724096738E+02  0.00000000000E+00 0. -1.
         25    2    1    2    0    0  0.33100618321E+01  0.74621642307E+02  0.56237625222E+03  0.58094417332E+03  0.12509891065E+03 0.  0.
          5    1    3    3  502    0  0.10227801680E+02  0.10626821731E+03  0.34610770142E+03  0.36222307398E+03  0.41800000000E+01 0. -1.
         -5    1    3    3    0  502 -0.69177398481E+01 -0.31646575005E+02  0.21626855079E+03  0.21872109934E+03  0.41800000000E+01 0. -1.
        -11    1    1    2    0    0 -0.40416126508E+02 -0.69165486598E+01  0.12244915871E+03  0.12913209669E+03  0.00000000000E+00 0.  1.
         11    1    1    2    0    0  0.37106064676E+02 -0.67705093647E+02  0.20282946356E+03  0.21702679795E+03  0.00000000000E+00 0. -1.
</event>
<event>
 7    1  0.2810263E-009  0.2056077E+03  0.7561462E-02  0.1145092E+00
          1   -1    0    0  501    0  0.00000000000E+00  0.00000000000E+00  0.15772055178E+03  0.15772055178E+03  0.00000000000E+00 0. -1.
         -1   -1    0    0    0  501 -0.00000000000E+00 -0.00000000000E+00 -0.31691188412E+03  0.31691188412E+03  0.00000000000E+00 0.  1.
         25    2    1    2    0    0 -0.12682318000E+03 -0.14071228546E+03 -0.32813642279E+02  0.22936587957E+03  0.12509158775E+03 0.  0.
          5    1    3    3  502    0 -0.70166532852E+02 -0.14702287073E+03  0.97754775617E+00  0.16296470431E+03  0.41800000000E+01 0.  1.
         -5    1    3    3    0  502 -0.56656647152E+02  0.63105852657E+01 -0.33791190036E+02  0.66401175267E+02  0.41800000000E+01 0.  1.
        -11    1    1    2    0    0  0.22668661906E+02  0.12430181310E+02  0.13142732336E+02  0.29001880168E+02  0.00000000000E+00 0.  1.
         11    1    1    2    0    0  0.10415451810E+03  0.12828210415E+03 -0.13952042239E+03  0.21626467615E+03  0.00000000000E+00 0. -1.
</event>
<event>
 7    1  0.2810263E-009  0.1299221E+03  0.7561462E-02  0.1227571E+00
          2   -1    0    0  501    0  0.00000000000E+00  0.00000000000E+00  0.91512332235E+03  0.91512332235E+03  0.00000000000E+00 0. -1.
         -2   -1    0    0    0  501 -0.00000000000E+00 -0.00000000000E+00 -0.24523541525E+02  0.24523541525E+02  0.00000000000E+00 0.  1.
         25    2    1    2    0    0 -0.90578537533E+02 -0.30449886532E+02  0.52642791250E+03  0.54945870451E+03  0.12508738484E+03 0.  0.
          5    1    3    3  502    0  0.90714718034E+01 -0.53429589333E+02  0.15856454167E+03  0.16762219093E+03  0.41800000000E+01 0.  1.
         -5    1    3    3    0  502 -0.99650009337E+02  0.22979702801E+02  0.36786337084E+03  0.38183651358E+03  0.41800000000E+01 0.  1.
        -11    1    1    2    0    0  0.40302351043E+02 -0.63952220991E+01  0.31027853153E+02  0.51263105998E+02  0.00000000000E+00 0.  1.
         11    1    1    2    0    0  0.50276186490E+02  0.36845108631E+02  0.33314401517E+03  0.33892505337E+03  0.00000000000E+00 0. -1.
</event>
<event>
 7    1  0.2810263E-009  0.1040151E+03  0.7561462E-02  0.1272072E+00
          2   -1    0    0  501    0  0.00000000000E+00  0.00000000000E+00  0.27278092423E+03  0.27278092423E+03  0.00000000000E+00 0.  1.
         -2   -1    0    0    0  501 -0.00000000000E+00 -0.00000000000E+00 -0.62520233893E+02  0.62520233893E+02  0.00000000000E+00 0. -1.
         25    2    1    2    0    0  0.44448322067E+02  0.15717569826E+02  0.18829041589E+03  0.23091822227E+03  0.12508896564E+03 0.  0.
          5    1    3    3  502    0 -0.98657759358E+01 -0.38763611983E+02  0.12468809266E+03  0.13101352602E+03  0.41800000000E+01 0. -1.
         -5    1    3    3    0  502  0.54314098003E+02  0.54481181808E+02  0.63602323237E+02  0.99904696257E+02  0.41800000000E+01 0. -1.
        -11    1    1    2    0    0 -0.54976035457E+02 -0.37519482886E+02  0.36737069656E+02  0.76024261637E+02  0.00000000000E+00 0.  1.
         11    1    1    2    0    0  0.10527713389E+02  0.21801913061E+02 -0.14766795211E+02  0.28358674213E+02  0.00000000000E+00 0. -1.
</event>
<event>
 7    1  0.2810263E-009  0.1104938E+03  0.7561462E-02  0.1259658E+00
         -1   -1    0    0    0  501 -0.00000000000E+00  0.00000000000E+00  0.53692970944E+02  0.53692970944E+02  0.00000000000E+00 0.  1.
          1   -1    0    0  501    0  0.00000000000E+00 -0.00000000000E+00 -0.23698617210E+03  0.23698617210E+03  0.00000000000E+00 0. -1.
         25    2    1    2    0    0  0.25399851623E+02  0.71264705991E+01 -0.89952051701E+02  0.15631626124E+03  0.12508981924E+03 0.  0.
          5    1    3    3  502    0  0.73849947963E+02  0.13844951713E+02 -0.71698424274E+02  0.10394053081E+03  0.41800000000E+01 0. -1.
         -5    1    3    3    0  502 -0.48450096340E+02 -0.67184811144E+01 -0.18253627427E+02  0.52375730430E+02  0.41800000000E+01 0. -1.
        -11    1    1    2    0    0  0.35039847803E+02 -0.89889712326E+01 -0.34276934993E+02  0.49834734978E+02  0.00000000000E+00 0. -1.
         11    1    1    2    0    0 -0.60439699425E+02  0.18625006335E+01 -0.59064214461E+02  0.84528146822E+02  0.00000000000E+00 0.  1.
</event>
<event>
 7    1  0.2810263E-009  0.1297014E+03  0.7561462E-02  0.1227899E+00
          1   -1    0    0  501    0  0.00000000000E+00  0.00000000000E+00  0.28850031219E+03  0.28850031219E+03  0.00000000000E+00 0. -1.
         -1   -1    0    0    0  501 -0.00000000000E+00 -0.00000000000E+00 -0.94257436025E+02  0.94257436025E+02  0.00000000000E+00 0.  1.
         25    2    1    2    0    0  0.93701107481E+02  0.18446313761E+02  0.19430551938E+03  0.25004542297E+03  0.12509162502E+03 0.  0.
          5    1    3    3  502    0  0.78656013305E+02 -0.45001562617E+02  0.96727909260E+02  0.13261097201E+03  0.41800000000E+01 0.  1.
         -5    1    3    3    0  502  0.15045094176E+02  0.63447876378E+02  0.97577610125E+02  0.11743445096E+03  0.41800000000E+01 0.  1.
        -11    1    1    2    0    0 -0.68193566262E+02 -0.31008628688E+02 -0.39033165023E+02  0.84471803014E+02  0.00000000000E+00 0.  1.
         11    1    1    2    0    0 -0.25507541219E+02  0.12562314927E+02  0.38970521807E+02  0.48240522232E+02  0.00000000000E+00 0. -1.
</event>
<event>
 7    1  0.2810263E-009  0.1117525E+03  0.7561462E-02  0.1257359E+00
         -1   -1    0    0    0  501 -0.00000000000E+00  0.00000000000E+00  0.73105079964E+01  0.73105079964E+01  0.00000000000E+00 0.  1.
          1   -1    0    0  501    0  0.00000000000E+00 -0.00000000000E+00 -0.19600666291E+04  0.19600666291E+04  0.00000000000E+00 0. -1.
         25    2    1    2    0    0 -0.18727467590E+02 -0.26454551238E+02 -0.14458756351E+04  0.14516387506E+04  0.12509256166E+03 0.  0.
          5    1    3    3  502    0 -0.66797983422E+02 -0.40848897689E+02 -0.93910875671E+03  0.94237642817E+03  0.41800000000E+01 0.  1.
         -5    1    3    3    0  502  0.48070515833E+02  0.14394346451E+02 -0.50676687835E+03  0.50926232248E+03  0.41800000000E+01 0.  1.
        -11    1    1    2    0    0  0.54772892773E+02  0.13236704936E+02 -0.27691915193E+03  0.28259422649E+03  0.00000000000E+00 0.  1.
         11    1    1    2    0    0 -0.36045425184E+02  0.13217846302E+02 -0.22996133408E+03  0.23314415993E+03  0.00000000000E+00 0. -1.
</event>
<event>
 7    1  0.2810263E-009  0.8930889E+02  0.7561462E-02  0.1304534E+00
         -1   -1    0    0    0  501 -0.00000000000E+00  0.00000000000E+00  0.42773654007E+03  0.42773654007E+03  0.00000000000E+00 0.  1.
          1   -1    0    0  501    0  0.00000000000E+00 -0.00000000000E+00 -0.43886655003E+02  0.43886655003E+02  0.00000000000E+00 0. -1.
         25    2    1    2    0    0  0.24550769987E+02 -0.60870901390E+02  0.30157753091E+03  0.33302314538E+03  0.12508957297E+03 0.  0.
          5    1    3    3  502    0  0.77610848685E+01 -0.96449081555E+01 -0.10209830076E+02  0.16582271312E+02  0.41800000000E+01 0.  1.
         -5    1    3    3    0  502  0.16789685119E+02 -0.51225993234E+02  0.31178736099E+03  0.31644087407E+03  0.41800000000E+01 0.  1.
        -11    1    1    2    0    0  0.34423018666E+02  0.22290120355E+02  0.28120312934E+02  0.49724698883E+02  0.00000000000E+00 0.  1.
         11    1    1    2    0    0 -0.58973788653E+02  0.38580781035E+02  0.54152041223E+02  0.88875350813E+02  0.00000000000E+00 0. -1.
</event>
<event>
 7    1  0.2810263E-009  0.1317082E+03  0.7561462E-02  0.1224943E+00
          2   -1    0    0  501    0  0.00000000000E+00  0.00000000000E+00  0.20038923812E+03  0.20038923812E+03  0.00000000000E+00 0. -1.
         -2   -1    0    0    0  501 -0.00000000000E+00 -0.00000000000E+00 -0.15626629293E+03  0.15626629293E+03  0.00000000000E+00 0.  1.
         25    2    1    2    0    0 -0.36704851547E+02 -0.10320490203E+03 -0.64310136705E+02  0.17827985214E+03  0.12509761814E+03 0.  0.
          5    1    3    3  502    0 -0.54764868707E+02 -0.34769475007E+02  0.20102007553E+02  0.68041680935E+02  0.41800000000E+01 0. -1.
         -5    1    3    3    0  502  0.18060017161E+02 -0.68435427022E+02 -0.84412144258E+02  0.11023817120E+03  0.41800000000E+01 0. -1.
        -11    1    1    2    0    0 -0.99560890741E+01  0.68850252458E+02  0.19528475769E+02  0.72255396608E+02  0.00000000000E+00 0.  1.
         11    1    1    2    0    0  0.46660940621E+02  0.34354649571E+02  0.88904606120E+02  0.10612028230E+03  0.00000000000E+00 0. -1.
</event>
<event>
 7    1  0.2810263E-009  0.1219770E+03  0.7561462E-02  0.1239871E+00
          2   -1    0    0  501    0  0.00000000000E+00  0.00000000000E+00  0.25055778498E+03  0.25055778498E+03  0.00000000000E+00 0. -1.
         -2   -1    0    0    0  501 -0.00000000000E+00 -0.00000000000E+00 -0.90333920675E+02  0.90333920675E+02  0.00000000000E+00 0.  1.
         25    2    1    2    0    0 -0.88403552697E+02 -0.37540428254E+02  0.46102279246E+02  0.16430920700E+03  0.12509046115E+03 0.  0.
          5    1    3    3  502    0 -0.45012228371E+02  0.36223432014E+02 -0.14065682449E+02  0.59611689730E+02  0.41800000000E+01 0.  1.
         -5    1    3    3    0  502 -0.43391324327E+02 -0.73763860268E+02  0.60167961694E+02  0.10469751727E+03  0.41800000000E+01 0.  1.
        -11    1    1    2    0    0  0.14362337565E+02 -0.46862727388E+01 -0.15372685090E+02  0.21553592262E+02  0.00000000000E+00 0.  1.
         11    1    1    2    0    0  0.74041215132E+02  0.42226700993E+02  0.12949427015E+03  0.15502890639E+03  0.00000000000E+00 0. -1.
</event>
<event>
 7    1  0.2810263E-009  0.1392582E+03  0.7561462E-02  0.1214331E+00
          2   -1    0    0  501    0  0.00000000000E+00  0.00000000000E+00  0.36420107198E+03  0.36420107198E+03  0.00000000000E+00 0. -1.
         -2   -1    0    0    0  501 -0.00000000000E+00 -0.00000000000E+00 -0.76098392896E+02  0.76098392896E+02  0.00000000000E+00 0.  1.
         25    2    1    2    0    0  0.12453614581E+03 -0.17313244401E+02  0.13453715240E+03  0.22261260043E+03  0.12508846648E+03 0.  0.
          5    1    3    3  502    0  0.22815363431E+02  0.43971864730E+01 -0.23540389501E+02  0.33339142089E+02  0.41800000000E+01 0.  1.
         -5    1    3    3    0  502  0.10172078238E+03 -0.21710430874E+02  0.15807754190E+03  0.18927345834E+03  0.41800000000E+01 0.  1.
        -11    1    1    2    0    0 -0.43077080185E+02 -0.33704549536E+02  0.34500785663E+02  0.64667887766E+02  0.00000000000E+00 0.  1.
         11    1    1    2    0    0 -0.81459065629E+02  0.51017793937E+02  0.11906474102E+03  0.15301897668E+03  0.00000000000E+00 0. -1.
</event>
<event>
 7    1  0.2810263E-009  0.1432878E+03  0.7561462E-02  0.1208972E+00
         -2   -1    0    0    0  501 -0.00000000000E+00  0.00000000000E+00  0.75204926537E+03  0.75204926537E+03  0.00000000000E+00 0.  1.
          2   -1    0    0  501    0  0.00000000000E+00 -0.00000000000E+00 -0.33218513428E+02  0.33218513428E+02  0.00000000000E+00 0. -1.
         25    2    1    2    0    0  0.59545834523E+02  0.98589027995E+02  0.41118146689E+03  0.44495385891E+03  0.12509290545E+03 0.  0.
          5    1    3    3  502    0 -0.19942868487E+02 -0.39006313494E+01  0.94762667060E+01  0.22808002085E+02  0.41800000000E+01 0.  1.
         -5    1    3    3    0  502  0.79488703010E+02  0.10248965934E+03  0.40170520019E+03  0.42214585683E+03  0.41800000000E+01 0.  1.
        -11    1    1    2    0    0 -0.17625375130E+02  0.95738630882E+01  0.10423691463E+03  0.10614917369E+03  0.00000000000E+00 0.  1.
         11    1    1    2    0    0 -0.41920459392E+02 -0.10816289108E+03  0.20341237042E+03  0.23416474620E+03  0.00000000000E+00 0. -1.
</event>
<event>
 7    1  0.2810263E-009  0.1536798E+03  0.7561462E-02  0.1196023E+00
         -2   -1    0    0    0  501 -0.00000000000E+00  0.00000000000E+00  0.48062326202E+02  0.48062326202E+02  0.00000000000E+00 0.  1.
          2   -1    0    0  501    0  0.00000000000E+00 -0.00000000000E+00 -0.97385412039E+03  0.97385412039E+03  0.00000000000E+00 0. -1.
         25    2    1    2    0    0  0.10507935522E+03 -0.10728134781E+03 -0.74315793265E+03  0.76842827312E+03  0.12508932642E+03 0.  0.
          5    1    3    3  502    0  0.90171791921E+01 -0.33053815451E+02 -0.32317283517E+02  0.47283648869E+02  0.41800000000E+01 0. -1.
         -5    1    3    3    0  502  0.96062176032E+02 -0.74227532362E+02 -0.71084064914E+03  0.72114462425E+03  0.41800000000E+01 0. -1.
        -11    1    1    2    0    0 -0.80302170377E+02  0.69550851930E+02 -0.17906747372E+03  0.20820883678E+03  0.00000000000E+00 0. -1.
         11    1    1    2    0    0 -0.24777184848E+02  0.37730495883E+02 -0.35663878175E+01  0.45279336685E+02  0.00000000000E+00 0.  1.
</event>
<event>
 7    1  0.2810263E-009  0.9079373E+02  0.7561462E-02  0.1300941E+00
          2   -1    0    0  501    0  0.00000000000E+00  0.00000000000E+00  0.76930338001E+03  0.76930338001E+03  0.00000000000E+00 0. -1.
         -2   -1    0    0    0  501 -0.00000000000E+00 -0.00000000000E+00 -0.31743013209E+02  0.31743013209E+02  0.00000000000E+00 0.  1.
         25    2    1    2    0    0 -0.55279455871E+02 -0.28009112055E+02  0.63893954850E+03  0.65401112680E+03  0.12508588548E+03 0.  0.
          5    1    3    3  502    0 -0.37105306304E+02 -0.40396481217E+02  0.96259594144E+02  0.11086956893E+03  0.41800000000E+01 0.  1.
         -5    1    3    3    0  502 -0.18174149567E+02  0.12387369162E+02  0.54267995436E+03  0.54314155787E+03  0.41800000000E+01 0.  1.
        -11    1    1    2    0    0  0.93223375236E+01 -0.29289410922E+02  0.50841874082E+02  0.59411040466E+02  0.00000000000E+00 0. -1.
         11    1    1    2    0    0  0.45957118347E+02  0.57298522978E+02  0.47778944219E+02  0.87624225947E+02  0.00000000000E+00 0.  1.
</event>
<event>
 7    1  0.2810263E-009  0.1566922E+03  0.7561462E-02  0.1192483E+00
          2   -1    0    0  501    0  0.00000000000E+00  0.00000000000E+00  0.64370555061E+03  0.64370555061E+03  0.00000000000E+00 0. -1.
         -2   -1    0    0    0  501 -0.00000000000E+00 -0.00000000000E+00 -0.63628167016E+02  0.63628167016E+02  0.00000000000E+00 0.  1.
         25    2    1    2    0    0  0.42574877673E+02  0.12781824043E+03  0.12073786512E+03  0.21994443622E+03  0.12509116737E+03 0.  0.
          5    1    3    3  502    0  0.37078336676E+02 -0.11066116314E+02  0.54233374830E+01  0.39295635513E+02  0.41800000000E+01 0. -1.
         -5    1    3    3    0  502  0.54965409974E+01  0.13888435674E+03  0.11531452764E+03  0.18064880070E+03  0.41800000000E+01 0. -1.
        -11    1    1    2    0    0 -0.81068195137E+01 -0.11352672458E+02  0.18751429266E+01  0.14075505517E+02  0.00000000000E+00 0.  1.
         11    1    1    2    0    0 -0.34468058159E+02 -0.11646556797E+03  0.45746437554E+03  0.47331377589E+03  0.00000000000E+00 0. -1.
</event>
<event>
 7    1  0.2810263E-009  0.1374988E+03  0.7561462E-02  0.1216735E+00
          2   -1    0    0  501    0  0.00000000000E+00  0.00000000000E+00  0.97312508196E+03  0.97312508196E+03  0.00000000000E+00 0. -1.
         -2   -1    0    0    0  501 -0.00000000000E+00 -0.00000000000E+00 -0.22444593959E+02  0.22444593959E+02  0.00000000000E+00 0.  1.
         25    2    1    2    0    0 -0.48118278471E+02 -0.84496434659E+02  0.45201763755E+03  0.47898068515E+03  0.12509011112E+03 0.  0.
          5    1    3    3  502    0 -0.36862155775E+02  0.17525097845E+02  0.53416581196E+02  0.67355409059E+02  0.41800000000E+01 0. -1.
         -5    1    3    3    0  502 -0.11256122696E+02 -0.10202153250E+03  0.39860105635E+03  0.41162527609E+03  0.41800000000E+01 0. -1.
        -11    1    1    2    0    0 -0.19334860747E+02 -0.42248835328E+01  0.40660759240E+02  0.45221497354E+02  0.00000000000E+00 0.  1.
         11    1    1    2    0    0  0.67453139218E+02  0.88721318192E+02  0.45800209121E+03  0.47136749341E+03  0.00000000000E+00 0. -1.
</event>
<event>
 7    1  0.2810263E-009  0.9340479E+02  0.7561462E-02  0.1294810E+00
         -1   -1    0    0    0  501 -0.00000000000E+00  0.00000000000E+00  0.40715865602E+03  0.40715865602E+03  0.00000000000E+00 0.  1.
          1   -1    0    0  501    0  0.00000000000E+00 -0.00000000000E+00 -0.28994175822E+02  0.28994175822E+02  0.00000000000E+00 0. -1.
         25    2    1    2    0    0 -0.24218587356E+02  0.33247986644E+02  0.31082764249E+03  0.33756794784E+03  0.12508528085E+03 0.  0.
          5    1    3    3  502    0  0.47052306031E+02 -0.25973082641E+01  0.75979123153E+02  0.89503994705E+02  0.41800000000E+01 0.  1.
         -5    1    3    3    0  502 -0.71270893387E+02  0.35845294908E+02  0.23484851934E+03  0.24806395314E+03  0.41800000000E+01 0.  1.
        -11    1    1    2    0    0 -0.81538869537E+01 -0.24873238839E+02  0.58362043720E+02  0.63963208409E+02  0.00000000000E+00 0. -1.
         11    1    1    2    0    0  0.32372474310E+02 -0.83747478044E+01  0.89747939896E+01  0.34621675593E+02  0.00000000000E+00 0.  1.
</event>
<event>
 7    1  0.2810263E-009  0.1265361E+03  0.7561462E-02  0.1232688E+00
          1   -1    0    0  501    0  0.00000000000E+00  0.00000000000E+00  0.13460572899E+03  0.13460572899E+03  0.00000000000E+00 0. -1.
         -1   -1    0    0    0  501 -0.00000000000E+00 -0.00000000000E+00 -0.14767371475E+03  0.14767371475E+03  0.00000000000E+00 0.  1.
         25    2    1    2    0    0 -0.83587694214E+02  0.86603539434E+01 -0.40149496238E+02  0.15595609440E+03  0.12509363284E+03 0.  0.
          5    1    3    3  502    0 -0.38983805008E+02  0.63925499111E+02 -0.39615326269E+02  0.84811868066E+02  0.41800000000E+01 0.  1.
         -5    1    3    3    0  502 -0.44603889206E+02 -0.55265145168E+02 -0.53416996873E+00  0.71144226331E+02  0.41800000000E+01 0.  1.
        -11    1    1    2    0    0  0.67417716674E+02  0.23127691552E+02  0.47094122598E+02  0.85427718109E+02  0.00000000000E+00 0. -1.
         11    1    1    2    0    0  0.16169977541E+02 -0.31788045495E+02 -0.20012612117E+02  0.40895631231E+02  0.00000000000E+00 0.  1.
</event>
<event>
 7    1  0.2810263E-009  0.1520905E+03  0.7561462E-02  0.1197928E+00
          2   -1    0    0  501    0  0.00000000000E+00  0.00000000000E+00  0.76347096228E+02  0.76347096228E+02  0.00000000000E+00 0.  1.
         -2   -1    0    0    0  501 -0.00000000000E+00 -0.00000000000E+00 -0.73313517475E+03  0.73313517475E+03  0.00000000000E+00 0. -1.
         25    2    1    2    0    0 -0.24384954740E+02 -0.11860282051E+03 -0.45605667164E+02  0.17996799787E+03  0.12508936137E+03 0.  0.
          5    1    3    3  502    0  0.62807493866E+01  0.19067617987E+02  0.15990250212E+02  0.26003506887E+02  0.41800000000E+01 0.  1.
         -5    1    3    3    0  502 -0.30665704127E+02 -0.13767043849E+03 -0.61595917377E+02  0.15396449098E+03  0.41800000000E+01 0. -1.
        -11    1    1    2    0    0  0.40443252655E+02  0.24887286874E+02 -0.11702891702E+03  0.12629648115E+03  0.00000000000E+00 0.  1.
         11    1    1    2    0    0 -0.16058297915E+02  0.93715533634E+02 -0.49415349434E+03  0.50321779195E+03  0.00000000000E+00 0. -1.
</event>
<event>
 7    1  0.2810263E-009  0.1163251E+03  0.7561462E-02  0.1249286E+00
         -1   -1    0    0    0  501 -0.00000000000E+00  0.00000000000E+00  0.57625511785E+03  0.57625511785E+03  0.00000000000E+00 0.  1.
          1   -1    0    0  501    0  0.00000000000E+00 -0.00000000000E+00 -0.26522311576E+02  0.26522311576E+02  0.00000000000E+00 0. -1.
         25    2    1    2    0    0 -0.47036804311E+02  0.57100775224E+02  0.25710219660E+03  0.29533406503E+03  0.12509081094E+03 0.  0.
          5    1    3    3  502    0 -0.27244567848E+01 -0.35416129504E+02  0.11208737121E+03  0.11765532746E+03  0.41800000000E+01 0.  1.
         -5    1    3    3    0  502 -0.44312347526E+02  0.92516904728E+02  0.14501482539E+03  0.17767873757E+03  0.41800000000E+01 0.  1.
        -11    1    1    2    0    0  0.39546513370E+02 -0.30648290721E+01  0.12875020673E+03  0.13472169695E+03  0.00000000000E+00 0.  1.
         11    1    1    2    0    0  0.74902909407E+01 -0.54035946152E+02  0.16388040294E+03  0.17272166744E+03  0.00000000000E+00 0. -1.
</event>
<event>
 7    1  0.2810263E-009  0.1144011E+03  0.7561462E-02  0.1252630E+00
         -2   -1    0    0    0  501 -0.00000000000E+00  0.00000000000E+00  0.35333727783E+02  0.35333727783E+02  0.00000000000E+00 0.  1.
          2   -1    0    0  501    0  0.00000000000E+00 -0.00000000000E+00 -0.49780387595E+03  0.49780387595E+03  0.00000000000E+00 0. -1.
         25    2    1    2    0    0  0.23056885210E+01  0.76295257396E+02 -0.21391010425E+03  0.25929018040E+03  0.12509029718E+03 0.  0.
          5    1    3    3  502    0  0.32290609193E+02  0.10130872505E+03 -0.14323738331E+03  0.17843923781E+03  0.41800000000E+01 0.  1.
         -5    1    3    3    0  502 -0.29984920672E+02 -0.25013467651E+02 -0.70672720942E+02  0.80850942585E+02  0.41800000000E+01 0.  1.
        -11    1    1    2    0    0  0.14836636264E+02 -0.45700368879E+02 -0.40464427240E+02  0.62817349221E+02  0.00000000000E+00 0.  1.
         11    1    1    2    0    0 -0.17142324785E+02 -0.30594888518E+02 -0.20809561667E+03  0.21103007412E+03  0.00000000000E+00 0. -1.
</event>
<event>
 7    1  0.2924590E-009  0.7107765E+02  0.7561462E-02  0.1356466E+00
         -2   -1    0    0    0  501 -0.00000000000E+00  0.00000000000E+00  0.53381722229E+02  0.53381722229E+02  0.00000000000E+00 0.  1.
          2   -1    0    0  501    0  0.00000000000E+00 -0.00000000000E+00 -0.34201609686E+03  0.34201609686E+03  0.00000000000E+00 0. -1.
         25    2    1    2    0    0  0.28373798207E+02 -0.35635052458E+02 -0.25571399036E+03  0.28828740478E+03  0.12508018829E+03 0.  0.
          5    1    3    3  502    0  0.48354753228E+02 -0.22824570332E+02 -0.25851944825E+03  0.26402446988E+03  0.41800000000E+01 0.  1.
         -5    1    3    3    0  502 -0.19980955021E+02 -0.12810482126E+02  0.28054578965E+01  0.24262934898E+02  0.41800000000E+01 0.  1.
        -11    1    1    2    0    0 -0.19110203102E+00  0.36231500638E+02  0.24091399500E+02  0.43510385982E+02  0.00000000000E+00 0.  1.
         11    1    1    2    0    0 -0.28182696176E+02 -0.59644817937E+00 -0.57011783775E+02  0.63600028328E+02  0.00000000000E+00 0. -1.
</event>
<event>
 7    1  0.2810263E-009  0.9779780E+02  0.7561462E-02  0.1284996E+00
         -4   -1    0    0    0  501 -0.00000000000E+00  0.00000000000E+00  0.38025851832E+03  0.38025851832E+03  0.00000000000E+00 0.  1.
          4   -1    0    0  501    0  0.00000000000E+00 -0.00000000000E+00 -0.49905589540E+02  0.49905589540E+02  0.00000000000E+00 0. -1.
         25    2    1    2    0    0 -0.18670465279E+02 -0.65784855783E+02  0.23852078189E+03  0.27787447214E+03  0.12508327367E+03 0.  0.
          5    1    3    3  502    0 -0.46185014833E+02 -0.24559611462E+02  0.21772992017E+03  0.22396432896E+03  0.41800000000E+01 0. -1.
         -5    1    3    3    0  502  0.27514549554E+02 -0.41225244321E+02  0.20790861716E+02  0.53910143177E+02  0.41800000000E+01 0. -1.
        -11    1    1    2    0    0  0.23356526512E+02 -0.37775619575E+01  0.77606560270E+02  0.81133072801E+02  0.00000000000E+00 0.  1.
         11    1    1    2    0    0 -0.46860612331E+01  0.69562417740E+02  0.14225586623E+02  0.71156562919E+02  0.00000000000E+00 0. -1.
</event>
<event>
 7    1  0.2810263E-009  0.2113783E+03  0.7561462E-02  0.1140479E+00
         -2   -1    0    0    0  501 -0.00000000000E+00  0.00000000000E+00  0.74615399555E+03  0.74615399555E+03  0.00000000000E+00 0.  1.
          2   -1    0    0  501    0  0.00000000000E+00 -0.00000000000E+00 -0.64332641507E+02  0.64332641507E+02  0.00000000000E+00 0. -1.
         25    2    1    2    0    0 -0.10382052645E+03 -0.15424564333E+03  0.28020925357E+03  0.35879806149E+03  0.12509357674E+03 0.  0.
          5    1    3    3  502    0 -0.97849683135E+02 -0.17517512366E+03  0.26249060362E+03  0.33042347651E+03  0.41800000000E+01 0.  1.
         -5    1    3    3    0  502 -0.59708433110E+01  0.20929480327E+02  0.17718649950E+02  0.28374584978E+02  0.41800000000E+01 0.  1.
        -11    1    1    2    0    0  0.89622881476E+02  0.68017771915E+02  0.28148540679E+03  0.30313810783E+03  0.00000000000E+00 0.  1.
         11    1    1    2    0    0  0.14197644970E+02  0.86227871419E+02  0.12012669368E+03  0.14855046774E+03  0.00000000000E+00 0. -1.
</event>
<event>
 7    1  0.2810263E-009  0.8702981E+02  0.7561462E-02  0.1310208E+00
          4   -1    0    0  501    0  0.00000000000E+00  0.00000000000E+00  0.13546501213E+03  0.13546501213E+03  0.00000000000E+00 0.  1.
         -4   -1    0    0    0  501 -0.00000000000E+00 -0.00000000000E+00 -0.18446579093E+03  0.18446579093E+03  0.00000000000E+00 0. -1.
         25    2    1    2    0    0  0.73522562384E+02  0.20525310301E+02  0.59268771870E+02  0.15807274915E+03  0.12508937270E+03 0.  0.
          5    1    3    3  502    0  0.14984198774E+02  0.28841369149E+02  0.86754019482E+02  0.92736632910E+02  0.41800000000E+01 0.  1.
         -5    1    3    3    0  502  0.58538363610E+02 -0.83160588480E+01 -0.27485247612E+02  0.65336116238E+02  0.41800000000E+01 0.  1.
        -11    1    1    2    0    0 -0.39573221317E+02  0.45174588985E+01 -0.11261231063E+03  0.11944864915E+03  0.00000000000E+00 0. -1.
         11    1    1    2    0    0 -0.33949341067E+02 -0.25042769199E+02  0.43427599584E+01  0.42409404760E+02  0.00000000000E+00 0.  1.
</event>
<event>
 7    1  0.2810263E-009  0.1055005E+03  0.7561462E-02  0.1269137E+00
         -2   -1    0    0    0  501 -0.00000000000E+00  0.00000000000E+00  0.20717543878E+02  0.20717543878E+02  0.00000000000E+00 0.  1.
          2   -1    0    0  501    0  0.00000000000E+00 -0.00000000000E+00 -0.10265626834E+04  0.10265626834E+04  0.00000000000E+00 0. -1.
         25    2    1    2    0    0 -0.80789827597E+02  0.15879022390E+02 -0.73101921822E+03  0.74620129483E+03  0.12509250740E+03 0.  0.
          5    1    3    3  502    0 -0.51448974337E+02 -0.28240186745E+02 -0.62342629321E+03  0.62619671077E+03  0.41800000000E+01 0. -1.
         -5    1    3    3    0  502 -0.29340853260E+02  0.44119209135E+02 -0.10759292501E+03  0.12000458407E+03  0.41800000000E+01 0. -1.
        -11    1    1    2    0    0  0.15080473680E+02  0.19288934912E+02 -0.10844355531E+02  0.26778419358E+02  0.00000000000E+00 0.  1.
         11    1    1    2    0    0  0.65709353917E+02 -0.35167957302E+02 -0.26398156577E+03  0.27430051309E+03  0.00000000000E+00 0. -1.
</event>
<event>
 7    1  0.2810263E-009  0.1160147E+03  0.7561462E-02  0.1249820E+00
         -2   -1    0    0    0  501 -0.00000000000E+00  0.00000000000E+00  0.29237036820E+02  0.29237036820E+02  0.00000000000E+00 0.  1.
          2   -1    0    0  501    0  0.00000000000E+00 -0.00000000000E+00 -0.52659723029E+03  0.52659723029E+03  0.00000000000E+00 0. -1.
         25    2    1    2    0    0 -0.34996408242E+02 -0.17121936971E+02 -0.20379268928E+03  0.24227333013E+03  0.12508795694E+03 0.  0.
          5    1    3    3  502    0 -0.75936684795E+02 -0.30539822090E+02 -0.96660977594E+02  0.12672757324E+03  0.41800000000E+01 0.  1.
         -5    1    3    3    0  502  0.40940276554E+02  0.13417885118E+02 -0.10713171169E+03  0.11554575689E+03  0.41800000000E+01 0.  1.
        -11    1    1    2    0    0  0.68787261080E+02  0.22919475381E+02 -0.15996723629E+03  0.17563173496E+03  0.00000000000E+00 0. -1.
         11    1    1    2    0    0 -0.33790852838E+02 -0.57975384095E+01 -0.13360026790E+03  0.13792920202E+03  0.00000000000E+00 0.  1.
</event>
<event>
 7    1  0.2810263E-009  0.1093811E+03  0.7561462E-02  0.1261720E+00
         -1   -1    0    0    0  501 -0.00000000000E+00  0.00000000000E+00  0.93352469182E+02  0.93352469182E+02  0.00000000000E+00 0.  1.
          1   -1    0    0  501    0  0.00000000000E+00 -0.00000000000E+00 -0.15954097336E+03  0.15954097336E+03  0.00000000000E+00 0. -1.
         25    2    1    2    0    0  0.25036604180E+02  0.20270511368E+02 -0.80213289082E+02  0.15205118936E+03  0.12509063618E+03 0.  0.
          5    1    3    3  502    0  0.64851832805E+02 -0.22915497130E+02 -0.32150897282E+02  0.76039679267E+02  0.41800000000E+01 0. -1.
         -5    1    3    3    0  502 -0.39815228625E+02  0.43186008497E+02 -0.48062391800E+02  0.76011510089E+02  0.41800000000E+01 0. -1.
        -11    1    1    2    0    0  0.20730841603E+02 -0.36855934002E+02  0.27363994385E+02  0.50367805724E+02  0.00000000000E+00 0.  1.
         11    1    1    2    0    0 -0.45767445783E+02  0.16585422634E+02 -0.13339209483E+02  0.50474447467E+02  0.00000000000E+00 0. -1.
</event>
<event>
 7    1  0.2810263E-009  0.9387687E+02  0.7561462E-02  0.1293726E+00
         -1   -1    0    0    0  501 -0.00000000000E+00  0.00000000000E+00  0.17978170407E+02  0.17978170407E+02  0.00000000000E+00 0.  1.
          1   -1    0    0  501    0  0.00000000000E+00 -0.00000000000E+00 -0.83159282898E+03  0.83159282898E+03  0.00000000000E+00 0. -1.
         25    2    1    2    0    0  0.44280917358E+02 -0.51888035958E+01 -0.56722178100E+03  0.58255919104E+03  0.12508772479E+03 0.  0.
          5    1    3    3  502    0  0.49034129244E+02  0.35944225726E+02 -0.49855122682E+03  0.50226201465E+03  0.41800000000E+01 0. -1.
         -5    1    3    3    0  502 -0.47532118854E+01 -0.41133029322E+02 -0.68670554182E+02  0.80297176389E+02  0.41800000000E+01 0. -1.
        -11    1    1    2    0    0 -0.45178206196E+02  0.33892340702E+02 -0.22279629129E+03  0.22984331290E+03  0.00000000000E+00 0. -1.
         11    1    1    2    0    0  0.89728883801E+00 -0.28703537106E+02 -0.23596586277E+02  0.37168495445E+02  0.00000000000E+00 0.  1.
</event>
<event>
 7    1  0.2810263E-009  0.1464609E+03  0.7561462E-02  0.1204890E+00
         -1   -1    0    0    0  501 -0.00000000000E+00  0.00000000000E+00  0.39560211672E+03  0.39560211672E+03  0.00000000000E+00 0.  1.
          1   -1    0    0  501    0  0.00000000000E+00 -0.00000000000E+00 -0.79722351231E+02  0.79722351231E+02  0.00000000000E+00 0. -1.
         25    2    1    2    0    0 -0.98265005345E+02  0.53862182543E+02  0.27830657935E+03  0.32505150242E+03  0.12508709419E+03 0.  0.
          5    1    3    3  502    0  0.29421252113E+02  0.62857020976E+01  0.36715511367E+02  0.47651036733E+02  0.41800000000E+01 0. -1.
         -5    1    3    3    0  502 -0.12768625746E+03  0.47576480445E+02  0.24159106798E+03  0.27740046569E+03  0.41800000000E+01 0. -1.
        -11    1    1    2    0    0  0.51059228547E+02 -0.59812721959E+02  0.58779531074E+02  0.98181667338E+02  0.00000000000E+00 0.  1.
         11    1    1    2    0    0  0.47205776798E+02  0.59505394160E+01 -0.21206344931E+02  0.52091298196E+02  0.00000000000E+00 0. -1.
</event>
<event>
 7    1  0.2810263E-009  0.1444301E+03  0.7561462E-02  0.1207489E+00
         -2   -1    0    0    0  501 -0.00000000000E+00  0.00000000000E+00  0.64835098610E+02  0.64835098610E+02  0.00000000000E+00 0.  1.
          2   -1    0    0  501    0  0.00000000000E+00 -0.00000000000E+00 -0.62411436941E+03  0.62411436941E+03  0.00000000000E+00 0. -1.
         25    2    1    2    0    0 -0.30566674840E+02 -0.92121807395E+02 -0.53267412820E+03  0.55570440547E+03  0.12507961622E+03 0.  0.
          5    1    3    3  502    0 -0.54736659185E+02  0.77770535649E+01 -0.18343312852E+03  0.19162925001E+03  0.41800000000E+01 0.  1.
         -5    1    3    3    0  502  0.24169984345E+02 -0.99898860960E+02 -0.34924099968E+03  0.36407515546E+03  0.41800000000E+01 0.  1.
        -11    1    1    2    0    0 -0.77608630651E+01 -0.14939347963E+02 -0.28266417467E+01  0.17070589229E+02  0.00000000000E+00 0.  1.
         11    1    1    2    0    0  0.38327537905E+02  0.10706115536E+03 -0.23778500851E+02  0.11617447332E+03  0.00000000000E+00 0. -1.
</event>
<event>
 7    1  0.2810263E-009  0.1677897E+03  0.7561462E-02  0.1180173E+00
          1   -1    0    0  501    0  0.00000000000E+00  0.00000000000E+00  0.73973572752E+03  0.73973572752E+03  0.00000000000E+00 0. -1.
         -1   -1    0    0    0  501 -0.00000000000E+00 -0.00000000000E+00 -0.59333511216E+02  0.59333511216E+02  0.00000000000E+00 0.  1.
         25    2    1    2    0    0  0.14908750321E+03  0.25737766371E+02  0.53768609344E+03  0.57240228591E+03  0.12509406702E+03 0.  0.
          5    1    3    3  502    0  0.91357464557E+02  0.53655980883E+02  0.17934068563E+03  0.20834035744E+03  0.41800000000E+01 0.  1.
         -5    1    3    3    0  502  0.57730038657E+02 -0.27918214513E+02  0.35834540781E+03  0.36406192848E+03  0.41800000000E+01 0.  1.
        -11    1    1    2    0    0 -0.12121778479E+03  0.80526570162E+01  0.13599287900E+03  0.18235311835E+03  0.00000000000E+00 0. -1.
         11    1    1    2    0    0 -0.27869718427E+02 -0.33790423387E+02  0.67232438634E+01  0.44313834475E+02  0.00000000000E+00 0.  1.
</event>
<event>
 7    1  0.2810263E-009  0.9174970E+02  0.7561462E-02  0.1298669E+00
          2   -1    0    0  501    0  0.00000000000E+00  0.00000000000E+00  0.22951454446E+03  0.22951454446E+03  0.00000000000E+00 0. -1.
         -2   -1    0    0    0  501 -0.00000000000E+00 -0.00000000000E+00 -0.69100725999E+02  0.69100725999E+02  0.00000000000E+00 0.  1.
         25    2    1    2    0    0  0.12053180455E+02  0.19949622372E+02  0.15988861715E+03  0.20433009880E+03  0.12507259008E+03 0.  0.
          5    1    3    3  502    0  0.65322690156E+02  0.29773019246E+02  0.78321583980E+02  0.10632605251E+03  0.41800000000E+01 0.  1.
         -5    1    3    3    0  502 -0.53269509701E+02 -0.98233968740E+01  0.81567033171E+02  0.98004046296E+02  0.41800000000E+01 0.  1.
        -11    1    1    2    0    0  0.19975629587E+02 -0.14708293717E+02 -0.37079333134E+02  0.44612068178E+02  0.00000000000E+00 0.  1.
         11    1    1    2    0    0 -0.32028810042E+02 -0.52413286553E+01  0.37604534447E+02  0.49673103484E+02  0.00000000000E+00 0. -1.
</event>
<event>
 7    1  0.2810263E-009  0.9046744E+02  0.7561462E-02  0.1301724E+00
         -1   -1    0    0    0  501 -0.00000000000E+00  0.00000000000E+00  0.13995979882E+02  0.13995979882E+02  0.00000000000E+00 0.  1.
          1   -1    0    0  501    0  0.00000000000E+00 -0.00000000000E+00 -0.87311272081E+03  0.87311272081E+03  0.00000000000E+00 0. -1.
         25    2    1    2    0    0  0.45530823703E+01 -0.20627985966E+02 -0.48832771774E+03  0.50453735884E+03  0.12509093569E+03 0.  0.
          5    1    3    3  502    0 -0.13758306590E+02 -0.51389526544E+02 -0.90359675802E+02  0.10494054436E+03  0.41800000000E+01 0.  1.
         -5    1    3    3    0  502  0.18311388960E+02  0.30761540579E+02 -0.39796804194E+03  0.39959681449E+03  0.41800000000E+01 0.  1.
        -11    1    1    2    0    0  0.66916068198E+01 -0.34562759929E+02 -0.10083074669E+03  0.10679981954E+03  0.00000000000E+00 0.  1.
         11    1    1    2    0    0 -0.11244689190E+02  0.55190745895E+02 -0.26995827650E+03  0.27577152231E+03  0.00000000000E+00 0. -1.
</event>
<event>
 7    1  0.2810263E-009  0.1419376E+03  0.7561462E-02  0.1210745E+00
          1   -1    0    0  501    0  0.00000000000E+00  0.00000000000E+00  0.11040941359E+03  0.11040941359E+03  0.00000000000E+00 0. -1.
         -1   -1    0    0    0  501 -0.00000000000E+00 -0.00000000000E+00 -0.22811848979E+03  0.22811848979E+03  0.00000000000E+00 0.  1.
         25    2    1    2    0    0  0.88540448842E+02 -0.61967400551E+02 -0.21013771126E+02  0.16664716074E+03  0.12510127015E+03 0.  0.
          5    1    3    3  502    0  0.40937679089E+02  0.22346478900E+02 -0.46962914350E+02  0.66319276328E+02  0.41800000000E+01 0. -1.
         -5    1    3    3    0  502  0.47602769753E+02 -0.84313879451E+02  0.25949143224E+02  0.10032788441E+03  0.41800000000E+01 0. -1.
        -11    1    1    2    0    0 -0.47129423938E+02 -0.17703019440E+02 -0.21421547860E+02  0.54712541622E+02  0.00000000000E+00 0.  1.
         11    1    1    2    0    0 -0.41411024904E+02  0.79670419991E+02 -0.75273757209E+02  0.11716820102E+03  0.00000000000E+00 0. -1.
</event>
<event>
 7    1  0.2810263E-009  0.1550681E+03  0.7561462E-02  0.1194380E+00
          2   -1    0    0  501    0  0.00000000000E+00  0.00000000000E+00  0.18009365519E+04  0.18009365519E+04  0.00000000000E+00 0.  1.
         -2   -1    0    0    0  501 -0.00000000000E+00 -0.00000000000E+00 -0.15612971855E+02  0.15612971855E+02  0.00000000000E+00 0. -1.
         25    2    1    2    0    0  0.12015718130E+03 -0.82707723725E+00  0.11835234593E+04  0.11961661855E+04  0.12508929752E+03 0.  0.
          5    1    3    3  502    0 -0.16726589537E+02  0.13454844439E+02  0.53684370785E+02  0.57968057610E+02  0.41800000000E+01 0.  1.
         -5    1    3    3    0  502  0.13688377084E+03 -0.14281921677E+02  0.11298390885E+04  0.11381981279E+04  0.41800000000E+01 0.  1.
        -11    1    1    2    0    0  0.37526252072E+01  0.24193225489E+02  0.88714738046E+02  0.92030968169E+02  0.00000000000E+00 0. -1.
         11    1    1    2    0    0 -0.12390980651E+03 -0.23366148252E+02  0.51308538271E+03  0.52835237009E+03  0.00000000000E+00 0.  1.
</event>
<event>
 7    1  0.2810263E-009  0.7637946E+02  0.7561462E-02  0.1339652E+00
         -2   -1    0    0    0  501 -0.00000000000E+00  0.00000000000E+00  0.37309745446E+02  0.37309745446E+02  0.00000000000E+00 0.  1.
          2   -1    0    0  501    0  0.00000000000E+00 -0.00000000000E+00 -0.39185280853E+03  0.39185280853E+03  0.00000000000E+00 0. -1.
         25    2    1    2    0    0  0.11173274607E+02 -0.50925820139E+02 -0.22121891231E+03  0.25942936470E+03  0.12508999513E+03 0.  0.
          5    1    3    3  502    0 -0.67590573861E+01 -0.59413060481E+02 -0.29802538577E+02  0.66942216262E+02  0.41800000000E+01 0. -1.
         -5    1    3    3    0  502  0.17932331993E+02  0.84872403418E+01 -0.19141637373E+03  0.19248714843E+03  0.41800000000E+01 0. -1.
        -11    1    1    2    0    0 -0.18740637094E+02 -0.22093413340E+01 -0.10932317657E+03  0.11093984678E+03  0.00000000000E+00 0. -1.
         11    1    1    2    0    0  0.75673624873E+01  0.53135161473E+02 -0.24000974205E+02  0.58793342502E+02  0.00000000000E+00 0.  1.
</event>
<event>
 7    1  0.3493324E-009  0.1259639E+03  0.7561462E-02  0.1233571E+00
          2   -1    0    0  501    0  0.00000000000E+00  0.00000000000E+00  0.83199961013E+03  0.83199961013E+03  0.00000000000E+00 0. -1.
         -2   -1    0    0    0  501 -0.00000000000E+00 -0.00000000000E+00 -0.24063292579E+02  0.24063292579E+02  0.00000000000E+00 0.  1.
         25    2    1    2    0    0 -0.46935494007E+02  0.76630624744E+02  0.48469739365E+03  0.50857961031E+03  0.12508582401E+03 0.  0.
          5    1    3    3  502    0 -0.72828095187E+02  0.13877107059E+02  0.15409248225E+03  0.17105107727E+03  0.41800000000E+01 0.  1.
         -5    1    3    3    0  502  0.25892601180E+02  0.62753517686E+02  0.33060491139E+03  0.33752853304E+03  0.41800000000E+01 0.  1.
        -11    1    1    2    0    0  0.55905698429E+02 -0.32586912949E+02  0.95548558287E+02  0.11539879117E+03  0.00000000000E+00 0.  1.
         11    1    1    2    0    0 -0.89702044218E+01 -0.44043711795E+02  0.22769036562E+03  0.23208450123E+03  0.00000000000E+00 0. -1.
</event>
<event>
 7    1  0.3126044E-009  0.1748348E+03  0.7561462E-02  0.1172898E+00
         -2   -1    0    0    0  501 -0.00000000000E+00  0.00000000000E+00  0.11105177813E+03  0.11105177813E+03  0.00000000000E+00 0. -1.
          2   -1    0    0  501    0  0.00000000000E+00 -0.00000000000E+00 -0.36114112712E+03  0.36114112712E+03  0.00000000000E+00 0.  1.
         25    2    1    2    0    0 -0.15009671062E+03  0.51698814836E+01 -0.42026518774E+02  0.19992407971E+03  0.12509060378E+03 0.  0.
          5    1    3    3  502    0 -0.17230253867E+03  0.61920689035E+01 -0.41058418468E+02  0.17728444003E+03  0.41800000000E+01 0.  1.
         -5    1    3    3    0  502  0.22205828052E+02 -0.10221874199E+01 -0.96810030612E+00  0.22639639679E+02  0.41800000000E+01 0.  1.
        -11    1    1    2    0    0  0.88369471500E+02  0.15028746441E+02 -0.18085863877E+03  0.20185359529E+03  0.00000000000E+00 0.  1.
         11    1    1    2    0    0  0.61727239122E+02 -0.20198627925E+02 -0.27204191447E+02  0.70415230255E+02  0.00000000000E+00 0. -1.
</event>
<event>
 7    1  0.2810263E-009  0.1476151E+03  0.7561462E-02  0.1203435E+00
         -2   -1    0    0    0  501 -0.00000000000E+00  0.00000000000E+00  0.17365763643E+02  0.17365763643E+02  0.00000000000E+00 0.  1.
          2   -1    0    0  501    0  0.00000000000E+00 -0.00000000000E+00 -0.12840223390E+04  0.12840223390E+04  0.00000000000E+00 0. -1.
         25    2    1    2    0    0  0.87274217705E+02  0.54294669359E+02 -0.70219726365E+03  0.72061990713E+03  0.12508938120E+03 0.  0.
          5    1    3    3  502    0 -0.20480978270E+02  0.49700894748E+02 -0.24240174217E+03  0.24832584726E+03  0.41800000000E+01 0.  1.
         -5    1    3    3    0  502  0.10775519598E+03  0.45937746105E+01 -0.45979552147E+03  0.47229405987E+03  0.41800000000E+01 0.  1.
        -11    1    1    2    0    0 -0.72534491202E+02  0.45874091806E+01 -0.36943503722E+03  0.37651632563E+03  0.00000000000E+00 0. -1.
         11    1    1    2    0    0 -0.14739726503E+02 -0.58882078539E+02 -0.19502427454E+03  0.20425186993E+03  0.00000000000E+00 0.  1.
</event>
<event>
 7    1  0.2810263E-009  0.1105660E+03  0.7561462E-02  0.1259525E+00
          2   -1    0    0  501    0  0.00000000000E+00  0.00000000000E+00  0.28171875591E+03  0.28171875591E+03  0.00000000000E+00 0.  1.
         -2   -1    0    0    0  501 -0.00000000000E+00 -0.00000000000E+00 -0.58106885198E+02  0.58106885198E+02  0.00000000000E+00 0. -1.
         25    2    1    2    0    0  0.25855809364E+02 -0.24026401390E+01  0.41007926293E+02  0.13417639915E+03  0.12508941007E+03 0.  0.
          5    1    3    3  502    0  0.75505255819E+02 -0.12023912486E+02  0.19186848146E+02  0.78938112909E+02  0.41800000000E+01 0.  1.
         -5    1    3    3    0  502 -0.49649446455E+02  0.96212723473E+01  0.21821078147E+02  0.55238286237E+02  0.41800000000E+01 0.  1.
        -11    1    1    2    0    0 -0.33018972195E+01 -0.42996416296E+02  0.70961887327E+02  0.83037243406E+02  0.00000000000E+00 0.  1.
         11    1    1    2    0    0 -0.22553912145E+02  0.45399056435E+02  0.11164205709E+03  0.12261199856E+03  0.00000000000E+00 0. -1.
</event>
<event>
 7    1  0.2810263E-009  0.1023342E+03  0.7561462E-02  0.1275463E+00
         -1   -1    0    0    0  501 -0.00000000000E+00  0.00000000000E+00  0.92261376137E+02  0.92261376137E+02  0.00000000000E+00 0.  1.
          1   -1    0    0  501    0  0.00000000000E+00 -0.00000000000E+00 -0.16241520372E+03  0.16241520372E+03  0.00000000000E+00 0. -1.
         25    2    1    2    0    0 -0.28710610263E+02 -0.42300727367E+02 -0.12927238511E+02  0.13575394885E+03  0.12509344689E+03 0.  0.
          5    1    3    3  502    0 -0.66668865944E+02 -0.79306955531E+01 -0.39399568005E+02  0.77957885920E+02  0.41800000000E+01 0. -1.
         -5    1    3    3    0  502  0.37958255680E+02 -0.34370031814E+02  0.26472329495E+02  0.57796062929E+02  0.41800000000E+01 0. -1.
        -11    1    1    2    0    0 -0.97472767330E+01  0.46338995910E+02 -0.64052240569E+02  0.79655517496E+02  0.00000000000E+00 0. -1.
         11    1    1    2    0    0  0.38457886996E+02 -0.40382685428E+01  0.68256514989E+01  0.39267113510E+02  0.00000000000E+00 0.  1.
</event>
<event>
 7    1  0.2810263E-009  0.1198744E+03  0.7561462E-02  0.1243304E+00
          1   -1    0    0  501    0  0.00000000000E+00  0.00000000000E+00  0.24234915759E+03  0.24234915759E+03  0.00000000000E+00 0. -1.
         -1   -1    0    0    0  501 -0.00000000000E+00 -0.00000000000E+00 -0.95538935632E+02  0.95538935632E+02  0.00000000000E+00 0.  1.
         25    2    1    2    0    0  0.10178513753E+00  0.90509294175E+02  0.13987319471E+03  0.20833832655E+03  0.12509358505E+03 0.  0.
          5    1    3    3  502    0 -0.56886226816E+02  0.48189317352E+02  0.37139243240E+02  0.83396935775E+02  0.41800000000E+01 0.  1.
         -5    1    3    3    0  502  0.56988011954E+02  0.42319976823E+02  0.10273395147E+03  0.12494139077E+03  0.41800000000E+01 0.  1.
        -11    1    1    2    0    0 -0.92789542083E+01 -0.77487919681E+02 -0.34371985140E+02  0.85275495016E+02  0.00000000000E+00 0.  1.
         11    1    1    2    0    0  0.91771690707E+01 -0.13021374494E+02  0.41309012391E+02  0.44274271655E+02  0.00000000000E+00 0. -1.
</event>
<event>
 7    1  0.2810263E-009  0.2100900E+03  0.7561462E-02  0.1141495E+00
         -3   -1    0    0    0  501 -0.00000000000E+00  0.00000000000E+00  0.24172761199E+04  0.24172761199E+04  0.00000000000E+00 0.  1.
          3   -1    0    0  501    0  0.00000000000E+00 -0.00000000000E+00 -0.19014474771E+02  0.19014474771E+02  0.00000000000E+00 0. -1.
         25    2    1    2    0    0 -0.98348958284E+02 -0.15210193748E+03  0.14691465349E+04  0.14855452302E+04  0.12508226556E+03 0.  0.
          5    1    3    3  502    0 -0.93898719927E+02 -0.32435087994E+02  0.73238175830E+03  0.73910047817E+03  0.41800000000E+01 0.  1.
         -5    1    3    3    0  502 -0.44502383572E+01 -0.11966684949E+03  0.73676477659E+03  0.74644475208E+03  0.41800000000E+01 0.  1.
        -11    1    1    2    0    0  0.48216019065E+02  0.14176390955E+03  0.65574807273E+03  0.67262718160E+03  0.00000000000E+00 0. -1.
         11    1    1    2    0    0  0.50132939219E+02  0.10338027931E+02  0.27336703756E+03  0.27811818287E+03  0.00000000000E+00 0.  1.
</event>
<event>
 7    1  0.2810263E-009  0.1044739E+03  0.7561462E-02  0.1271160E+00
         -2   -1    0    0    0  501 -0.00000000000E+00  0.00000000000E+00  0.45491707998E+02  0.45491707998E+02  0.00000000000E+00 0.  1.
          2   -1    0    0  501    0  0.00000000000E+00 -0.00000000000E+00 -0.36637737763E+03  0.36637737763E+03  0.00000000000E+00 0. -1.
         25    2    1    2    0    0  0.63130969736E+02 -0.22682102695E+02 -0.20555023353E+03  0.24979580786E+03  0.12508816889E+03 0.  0.
          5    1    3    3  502    0 -0.21822315999E+02  0.33285958825E+02 -0.53808939693E+02  0.67059994940E+02  0.41800000000E+01 0. -1.
         -5    1    3    3    0  502  0.84953285734E+02 -0.55968061520E+02 -0.15174129384E+03  0.18273581292E+03  0.41800000000E+01 0. -1.
        -11    1    1    2    0    0 -0.30090505407E+02  0.11821787778E+02  0.85150955714E+01  0.33432021096E+02  0.00000000000E+00 0.  1.
         11    1    1    2    0    0 -0.33040464328E+02  0.10860314917E+02 -0.12385053167E+03  0.12864125667E+03  0.00000000000E+00 0. -1.
</event>
<event>
 7    1  0.2810263E-009  0.9670350E+02  0.7561462E-02  0.1287385E+00
          1   -1    0    0  501    0  0.00000000000E+00  0.00000000000E+00  0.85962298446E+02  0.85962298446E+02  0.00000000000E+00 0. -1.
         -1   -1    0    0    0  501 -0.00000000000E+00 -0.00000000000E+00 -0.15533711880E+03  0.15533711880E+03  0.00000000000E+00 0.  1.
         25    2    1    2    0    0 -0.78274932052E+01 -0.10267658099E+02 -0.76123697647E+02  0.14699982287E+03  0.12508971232E+03 0.  0.
          5    1    3    3  502    0  0.36846462608E+02  0.26688453316E+02  0.63207251558E+01  0.46123305537E+02  0.41800000000E+01 0.  1.
         -5    1    3    3    0  502 -0.44673955814E+02 -0.36956111415E+02 -0.82444422803E+02  0.10087651734E+03  0.41800000000E+01 0.  1.
        -11    1    1    2    0    0  0.42033226778E+02 -0.17501436934E+02 -0.10932836252E+02  0.46825413577E+02  0.00000000000E+00 0. -1.
         11    1    1    2    0    0 -0.34205733573E+02  0.27769095033E+02  0.17681713546E+02  0.47474180795E+02  0.00000000000E+00 0.  1.
</event>
<event>
 7    1  0.2810263E-009  0.1174484E+03  0.7561462E-02  0.1247367E+00
          2   -1    0    0  501    0  0.00000000000E+00  0.00000000000E+00  0.79978214728E+02  0.79978214728E+02  0.00000000000E+00 0. -1.
         -2   -1    0    0    0  501 -0.00000000000E+00 -0.00000000000E+00 -0.19501977887E+03  0.19501977887E+03  0.00000000000E+00 0.  1.
         25    2    1    2    0    0  0.59009443831E+02  0.96608751705E+01 -0.82170895857E+02  0.16116766672E+03  0.12509002238E+03 0.  0.
          5    1    3    3  502    0 -0.35839502937E+02 -0.22321625615E+00 -0.47414053269E+02  0.59582586749E+02  0.41800000000E+01 0. -1.
         -5    1    3    3    0  502  0.94848946768E+02  0.98840914267E+01 -0.34756842588E+02  0.10158507997E+03  0.41800000000E+01 0. -1.
        -11    1    1    2    0    0 -0.30265452272E+02  0.37463054037E+02 -0.33434527058E+02  0.58628880414E+02  0.00000000000E+00 0.  1.
         11    1    1    2    0    0 -0.28743991559E+02 -0.47123929208E+02  0.56385877316E+00  0.55201446461E+02  0.00000000000E+00 0. -1.
</event>
<event>
 7    1  0.2810263E-009  0.1346230E+03  0.7561462E-02  0.1220753E+00
          1   -1    0    0  501    0  0.00000000000E+00  0.00000000000E+00  0.40710844212E+03  0.40710844212E+03  0.00000000000E+00 0. -1.
         -1   -1    0    0    0  501 -0.00000000000E+00 -0.00000000000E+00 -0.69913815157E+02  0.69913815157E+02  0.00000000000E+00 0.  1.
         25    2    1    2    0    0 -0.10511097247E+03 -0.67216346885E+02  0.23782235432E+03  0.29626486385E+03  0.12508814298E+03 0.  0.
          5    1    3    3  502    0 -0.62869815604E+02 -0.39644940336E+02  0.26584921492E+02  0.79047868150E+02  0.41800000000E+01 0.  1.
         -5    1    3    3    0  502 -0.42241156866E+02 -0.27571406549E+02  0.21123743283E+03  0.21721699570E+03  0.41800000000E+01 0.  1.
        -11    1    1    2    0    0  0.55201168704E+00 -0.12620549894E+02 -0.42129922218E+01  0.13316617438E+02  0.00000000000E+00 0.  1.
         11    1    1    2    0    0  0.10455896078E+03  0.79836896779E+02  0.10358526487E+03  0.16744077599E+03  0.00000000000E+00 0. -1.
</event>
<event>
 7    1  0.2810263E-009  0.1053470E+03  0.7561462E-02  0.1269438E+00
         -2   -1    0    0    0  501 -0.00000000000E+00  0.00000000000E+00  0.51573320667E+03  0.51573320667E+03  0.00000000000E+00 0.  1.
          2   -1    0    0  501    0  0.00000000000E+00 -0.00000000000E+00 -0.33755662012E+02  0.33755662012E+02  0.00000000000E+00 0. -1.
         25    2    1    2    0    0  0.60037113186E+02 -0.50892252358E+02  0.25710570665E+03  0.29655414639E+03  0.12508613447E+03 0.  0.
          5    1    3    3  502    0  0.73702491252E+01  0.10777762628E+02 -0.10262871920E+02  0.17125410345E+02  0.41800000000E+01 0.  1.
         -5    1    3    3    0  502  0.52666864060E+02 -0.61670014986E+02  0.26736857857E+03  0.27942873604E+03  0.41800000000E+01 0.  1.
        -11    1    1    2    0    0  0.44287612733E+01  0.51120258545E+02  0.10185693428E+03  0.11405143498E+03  0.00000000000E+00 0. -1.
         11    1    1    2    0    0 -0.64465874459E+02 -0.22800618728E+00  0.12301490372E+03  0.13888328731E+03  0.00000000000E+00 0.  1.
</event>
<event>
 7    1  0.2810263E-009  0.1073127E+03  0.7561462E-02  0.1265629E+00
         -2   -1    0    0    0  501 -0.00000000000E+00  0.00000000000E+00  0.35717837682E+02  0.35717837682E+02  0.00000000000E+00 0.  1.
          2   -1    0    0  501    0  0.00000000000E+00 -0.00000000000E+00 -0.10991042859E+04  0.10991042859E+04  0.00000000000E+00 0. -1.
         25    2    1    2    0    0  0.13390042083E+02 -0.53112121616E+02 -0.10051883633E+04  0.10144220095E+04  0.12509267372E+03 0.  0.
          5    1    3    3  502    0 -0.47221651723E+02 -0.15663767196E+02 -0.66261200943E+03  0.66449032005E+03  0.41800000000E+01 0. -1.
         -5    1    3    3    0  502  0.60611693806E+02 -0.37448354420E+02 -0.34257635385E+03  0.34993168947E+03  0.41800000000E+01 0. -1.
        -11    1    1    2    0    0  0.21272273941E+02  0.54637771060E+02 -0.77069215521E+01  0.59137063715E+02  0.00000000000E+00 0.  1.
         11    1    1    2    0    0 -0.34662316024E+02 -0.15256494443E+01 -0.50491163370E+02  0.61263050339E+02  0.00000000000E+00 0. -1.
</event>
<event>
 7    1  0.2810263E-009  0.1199492E+03  0.7561462E-02  0.1243181E+00
         -2   -1    0    0    0  501 -0.00000000000E+00  0.00000000000E+00  0.84870728762E+02  0.84870728762E+02  0.00000000000E+00 0.  1.
          2   -1    0    0  501    0  0.00000000000E+00 -0.00000000000E+00 -0.18428930680E+03  0.18428930680E+03  0.00000000000E+00 0. -1.
         25    2    1    2    0    0 -0.24434517720E+02  0.55084991904E+02 -0.33102699854E+02  0.14274203208E+03  0.12509235386E+03 0.  0.
          5    1    3    3  502    0  0.13799485249E+02 -0.33127532891E+02  0.97160272800E+01  0.37413003283E+02  0.41800000000E+01 0. -1.
         -5    1    3    3    0  502 -0.38234002970E+02  0.88212524795E+02 -0.42818727134E+02  0.10532902880E+03  0.41800000000E+01 0. -1.
        -11    1    1    2    0    0  0.17704326502E+02 -0.79893212979E+02 -0.48212402331E+02  0.94977915304E+02  0.00000000000E+00 0.  1.
         11    1    1    2    0    0  0.67301912179E+01  0.24808221075E+02 -0.18103475853E+02  0.31440088179E+02  0.00000000000E+00 0. -1.
</event>
<event>
 7    1  0.2810263E-009  0.1031772E+03  0.7561462E-02  0.1273753E+00
         -2   -1    0    0    0  501 -0.00000000000E+00  0.00000000000E+00  0.12839515218E+02  0.12839515218E+02  0.00000000000E+00 0.  1.
          2   -1    0    0  501    0  0.00000000000E+00 -0.00000000000E+00 -0.96496645014E+03  0.96496645014E+03  0.00000000000E+00 0. -1.
         25    2    1    2    0    0  0.39570556697E+01 -0.19867419126E+02 -0.58747665184E+03  0.60098784974E+03  0.12508879425E+03 0.  0.
          5    1    3    3  502    0 -0.52971821246E+02 -0.12173064643E+02 -0.42743184607E+03  0.43089401572E+03  0.41800000000E+01 0.  1.
         -5    1    3    3    0  502  0.56928876916E+02 -0.76943544822E+01 -0.16004480577E+03  0.17009383402E+03  0.41800000000E+01 0.  1.
        -11    1    1    2    0    0 -0.11937539655E+02 -0.35938580316E+02 -0.12403717217E+03  0.12968926897E+03  0.00000000000E+00 0.  1.
         11    1    1    2    0    0  0.79804839851E+01  0.55805999442E+02 -0.24061311092E+03  0.24712884664E+03  0.00000000000E+00 0. -1.
</event>
<event>
 7    1  0.2810263E-009  0.2085776E+03  0.7561462E-02  0.1142697E+00
         -1   -1    0    0    0  501 -0.00000000000E+00  0.00000000000E+00  0.34896096858E+03  0.34896096858E+03  0.00000000000E+00 0.  1.
          1   -1    0    0  501    0  0.00000000000E+00 -0.00000000000E+00 -0.23378839439E+03  0.23378839439E+03  0.00000000000E+00 0. -1.
         25    2    1    2    0    0  0.13295092036E+03  0.15510881473E+03 -0.11744972018E+03  0.26678882239E+03  0.12508855802E+03 0.  0.
          5    1    3    3  502    0  0.14276437237E+02  0.48336193584E+02 -0.92135578741E+02  0.10510300443E+03  0.41800000000E+01 0.  1.
         -5    1    3    3    0  502  0.11867448313E+03  0.10677262115E+03 -0.25314141441E+02  0.16168581796E+03  0.41800000000E+01 0.  1.
        -11    1    1    2    0    0 -0.92096378013E+02 -0.82836326154E+02  0.98658327000E+02  0.15835739724E+03  0.00000000000E+00 0. -1.
         11    1    1    2    0    0 -0.40854542349E+02 -0.72272488578E+02  0.13396396737E+03  0.15760314334E+03  0.00000000000E+00 0.  1.
</event>
<event>
 7    1  0.2810263E-009  0.9230655E+02  0.7561462E-02  0.1297360E+00
          2   -1    0    0  501    0  0.00000000000E+00  0.00000000000E+00  0.89006491542E+03  0.89006491542E+03  0.00000000000E+00 0. -1.
         -2   -1    0    0    0  501 -0.00000000000E+00 -0.00000000000E+00 -0.14434918305E+02  0.14434918305E+02  0.00000000000E+00 0.  1.
         25    2    1    2    0    0 -0.16263317649E+02 -0.28420768567E+02  0.51235505203E+03  0.52842000298E+03  0.12509102534E+03 0.  0.
          5    1    3    3  502    0 -0.99864597041E+01  0.29399852857E+02  0.32895108648E+02  0.45427318856E+02  0.41800000000E+01 0.  1.
         -5    1    3    3    0  502 -0.62768579444E+01 -0.57820621424E+02  0.47945994338E+03  0.48299268412E+03  0.41800000000E+01 0.  1.
        -11    1    1    2    0    0  0.41082851636E+02  0.48130160437E+02  0.20052433908E+03  0.21027202288E+03  0.00000000000E+00 0.  1.
         11    1    1    2    0    0 -0.24819533987E+02 -0.19709391870E+02  0.16275060600E+03  0.16580780787E+03  0.00000000000E+00 0. -1.
</event>
<event>
 7    1  0.2810263E-009  0.1829585E+03  0.7561462E-02  0.1164970E+00
          2   -1    0    0  501    0  0.00000000000E+00  0.00000000000E+00  0.59657688110E+02  0.59657688110E+02  0.00000000000E+00 0. -1.
         -2   -1    0    0    0  501 -0.00000000000E+00 -0.00000000000E+00 -0.74564518883E+03  0.74564518883E+03  0.00000000000E+00 0.  1.
         25    2    1    2    0    0  0.25469354971E+02 -0.16526011199E+03 -0.48927804705E+03  0.53197747659E+03  0.12508971027E+03 0.  0.
          5    1    3    3  502    0 -0.41103892659E+02 -0.70113647370E+02 -0.29093683239E+03  0.30210456200E+03  0.41800000000E+01 0.  1.
         -5    1    3    3    0  502  0.66573247631E+02 -0.95146464621E+02 -0.19834121466E+03  0.22987291459E+03  0.41800000000E+01 0.  1.
        -11    1    1    2    0    0 -0.20370375179E+02  0.69078001835E+02 -0.14975536807E+03  0.16617277992E+03  0.00000000000E+00 0.  1.
         11    1    1    2    0    0 -0.50989797919E+01  0.96182110156E+02 -0.46954085600E+02  0.10715262042E+03  0.00000000000E+00 0. -1.
</event>
<event>
 7    1  0.2810263E-009  0.9749293E+02  0.7561462E-02  0.1285658E+00
         -1   -1    0    0    0  501 -0.00000000000E+00  0.00000000000E+00  0.16758861037E+03  0.16758861037E+03  0.00000000000E+00 0.  1.
          1   -1    0    0  501    0  0.00000000000E+00 -0.00000000000E+00 -0.75597373837E+02  0.75597373837E+02  0.00000000000E+00 0. -1.
         25    2    1    2    0    0 -0.11052846810E+02  0.26486949206E+02  0.47822273429E+02  0.13696180834E+03  0.12509133946E+03 0.  0.
          5    1    3    3  502    0 -0.13497069340E+02 -0.49630912401E+02  0.13604836441E+02  0.53366303236E+02  0.41800000000E+01 0. -1.
         -5    1    3    3    0  502  0.24442225301E+01  0.76117861606E+02  0.34217436988E+02  0.83595505103E+02  0.41800000000E+01 0. -1.
        -11    1    1    2    0    0  0.32838531825E+02 -0.29543168184E-01  0.60056517225E+02  0.68448194326E+02  0.00000000000E+00 0.  1.
         11    1    1    2    0    0 -0.21785685015E+02 -0.26457406037E+02 -0.15887554119E+02  0.37775981545E+02  0.00000000000E+00 0. -1.
</event>
<event>
 7    1  0.2810263E-009  0.1134130E+03  0.7561462E-02  0.1254377E+00
         -2   -1    0    0    0  501 -0.00000000000E+00  0.00000000000E+00  0.33124254474E+03  0.33124254474E+03  0.00000000000E+00 0.  1.
          2   -1    0    0  501    0  0.00000000000E+00 -0.00000000000E+00 -0.56154809865E+02  0.56154809865E+02  0.00000000000E+00 0. -1.
         25    2    1    2    0    0 -0.51722678190E+01 -0.32077279897E+02  0.24585926782E+03  0.27776114333E+03  0.12509503960E+03 0.  0.
          5    1    3    3  502    0  0.19480702290E+02 -0.76041659985E+02  0.15369141426E+03  0.17262779334E+03  0.41800000000E+01 0.  1.
         -5    1    3    3    0  502 -0.24652970109E+02  0.43964380088E+02  0.92167853555E+02  0.10513334999E+03  0.41800000000E+01 0.  1.
        -11    1    1    2    0    0 -0.42723310227E+02  0.61108622861E+01 -0.76714771645E+01  0.43834637406E+02  0.00000000000E+00 0.  1.
         11    1    1    2    0    0  0.47895578046E+02  0.25966417611E+02  0.36899944224E+02  0.65801573869E+02  0.00000000000E+00 0. -1.
</event>
<event>
 7    1  0.2810263E-009  0.7321177E+02  0.7561462E-02  0.1349500E+00
          1   -1    0    0  501    0  0.00000000000E+00  0.00000000000E+00  0.28145867994E+03  0.28145867994E+03  0.00000000000E+00 0. -1.
         -1   -1    0    0    0  501 -0.00000000000E+00 -0.00000000000E+00 -0.50978973178E+02  0.50978973178E+02  0.00000000000E+00 0.  1.
         25    2    1    2    0    0  0.20974158572E+02  0.19759738451E+02  0.18894589361E+03  0.22842457737E+03  0.12508746638E+03 0.  0.
          5    1    3    3  502    0  0.25048609435E+01  0.30686677910E+02  0.20104858031E+03  0.20343537198E+03  0.41800000000E+01 0.  1.
         -5    1    3    3    0  502  0.18469297628E+02 -0.10926939458E+02 -0.12102686698E+02  0.24989205392E+02  0.41800000000E+01 0.  1.
        -11    1    1    2    0    0 -0.23412861666E+02  0.33116552806E+02  0.28290078939E+02  0.49448930499E+02  0.00000000000E+00 0. -1.
         11    1    1    2    0    0  0.24387030944E+01 -0.52876291257E+02  0.13243734208E+02  0.54564145239E+02  0.00000000000E+00 0.  1.
</event>
<event>
 7    1  0.2810263E-009  0.1176286E+03  0.7561462E-02  0.1247061E+00
         -2   -1    0    0    0  501 -0.00000000000E+00  0.00000000000E+00  0.22535329348E+02  0.22535329348E+02  0.00000000000E+00 0.  1.
          2   -1    0    0  501    0  0.00000000000E+00 -0.00000000000E+00 -0.71460573618E+03  0.71460573618E+03  0.00000000000E+00 0. -1.
         25    2    1    2    0    0  0.52934296347E+02  0.28131371529E+02 -0.47118113966E+03  0.49117448564E+03  0.12508914889E+03 0.  0.
          5    1    3    3  502    0 -0.15591201624E+02 -0.34743114777E+02 -0.75181070229E+02  0.84379116571E+02  0.41800000000E+01 0. -1.
         -5    1    3    3    0  502  0.68525497970E+02  0.62874486306E+02 -0.39600006943E+03  0.40679536906E+03  0.41800000000E+01 0. -1.
        -11    1    1    2    0    0 -0.20694585903E+02  0.30549948481E+02 -0.11415132420E+03  0.11996703737E+03  0.00000000000E+00 0. -1.
         11    1    1    2    0    0 -0.32239710443E+02 -0.58681320009E+02 -0.10673794297E+03  0.12599954252E+03  0.00000000000E+00 0.  1.
</event>
<event>
 7    1  0.2810263E-009  0.1003501E+03  0.7561462E-02  0.1279562E+00
         -2   -1    0    0    0  501 -0.00000000000E+00  0.00000000000E+00  0.17351824521E+02  0.17351824521E+02  0.00000000000E+00 0.  1.
          2   -1    0    0  501    0  0.00000000000E+00 -0.00000000000E+00 -0.12007276778E+04  0.12007276778E+04  0.00000000000E+00 0. -1.
         25    2    1    2    0    0 -0.19338949386E+02 -0.20626994640E+02 -0.10210535442E+04  0.10290751751E+04  0.12508360370E+03 0.  0.
          5    1    3    3  502    0 -0.62256784246E+02 -0.78929088097E+01 -0.84617574961E+03  0.84850991558E+03  0.41800000000E+01 0.  1.
         -5    1    3    3    0  502  0.42917834860E+02 -0.12734085830E+02 -0.17487779460E+03  0.18056525949E+03  0.41800000000E+01 0.  1.
        -11    1    1    2    0    0  0.31553015376E+02 -0.28318718691E+02 -0.10140109149E+03  0.10990779755E+03  0.00000000000E+00 0. -1.
         11    1    1    2    0    0 -0.12214065989E+02  0.48945713331E+02 -0.60921217615E+02  0.79096529742E+02  0.00000000000E+00 0.  1.
</event>
<event>
 7    1  0.2810263E-009  0.6527290E+02  0.7561462E-02  0.1376948E+00
          2   -1    0    0  501    0  0.00000000000E+00  0.00000000000E+00  0.44392370488E+03  0.44392370488E+03  0.00000000000E+00 0. -1.
         -2   -1    0    0    0  501 -0.00000000000E+00 -0.00000000000E+00 -0.32383822856E+02  0.32383822856E+02  0.00000000000E+00 0.  1.
         25    2    1    2    0    0 -0.20442145602E+02 -0.93086460601E+01  0.13753748299E+03  0.18726242587E+03  0.12508447028E+03 0.  0.
          5    1    3    3  502    0 -0.27100235803E+02  0.11674824003E+02  0.15563275128E+03  0.15846056281E+03  0.41800000000E+01 0. -1.
         -5    1    3    3    0  502  0.66580902014E+01 -0.20983470063E+02 -0.18095268289E+02  0.28801863055E+02  0.41800000000E+01 0. -1.
        -11    1    1    2    0    0  0.43000055656E+02 -0.14651097258E+02  0.77714459052E+02  0.90017757043E+02  0.00000000000E+00 0.  1.
         11    1    1    2    0    0 -0.22557910055E+02  0.23959743318E+02  0.19628793999E+03  0.19902734483E+03  0.00000000000E+00 0. -1.
</event>
<event>
 7    1  0.2810263E-009  0.9639615E+02  0.7561462E-02  0.1288062E+00
          1   -1    0    0  501    0  0.00000000000E+00  0.00000000000E+00  0.56484543661E+03  0.56484543661E+03  0.00000000000E+00 0. -1.
         -1   -1    0    0    0  501 -0.00000000000E+00 -0.00000000000E+00 -0.20924788518E+02  0.20924788518E+02  0.00000000000E+00 0.  1.
         25    2    1    2    0    0  0.11577488138E+02 -0.60567273566E+01  0.30680801358E+03  0.33158472150E+03  0.12508616293E+03 0.  0.
          5    1    3    3  502    0  0.49367800886E+02  0.32297631834E+02  0.23136148702E+03  0.23880101939E+03  0.41800000000E+01 0. -1.
         -5    1    3    3    0  502 -0.37790312748E+02 -0.38354359191E+02  0.75446526562E+02  0.92783702108E+02  0.41800000000E+01 0. -1.
        -11    1    1    2    0    0  0.33702644518E+02 -0.15091931485E+01  0.42662608056E+02  0.54389742025E+02  0.00000000000E+00 0. -1.
         11    1    1    2    0    0 -0.45280132655E+02  0.75659205051E+01  0.19445002646E+03  0.19979576161E+03  0.00000000000E+00 0.  1.
</event>
<event>
 7    1  0.2810263E-009  0.1076015E+03  0.7561462E-02  0.1265077E+00
          1   -1    0    0  501    0  0.00000000000E+00  0.00000000000E+00  0.94140613364E+03  0.94140613364E+03  0.00000000000E+00 0. -1.
         -1   -1    0    0    0  501 -0.00000000000E+00 -0.00000000000E+00 -0.17195216538E+02  0.17195216538E+02  0.00000000000E+00 0.  1.
         25    2    1    2    0    0 -0.55884469188E+02  0.27911868261E+02  0.41307326348E+03  0.43609438916E+03  0.12508656590E+03 0.  0.
          5    1    3    3  502    0  0.16168468816E+02 -0.15471867690E+02  0.26320886641E+03  0.26419155518E+03  0.41800000000E+01 0. -1.
         -5    1    3    3    0  502 -0.72052938004E+02  0.43383735951E+02  0.14986439708E+03  0.17190283398E+03  0.41800000000E+01 0. -1.
        -11    1    1    2    0    0  0.75588041284E+02 -0.39585132412E+02  0.41472519978E+03  0.42341176888E+03  0.00000000000E+00 0. -1.
         11    1    1    2    0    0 -0.19703572096E+02  0.11673264151E+02  0.96412453844E+02  0.99095192141E+02  0.00000000000E+00 0.  1.
</event>
<event>
 7    1  0.2810263E-009  0.1153898E+03  0.7561462E-02  0.1250902E+00
          2   -1    0    0  501    0  0.00000000000E+00  0.00000000000E+00  0.15114762176E+03  0.15114762176E+03  0.00000000000E+00 0. -1.
         -2   -1    0    0    0  501 -0.00000000000E+00 -0.00000000000E+00 -0.15751522396E+03  0.15751522396E+03  0.00000000000E+00 0.  1.
         25    2    1    2    0    0 -0.92308152528E+02 -0.17589930397E+02 -0.61072228267E+02  0.16794998709E+03  0.12508869023E+03 0.  0.
          5    1    3    3  502    0 -0.31667287446E+02  0.12504827286E+02  0.35872501359E+02  0.49633623215E+02  0.41800000000E+01 0. -1.
         -5    1    3    3    0  502 -0.60640865081E+02 -0.30094757683E+02 -0.96944729627E+02  0.11831636387E+03  0.41800000000E+01 0. -1.
        -11    1    1    2    0    0  0.42263934533E+02 -0.35861465460E+02  0.15015726038E+02  0.57426099429E+02  0.00000000000E+00 0. -1.
         11    1    1    2    0    0  0.50044217994E+02  0.53451395857E+02  0.39688900025E+02  0.83286759205E+02  0.00000000000E+00 0.  1.
</event>
<event>
 7    1  0.2810263E-009  0.9754860E+02  0.7561462E-02  0.1285537E+00
         -1   -1    0    0    0  501 -0.00000000000E+00  0.00000000000E+00  0.42006772561E+03  0.42006772561E+03  0.00000000000E+00 0.  1.
          1   -1    0    0  501    0  0.00000000000E+00 -0.00000000000E+00 -0.36369805908E+02  0.36369805908E+02  0.00000000000E+00 0. -1.
         25    2    1    2    0    0  0.83694679388E+00  0.36386348655E+02  0.29960967129E+03  0.32670823329E+03  0.12509055808E+03 0.  0.
          5    1    3    3  502    0 -0.36597729985E+02  0.64084843215E+02  0.11852534596E+03  0.13968532852E+03  0.41800000000E+01 0.  1.
         -5    1    3    3    0  502  0.37434676779E+02 -0.27698494559E+02  0.18108432534E+03  0.18702290477E+03  0.41800000000E+01 0.  1.
        -11    1    1    2    0    0 -0.29443860918E+02 -0.35065241115E+02  0.55376941358E+01  0.46121341444E+02  0.00000000000E+00 0. -1.
         11    1    1    2    0    0  0.28606914124E+02 -0.13211075405E+01  0.78550554277E+02  0.83607956787E+02  0.00000000000E+00 0.  1.
</event>
<event>
 7    1  0.2810263E-009  0.1168142E+03  0.7561462E-02  0.1248447E+00
         -2   -1    0    0    0  501 -0.00000000000E+00  0.00000000000E+00  0.18036951493E+02  0.18036951493E+02  0.00000000000E+00 0.  1.
          2   -1    0    0  501    0  0.00000000000E+00 -0.00000000000E+00 -0.83134904958E+03  0.83134904958E+03  0.00000000000E+00 0. -1.
         25    2    1    2    0    0  0.39756778504E+02 -0.24327824715E+02 -0.35485773201E+03  0.37913614242E+03  0.12509100701E+03 0.  0.
          5    1    3    3  502    0 -0.20931219588E+02 -0.57864696165E+02 -0.20263254991E+03  0.21181091024E+03  0.41800000000E+01 0.  1.
         -5    1    3    3    0  502  0.60687998093E+02  0.33536871450E+02 -0.15222518210E+03  0.16732523218E+03  0.41800000000E+01 0.  1.
        -11    1    1    2    0    0  0.49104436721E+00  0.53044303328E+02 -0.18929939240E+03  0.19659145252E+03  0.00000000000E+00 0. -1.
         11    1    1    2    0    0 -0.40247822872E+02 -0.28716478614E+02 -0.26915497368E+03  0.27365840613E+03  0.00000000000E+00 0.  1.
</event>
<event>
 7    1  0.2810263E-009  0.1162320E+03  0.7561462E-02  0.1249446E+00
          1   -1    0    0  501    0  0.00000000000E+00  0.00000000000E+00  0.19346310345E+03  0.19346310345E+03  0.00000000000E+00 0. -1.
         -1   -1    0    0    0  501 -0.00000000000E+00 -0.00000000000E+00 -0.11145861987E+03  0.11145861987E+03  0.00000000000E+00 0.  1.
         25    2    1    2    0    0  0.52070055776E+02  0.84432996373E+02  0.55773767045E+02  0.16911558437E+03  0.12509654752E+03 0.  0.
          5    1    3    3  502    0  0.74824353216E+02  0.49203602569E+02  0.80297830276E+02  0.12035319808E+03  0.41800000000E+01 0. -1.
         -5    1    3    3    0  502 -0.22754297439E+02  0.35229393805E+02 -0.24524063232E+02  0.48762386295E+02  0.41800000000E+01 0. -1.
        -11    1    1    2    0    0 -0.13123676972E+02 -0.37206312858E+02  0.55387852797E+02  0.68002609150E+02  0.00000000000E+00 0. -1.
         11    1    1    2    0    0 -0.38946378805E+02 -0.47226683516E+02 -0.29157136258E+02  0.67803529795E+02  0.00000000000E+00 0.  1.
</event>
<event>
 7    1  0.2810263E-009  0.1209109E+03  0.7561462E-02  0.1241602E+00
         -2   -1    0    0    0  501 -0.00000000000E+00  0.00000000000E+00  0.11332342804E+03  0.11332342804E+03  0.00000000000E+00 0. -1.
          2   -1    0    0  501    0  0.00000000000E+00 -0.00000000000E+00 -0.25885669256E+03  0.25885669256E+03  0.00000000000E+00 0.  1.
         25    2    1    2    0    0  0.81628777532E+02  0.31464701901E+02  0.30192657681E+02  0.15560079779E+03  0.12508687744E+03 0.  0.
          5    1    3    3  502    0  0.80294828804E+02  0.73626026140E+02  0.12751760694E+02  0.10976397888E+03  0.41800000000E+01 0. -1.
         -5    1    3    3    0  502  0.13339487279E+01 -0.42161324238E+02  0.17440896987E+02  0.45836818917E+02  0.41800000000E+01 0. -1.
        -11    1    1    2    0    0 -0.37489238265E+02 -0.26680189845E+02 -0.16445776252E+03  0.17077362551E+03  0.00000000000E+00 0.  1.
         11    1    1    2    0    0 -0.44139539266E+02 -0.47845120566E+01 -0.11268159686E+02  0.45805697298E+02  0.00000000000E+00 0. -1.
</event>
<event>
 7    1  0.2810263E-009  0.1581016E+03  0.7561462E-02  0.1190857E+00
          1   -1    0    0  501    0  0.00000000000E+00  0.00000000000E+00  0.16027998381E+03  0.16027998381E+03  0.00000000000E+00 0. -1.
         -1   -1    0    0    0  501 -0.00000000000E+00 -0.00000000000E+00 -0.18666012554E+03  0.18666012554E+03  0.00000000000E+00 0.  1.
         25    2    1    2    0    0  0.65129018416E+02  0.11737333768E+03  0.99527603459E+00  0.18348707680E+03  0.12509287485E+03 0.  0.
          5    1    3    3  502    0  0.11887155457E+02  0.11347027335E+03 -0.34471772422E+02  0.11925847095E+03  0.41800000000E+01 0. -1.
         -5    1    3    3    0  502  0.53241862959E+02  0.39030643289E+01  0.35467048456E+02  0.64228605844E+02  0.41800000000E+01 0. -1.
        -11    1    1    2    0    0 -0.65434833552E+02 -0.53252117699E+02 -0.46770093570E+02  0.96462153895E+02  0.00000000000E+00 0.  1.
         11    1    1    2    0    0  0.30581513603E+00 -0.64121219982E+02  0.19394675807E+02  0.66990878667E+02  0.00000000000E+00 0. -1.
</event>
<event>
 7    1  0.2810263E-009  0.1373950E+03  0.7561462E-02  0.1216878E+00
         -2   -1    0    0    0  501 -0.00000000000E+00  0.00000000000E+00  0.35478256966E+03  0.35478256966E+03  0.00000000000E+00 0. -1.
          2   -1    0    0  501    0  0.00000000000E+00 -0.00000000000E+00 -0.79801556047E+02  0.79801556047E+02  0.00000000000E+00 0.  1.
         25    2    1    2    0    0 -0.86757958595E+01  0.12222550800E+03  0.14795308210E+03  0.22924256254E+03  0.12509074202E+03 0.  0.
          5    1    3    3  502    0 -0.22105167215E+02 -0.76840127930E+00 -0.13149487341E+02  0.26069335923E+02  0.41800000000E+01 0.  1.
         -5    1    3    3    0  502  0.13429371356E+02  0.12299390928E+03  0.16110256944E+03  0.20317322662E+03  0.41800000000E+01 0.  1.
        -11    1    1    2    0    0  0.24133141977E+02 -0.72385246368E+02  0.96791677986E+01  0.76913709589E+02  0.00000000000E+00 0.  1.
         11    1    1    2    0    0 -0.15457346118E+02 -0.49840261632E+02  0.11734876371E+03  0.12842785357E+03  0.00000000000E+00 0. -1.
</event>
<event>
 7    1  0.2810263E-009  0.9385326E+02  0.7561462E-02  0.1293780E+00
         -1   -1    0    0    0  501 -0.00000000000E+00  0.00000000000E+00  0.84457271809E+02  0.84457271809E+02  0.00000000000E+00 0. -1.
          1   -1    0    0  501    0  0.00000000000E+00 -0.00000000000E+00 -0.15117369933E+03  0.15117369933E+03  0.00000000000E+00 0.  1.
         25    2    1    2    0    0  0.18382840596E+02  0.27181086951E+02 -0.45309024709E+02  0.13702786388E+03  0.12508791886E+03 0.  0.
          5    1    3    3  502    0  0.61073481385E+02  0.23513990821E+02 -0.62576208997E+02  0.90642882927E+02  0.41800000000E+01 0. -1.
         -5    1    3    3    0  502 -0.42690640789E+02  0.36670961304E+01  0.17267184288E+02  0.46384980955E+02  0.41800000000E+01 0. -1.
        -11    1    1    2    0    0 -0.45744263034E+02 -0.10174285147E+02 -0.39820922873E+02  0.61496012694E+02  0.00000000000E+00 0.  1.
         11    1    1    2    0    0  0.27361422438E+02 -0.17006801804E+02  0.18413520065E+02  0.37107094559E+02  0.00000000000E+00 0. -1.
</event>
<event>
 7    1  0.2810263E-009  0.2309101E+03  0.7561462E-02  0.1126001E+00
          2   -1    0    0  501    0  0.00000000000E+00  0.00000000000E+00  0.10928981453E+04  0.10928981453E+04  0.00000000000E+00 0. -1.
         -2   -1    0    0    0  501 -0.00000000000E+00 -0.00000000000E+00 -0.60972633880E+02  0.60972633880E+02  0.00000000000E+00 0.  1.
         25    2    1    2    0    0  0.15742783944E+03  0.15804781253E+03  0.37317661526E+03  0.45240590951E+03  0.12509070753E+03 0.  0.
          5    1    3    3  502    0 -0.75077536411E+00  0.20013887367E+02 -0.38797745471E+01  0.20824130276E+02  0.41800000000E+01 0. -1.
         -5    1    3    3    0  502  0.15817861481E+03  0.13803392516E+03  0.37705638980E+03  0.43158177924E+03  0.41800000000E+01 0. -1.
        -11    1    1    2    0    0 -0.66677448701E+01 -0.38229428034E+02  0.20339599163E+03  0.20706491108E+03  0.00000000000E+00 0. -1.
         11    1    1    2    0    0 -0.15076009457E+03 -0.11981838450E+03  0.45535290448E+03  0.49439995854E+03  0.00000000000E+00 0.  1.
</event>
<event>
 7    1  0.2823210E-009  0.1460471E+03  0.7561462E-02  0.1205416E+00
         -2   -1    0    0    0  501 -0.00000000000E+00  0.00000000000E+00  0.29190353806E+02  0.29190353806E+02  0.00000000000E+00 0.  1.
          2   -1    0    0  501    0  0.00000000000E+00 -0.00000000000E+00 -0.86386692221E+03  0.86386692221E+03  0.00000000000E+00 0. -1.
         25    2    1    2    0    0  0.41444517580E+01  0.11592999876E+03 -0.45594723475E+03  0.48681942038E+03  0.12509326956E+03 0.  0.
          5    1    3    3  502    0 -0.23814917734E+02  0.11457006131E+03 -0.22036282181E+03  0.24954096836E+03  0.41800000000E+01 0. -1.
         -5    1    3    3    0  502  0.27959369492E+02  0.13599374558E+01 -0.23558441294E+03  0.23727845202E+03  0.41800000000E+01 0. -1.
        -11    1    1    2    0    0 -0.46827027334E+02 -0.67371735215E+02 -0.22347710598E+03  0.23806246679E+03  0.00000000000E+00 0.  1.
         11    1    1    2    0    0  0.42682575576E+02 -0.48558263548E+02 -0.15525222767E+03  0.16817538884E+03  0.00000000000E+00 0. -1.
</event>
<event>
 7    1  0.2810263E-009  0.7535930E+02  0.7561462E-02  0.1342762E+00
         -3   -1    0    0    0  501 -0.00000000000E+00  0.00000000000E+00  0.25128544585E+03  0.25128544585E+03  0.00000000000E+00 0.  1.
          3   -1    0    0  501    0  0.00000000000E+00 -0.00000000000E+00 -0.67243371324E+02  0.67243371324E+02  0.00000000000E+00 0. -1.
         25    2    1    2    0    0  0.21367083458E+02  0.10650541791E+01  0.22529798023E+02  0.12888779012E+03  0.12508710584E+03 0.  0.
          5    1    3    3  502    0  0.32098169401E+02 -0.12910004084E+02 -0.46167662472E+02  0.57843635280E+02  0.41800000000E+01 0. -1.
         -5    1    3    3    0  502 -0.10731085943E+02  0.13975058263E+02  0.68697460495E+02  0.71044154843E+02  0.41800000000E+01 0. -1.
        -11    1    1    2    0    0 -0.16753669809E+02 -0.47876285622E+02  0.66638741393E+02  0.83746916549E+02  0.00000000000E+00 0. -1.
         11    1    1    2    0    0 -0.46134136491E+01  0.46811231443E+02  0.94873535111E+02  0.10589411050E+03  0.00000000000E+00 0.  1.
</event>
<event>
 7    1  0.2810263E-009  0.1447732E+03  0.7561462E-02  0.1207047E+00
          3   -1    0    0  501    0  0.00000000000E+00  0.00000000000E+00  0.97982699628E+02  0.97982699628E+02  0.00000000000E+00 0. -1.
         -3   -1    0    0    0  501 -0.00000000000E+00 -0.00000000000E+00 -0.31972267775E+03  0.31972267775E+03  0.00000000000E+00 0.  1.
         25    2    1    2    0    0  0.11961175884E+03 -0.10938076099E+02 -0.34132210651E+02  0.17674692271E+03  0.12509137669E+03 0.  0.
          5    1    3    3  502    0  0.23596932006E+01  0.31962324434E+02 -0.40313576601E+02  0.51670254437E+02  0.41800000000E+01 0. -1.
         -5    1    3    3    0  502  0.11725206563E+03 -0.42900400533E+02  0.61813659498E+01  0.12507666827E+03  0.41800000000E+01 0. -1.
        -11    1    1    2    0    0 -0.53115242642E+02  0.32653026115E+02 -0.31414725199E+02  0.69816431266E+02  0.00000000000E+00 0. -1.
         11    1    1    2    0    0 -0.66496516193E+02 -0.21714950016E+02 -0.15619304227E+03  0.17114202340E+03  0.00000000000E+00 0.  1.
</event>
<event>
 7    1  0.2810263E-009  0.1194751E+03  0.7561462E-02  0.1243965E+00
          2   -1    0    0  501    0  0.00000000000E+00  0.00000000000E+00  0.41403645713E+03  0.41403645713E+03  0.00000000000E+00 0. -1.
         -2   -1    0    0    0  501 -0.00000000000E+00 -0.00000000000E+00 -0.73119257728E+02  0.73119257728E+02  0.00000000000E+00 0.  1.
         25    2    1    2    0    0  0.11192137079E+02 -0.49620811461E+02  0.34658145081E+03  0.37195800171E+03  0.12508622678E+03 0.  0.
          5    1    3    3  502    0  0.64842959902E+02 -0.16694218299E+02  0.12882463899E+03  0.14524657099E+03  0.41800000000E+01 0.  1.
         -5    1    3    3    0  502 -0.53650822823E+02 -0.32926593162E+02  0.21775681181E+03  0.22671143072E+03  0.41800000000E+01 0.  1.
        -11    1    1    2    0    0  0.33383633622E+02  0.54521816211E+02 -0.21790376654E+02  0.67541956971E+02  0.00000000000E+00 0.  1.
         11    1    1    2    0    0 -0.44575770701E+02 -0.49010047499E+01  0.16126125250E+02  0.47655756176E+02  0.00000000000E+00 0. -1.
</event>
<event>
 7    1  0.2810263E-009  0.2264801E+03  0.7561462E-02  0.1129142E+00
          2   -1    0    0  501    0  0.00000000000E+00  0.00000000000E+00  0.52115312896E+03  0.52115312896E+03  0.00000000000E+00 0. -1.
         -2   -1    0    0    0  501 -0.00000000000E+00 -0.00000000000E+00 -0.10631617618E+03  0.10631617618E+03  0.00000000000E+00 0.  1.
         25    2    1    2    0    0 -0.10372690302E+03 -0.17930230900E+03  0.18062477273E+03  0.30196006431E+03  0.12508390581E+03 0.  0.
          5    1    3    3  502    0 -0.89198831272E+02 -0.46762356005E+02  0.40903437048E+02  0.10878287090E+03  0.41800000000E+01 0. -1.
         -5    1    3    3    0  502 -0.14528071746E+02 -0.13253995299E+03  0.13972133569E+03  0.19317719341E+03  0.41800000000E+01 0. -1.
        -11    1    1    2    0    0  0.10128413607E+03  0.11042529179E+03  0.11938054634E+03  0.19158271355E+03  0.00000000000E+00 0. -1.
         11    1    1    2    0    0  0.24427669472E+01  0.68877017206E+02  0.11483163371E+03  0.13392652728E+03  0.00000000000E+00 0.  1.
</event>
<event>
 7    1  0.2810263E-009  0.1210387E+03  0.7561462E-02  0.1241393E+00
         -2   -1    0    0    0  501 -0.00000000000E+00  0.00000000000E+00  0.35770727916E+02  0.35770727916E+02  0.00000000000E+00 0.  1.
          2   -1    0    0  501    0  0.00000000000E+00 -0.00000000000E+00 -0.74017014675E+03  0.74017014675E+03  0.00000000000E+00 0. -1.
         25    2    1    2    0    0 -0.88332082184E+02 -0.47772537199E+02 -0.53804091063E+03  0.56144558664E+03  0.12509337788E+03 0.  0.
          5    1    3    3  502    0 -0.15485932528E+02  0.30030060378E+02 -0.41997204980E+02  0.54063446604E+02  0.41800000000E+01 0. -1.
         -5    1    3    3    0  502 -0.72846149656E+02 -0.77802597577E+02 -0.49604370565E+03  0.50738214003E+03  0.41800000000E+01 0. -1.
        -11    1    1    2    0    0  0.61086684210E+02  0.25574337778E+02 -0.16667599768E+03  0.17935026608E+03  0.00000000000E+00 0. -1.
         11    1    1    2    0    0  0.27245397974E+02  0.22198199421E+02  0.31748947516E+00  0.35145021950E+02  0.00000000000E+00 0.  1.
</event>
<event>
 7    1  0.2810263E-009  0.9145904E+02  0.7561462E-02  0.1299356E+00
          3   -1    0    0  501    0  0.00000000000E+00  0.00000000000E+00  0.10991405439E+03  0.10991405439E+03  0.00000000000E+00 0. -1.
         -3   -1    0    0    0  501 -0.00000000000E+00 -0.00000000000E+00 -0.12444955055E+03  0.12444955055E+03  0.00000000000E+00 0.  1.
         25    2    1    2    0    0  0.38560743125E+02  0.80784314565E+01 -0.21101864244E+02  0.13283498125E+03  0.12509057360E+03 0.  0.
          5    1    3    3  502    0  0.39462884746E+02  0.51347151196E+02 -0.48876119000E+02  0.81241594131E+02  0.41800000000E+01 0. -1.
         -5    1    3    3    0  502 -0.90214162141E+00 -0.43268719740E+02  0.27774254756E+02  0.51593387122E+02  0.41800000000E+01 0. -1.
        -11    1    1    2    0    0  0.17635921649E+02  0.78068920112E+00 -0.29349401359E+02  0.34249417048E+02  0.00000000000E+00 0.  1.
         11    1    1    2    0    0 -0.56196664774E+02 -0.88591206576E+01  0.35915769441E+02  0.67279206632E+02  0.00000000000E+00 0. -1.
</event>
<event>
 7    1  0.2810263E-009  0.1780278E+03  0.7561462E-02  0.1169726E+00
         -2   -1    0    0    0  501 -0.00000000000E+00  0.00000000000E+00  0.55232682898E+03  0.55232682898E+03  0.00000000000E+00 0.  1.
          2   -1    0    0  501    0  0.00000000000E+00 -0.00000000000E+00 -0.68183943289E+02  0.68183943289E+02  0.00000000000E+00 0. -1.
         25    2    1    2    0    0 -0.14245459924E+03 -0.72972035815E+02  0.24666951042E+03  0.31954994981E+03  0.12509233468E+03 0.  0.
          5    1    3    3  502    0 -0.19957530642E+01 -0.22133977982E+02  0.12448473703E+03  0.12652200664E+03  0.41800000000E+01 0. -1.
         -5    1    3    3    0  502 -0.14045884618E+03 -0.50838057833E+02  0.12218477339E+03  0.19302794317E+03  0.41800000000E+01 0. -1.
        -11    1    1    2    0    0  0.10061545498E+03  0.93545736225E+02  0.18952889879E+03  0.23408433955E+03  0.00000000000E+00 0.  1.
         11    1    1    2    0    0  0.41839144266E+02 -0.20573700410E+02  0.47944476483E+02  0.66876482912E+02  0.00000000000E+00 0. -1.
</event>
<event>
 7    1  0.2810263E-009  0.1072697E+03  0.7561462E-02  0.1265711E+00
          4   -1    0    0  501    0  0.00000000000E+00  0.00000000000E+00  0.41627318475E+03  0.41627318475E+03  0.00000000000E+00 0. -1.
         -4   -1    0    0    0  501 -0.00000000000E+00 -0.00000000000E+00 -0.41147232757E+02  0.41147232757E+02  0.00000000000E+00 0.  1.
         25    2    1    2    0    0 -0.52296554142E+01 -0.38634834209E+02  0.31698551239E+03  0.34299892355E+03  0.12509375197E+03 0.  0.
          5    1    3    3  502    0 -0.38536488561E+02 -0.72905502986E+02  0.21443447442E+03  0.22978226550E+03  0.41800000000E+01 0.  1.
         -5    1    3    3    0  502  0.33306833147E+02  0.34270668777E+02  0.10255103797E+03  0.11321665806E+03  0.41800000000E+01 0.  1.
        -11    1    1    2    0    0 -0.26023461678E+02  0.45112830133E+02  0.63426901885E+02  0.82069238349E+02  0.00000000000E+00 0. -1.
         11    1    1    2    0    0  0.31253117092E+02 -0.64779959239E+01 -0.52864622855E+01  0.32352255604E+02  0.00000000000E+00 0.  1.
</event>
<event>
 7    1  0.2810263E-009  0.6502845E+02  0.7561462E-02  0.1377865E+00
          2   -1    0    0  501    0  0.00000000000E+00  0.00000000000E+00  0.32484192431E+03  0.32484192431E+03  0.00000000000E+00 0. -1.
         -2   -1    0    0    0  501 -0.00000000000E+00 -0.00000000000E+00 -0.64633815767E+02  0.64633815767E+02  0.00000000000E+00 0.  1.
         25    2    1    2    0    0  0.29480304619E+01  0.48372508963E+01  0.12672967610E+02  0.12585574978E+03  0.12508787218E+03 0.  0.
          5    1    3    3  502    0  0.94149370105E+00  0.30678703811E+02 -0.49484954910E+02  0.58380668379E+02  0.41800000000E+01 0.  1.
         -5    1    3    3    0  502  0.20065367608E+01 -0.25841452915E+02  0.62157922521E+02  0.67475081405E+02  0.41800000000E+01 0.  1.
        -11    1    1    2    0    0 -0.36743901208E+02  0.62219282831E+01  0.47126416543E+02  0.60080993698E+02  0.00000000000E+00 0.  1.
         11    1    1    2    0    0  0.33795870746E+02 -0.11059179179E+02  0.20040872439E+03  0.20353899660E+03  0.00000000000E+00 0. -1.
</event>
<event>
 7    1  0.2810263E-009  0.1575379E+03  0.7561462E-02  0.1191505E+00
          1   -1    0    0  501    0  0.00000000000E+00  0.00000000000E+00  0.28141318820E+03  0.28141318820E+03  0.00000000000E+00 0. -1.
         -1   -1    0    0    0  501 -0.00000000000E+00 -0.00000000000E+00 -0.99070952797E+02  0.99070952797E+02  0.00000000000E+00 0.  1.
         25    2    1    2    0    0  0.19057689596E+02 -0.12749764083E+03  0.12482494623E+03  0.21874152136E+03  0.12509093500E+03 0.  0.
          5    1    3    3  502    0  0.61645332122E+02 -0.80905764457E+02  0.32577127861E+02  0.10688606717E+03  0.41800000000E+01 0. -1.
         -5    1    3    3    0  502 -0.42587642526E+02 -0.46591876371E+02  0.92247818370E+02  0.11185545420E+03  0.41800000000E+01 0. -1.
        -11    1    1    2    0    0  0.29917724026E+02  0.43857223136E+02  0.10929352784E+02  0.54203108623E+02  0.00000000000E+00 0.  1.
         11    1    1    2    0    0 -0.48975413621E+02  0.83640417692E+02  0.46587936387E+02  0.10753951101E+03  0.00000000000E+00 0. -1.
</event>
<event>
 7    1  0.2810263E-009  0.1861624E+03  0.7561462E-02  0.1161969E+00
         -2   -1    0    0    0  501 -0.00000000000E+00  0.00000000000E+00  0.30424150920E+02  0.30424150920E+02  0.00000000000E+00 0. -1.
          2   -1    0    0  501    0  0.00000000000E+00 -0.00000000000E+00 -0.12870342284E+04  0.12870342284E+04  0.00000000000E+00 0.  1.
         25    2    1    2    0    0 -0.45129503345E+02  0.15754357099E+03 -0.58613587989E+03  0.62133692534E+03  0.12509059223E+03 0.  0.
          5    1    3    3  502    0 -0.80687099576E+02  0.11063231406E+03 -0.30929440926E+03  0.33827565824E+03  0.41800000000E+01 0.  1.
         -5    1    3    3    0  502  0.35557596231E+02  0.46911256931E+02 -0.27684147063E+03  0.28306126711E+03  0.41800000000E+01 0.  1.
        -11    1    1    2    0    0  0.61610305266E+02 -0.11113466581E+03 -0.57290216478E+03  0.58682504553E+03  0.00000000000E+00 0.  1.
         11    1    1    2    0    0 -0.16480801922E+02 -0.46408905183E+02 -0.97572032812E+02  0.10929640845E+03  0.00000000000E+00 0. -1.
</event>
<event>
 7    1  0.2810263E-009  0.1611195E+03  0.7561462E-02  0.1187439E+00
          1   -1    0    0  501    0  0.00000000000E+00  0.00000000000E+00  0.25122713054E+03  0.25122713054E+03  0.00000000000E+00 0. -1.
         -1   -1    0    0    0  501 -0.00000000000E+00 -0.00000000000E+00 -0.24869890770E+03  0.24869890770E+03  0.00000000000E+00 0.  1.
         25    2    1    2    0    0 -0.10851906534E+03  0.93172948578E+02  0.17478148903E+03  0.25817478634E+03  0.12509222800E+03 0.  0.
          5    1    3    3  502    0 -0.11754080297E+02  0.69428325521E+02  0.13199197453E+03  0.14965896074E+03  0.41800000000E+01 0. -1.
         -5    1    3    3    0  502 -0.96764985047E+02  0.23744623056E+02  0.42789514492E+02  0.10851582560E+03  0.41800000000E+01 0. -1.
        -11    1    1    2    0    0  0.61486126260E+02 -0.19379322533E+02 -0.22456041986E+02  0.68266944315E+02  0.00000000000E+00 0.  1.
         11    1    1    2    0    0  0.47032939083E+02 -0.73793626044E+02 -0.14979722420E+03  0.17348430759E+03  0.00000000000E+00 0. -1.
</event>
<event>
 7    1  0.2810263E-009  0.2127950E+03  0.7561462E-02  0.1139372E+00
          2   -1    0    0  501    0  0.00000000000E+00  0.00000000000E+00  0.24124201397E+03  0.24124201397E+03  0.00000000000E+00 0. -1.
         -2   -1    0    0    0  501 -0.00000000000E+00 -0.00000000000E+00 -0.27127300530E+03  0.27127300530E+03  0.00000000000E+00 0.  1.
         25    2    1    2    0    0 -0.19854737377E+03 -0.88856406870E+01 -0.13330306977E+03  0.27003394286E+03  0.12509439493E+03 0.  0.
          5    1    3    3  502    0 -0.10474931237E+03  0.36731704062E+02 -0.12206840383E+03  0.16504485493E+03  0.41800000000E+01 0.  1.
         -5    1    3    3    0  502 -0.93798061399E+02 -0.45617344749E+02 -0.11234665939E+02  0.10498908792E+03  0.41800000000E+01 0.  1.
        -11    1    1    2    0    0  0.60067348577E+02  0.34533955822E+02  0.25475044504E+01  0.69333759805E+02  0.00000000000E+00 0.  1.
         11    1    1    2    0    0  0.13848002519E+03 -0.25648315135E+02  0.10072457399E+03  0.17314731662E+03  0.00000000000E+00 0. -1.
</event>
<event>
 7    1  0.2810263E-009  0.3018214E+03  0.7561462E-02  0.1084334E+00
         -3   -1    0    0    0  501 -0.00000000000E+00  0.00000000000E+00  0.28078584183E+03  0.28078584183E+03  0.00000000000E+00 0.  1.
          3   -1    0    0  501    0  0.00000000000E+00 -0.00000000000E+00 -0.52254630113E+03  0.52254630113E+03  0.00000000000E+00 0. -1.
         25    2    1    2    0    0 -0.90639977526E+01  0.28863772928E+03  0.11533106980E+03  0.33517245835E+03  0.12508167873E+03 0.  0.
          5    1    3    3  502    0 -0.46034491361E+02  0.12899255479E+03  0.10178089426E+03  0.17069000095E+03  0.41800000000E+01 0. -1.
         -5    1    3    3    0  502  0.36970493608E+02  0.15964517449E+03  0.13550175535E+02  0.16448245740E+03  0.41800000000E+01 0. -1.
        -11    1    1    2    0    0  0.43773065490E+02 -0.80026315638E+02 -0.10343825946E+03  0.13791216762E+03  0.00000000000E+00 0.  1.
         11    1    1    2    0    0 -0.34709067737E+02 -0.20861141364E+03 -0.25365326963E+03  0.33024751699E+03  0.00000000000E+00 0. -1.
</event>
<event>
 7    1  0.2810263E-009  0.6140559E+02  0.7561462E-02  0.1392026E+00
         -2   -1    0    0    0  501 -0.00000000000E+00  0.00000000000E+00  0.43063225043E+02  0.43063225043E+02  0.00000000000E+00 0.  1.
          2   -1    0    0  501    0  0.00000000000E+00 -0.00000000000E+00 -0.29372635841E+03  0.29372635841E+03  0.00000000000E+00 0. -1.
         25    2    1    2    0    0  0.11157263400E+02 -0.43455925570E+02 -0.11222110665E+03  0.17394016880E+03  0.12509477827E+03 0.  0.
          5    1    3    3  502    0  0.18675740524E+02  0.56071380879E+01  0.22642030639E+02  0.30172126759E+02  0.41800000000E+01 0.  1.
         -5    1    3    3    0  502 -0.75184771246E+01 -0.49063063658E+02 -0.13486313729E+03  0.14376804204E+03  0.41800000000E+01 0.  1.
        -11    1    1    2    0    0  0.62127630420E+01  0.31166033629E+02 -0.10978608332E+02  0.33622164084E+02  0.00000000000E+00 0.  1.
         11    1    1    2    0    0 -0.17370026442E+02  0.12289891941E+02 -0.12746341838E+03  0.12922725056E+03  0.00000000000E+00 0. -1.
</event>
<event>
 7    1  0.2810263E-009  0.1148363E+03  0.7561462E-02  0.1251867E+00
          3   -1    0    0  501    0  0.00000000000E+00  0.00000000000E+00  0.47643102990E+03  0.47643102990E+03  0.00000000000E+00 0. -1.
         -3   -1    0    0    0  501 -0.00000000000E+00 -0.00000000000E+00 -0.33690803648E+02  0.33690803648E+02  0.00000000000E+00 0.  1.
         25    2    1    2    0    0  0.11353760535E+02  0.46876435268E+02  0.31241574566E+03  0.33996715963E+03  0.12509102056E+03 0.  0.
          5    1    3    3  502    0  0.65259583190E+02  0.45909729848E+02  0.19242904010E+03  0.20835768372E+03  0.41800000000E+01 0. -1.
         -5    1    3    3    0  502 -0.53905822655E+02  0.96670542033E+00  0.11998670556E+03  0.13160947590E+03  0.41800000000E+01 0. -1.
        -11    1    1    2    0    0 -0.37920138481E+01  0.24060586876E+02  0.77914882907E+02  0.81633450180E+02  0.00000000000E+00 0. -1.
         11    1    1    2    0    0 -0.75617466867E+01 -0.70937022144E+02  0.52409597682E+02  0.88521223742E+02  0.00000000000E+00 0.  1.
</event>
<event>
 7    1  0.2810263E-009  0.9258267E+02  0.7561462E-02  0.1296715E+00
         -1   -1    0    0    0  501 -0.00000000000E+00  0.00000000000E+00  0.59302557550E+02  0.59302557550E+02  0.00000000000E+00 0.  1.
          1   -1    0    0  501    0  0.00000000000E+00 -0.00000000000E+00 -0.22279681714E+03  0.22279681714E+03  0.00000000000E+00 0. -1.
         25    2    1    2    0    0  0.13302113277E+02 -0.72393254667E+01 -0.13574162898E+03  0.18520655235E+03  0.12508526349E+03 0.  0.
          5    1    3    3  502    0 -0.41642255893E+02 -0.25865842711E+02 -0.11209622146E+03  0.12241795032E+03  0.41800000000E+01 0. -1.
         -5    1    3    3    0  502  0.54944369169E+02  0.18626517244E+02 -0.23645407525E+02  0.62788602031E+02  0.41800000000E+01 0. -1.
        -11    1    1    2    0    0  0.26821045388E+02  0.22362895803E+02  0.13454705035E+02  0.37423210338E+02  0.00000000000E+00 0.  1.
         11    1    1    2    0    0 -0.40123158665E+02 -0.15123570336E+02 -0.41207335644E+02  0.59469612003E+02  0.00000000000E+00 0. -1.
</event>
<event>
 7    1  0.2810263E-009  0.2283986E+03  0.7561462E-02  0.1127772E+00
          2   -1    0    0  501    0  0.00000000000E+00  0.00000000000E+00  0.16980003633E+04  0.16980003633E+04  0.00000000000E+00 0.  1.
         -2   -1    0    0    0  501 -0.00000000000E+00 -0.00000000000E+00 -0.33331685011E+02  0.33331685011E+02  0.00000000000E+00 0. -1.
         25    2    1    2    0    0  0.13841817547E+03  0.15866976985E+03  0.81141498454E+03  0.84757147854E+03  0.12508975553E+03 0.  0.
          5    1    3    3  502    0  0.75319955439E+02  0.26246712939E+02  0.14859149506E+03  0.16869763019E+03  0.41800000000E+01 0.  1.
         -5    1    3    3    0  502  0.63098220029E+02  0.13242305691E+03  0.66282348948E+03  0.67887384835E+03  0.41800000000E+01 0.  1.
        -11    1    1    2    0    0 -0.94026215528E+02 -0.37667928300E+02  0.38110529678E+03  0.39433621348E+03  0.00000000000E+00 0.  1.
         11    1    1    2    0    0 -0.44391959939E+02 -0.12100184155E+03  0.47214839697E+03  0.48942435628E+03  0.00000000000E+00 0. -1.
</event>
<event>
 7    1  0.2810263E-009  0.1421860E+03  0.7561462E-02  0.1210417E+00
         -2   -1    0    0    0  501 -0.00000000000E+00  0.00000000000E+00  0.57720314930E+02  0.57720314930E+02  0.00000000000E+00 0.  1.
          2   -1    0    0  501    0  0.00000000000E+00 -0.00000000000E+00 -0.47599930180E+03  0.47599930180E+03  0.00000000000E+00 0. -1.
         25    2    1    2    0    0  0.11212531776E+03  0.34812625236E+02 -0.28864859524E+03  0.33578208286E+03  0.12509032688E+03 0.  0.
          5    1    3    3  502    0  0.32491913424E+02  0.63679351007E+02 -0.20295417541E+03  0.21521768956E+03  0.41800000000E+01 0. -1.
         -5    1    3    3    0  502  0.79633404331E+02 -0.28866725772E+02 -0.85694419834E+02  0.12056439330E+03  0.41800000000E+01 0. -1.
        -11    1    1    2    0    0 -0.38150230659E+02  0.12495382604E+02  0.14425960488E+01  0.40170334441E+02  0.00000000000E+00 0.  1.
         11    1    1    2    0    0 -0.73975087096E+02 -0.47308007839E+02 -0.13107298767E+03  0.15776719943E+03  0.00000000000E+00 0. -1.
</event>
<event>
 7    1  0.2810263E-009  0.1667818E+03  0.7561462E-02  0.1181246E+00
          1   -1    0    0  501    0  0.00000000000E+00  0.00000000000E+00  0.50491499405E+02  0.50491499405E+02  0.00000000000E+00 0. -1.
         -1   -1    0    0    0  501 -0.00000000000E+00 -0.00000000000E+00 -0.71337166368E+03  0.71337166368E+03  0.00000000000E+00 0.  1.
         25    2    1    2    0    0  0.12217014831E+03  0.44939958122E+02 -0.51471705245E+03  0.54545905547E+03  0.12508713818E+03 0.  0.
          5    1    3    3  502    0  0.97059891863E+02 -0.27796290134E+02 -0.33522416167E+03  0.35012278892E+03  0.41800000000E+01 0. -1.
         -5    1    3    3    0  502  0.25110256447E+02  0.72736248256E+02 -0.17949289079E+03  0.19533626656E+03  0.41800000000E+01 0. -1.
        -11    1    1    2    0    0 -0.53799694534E+02  0.23505075740E+02 -0.30771416093E+02  0.66285562274E+02  0.00000000000E+00 0.  1.
         11    1    1    2    0    0 -0.68370453775E+02 -0.68445033862E+02 -0.11739169572E+03  0.15211854533E+03  0.00000000000E+00 0. -1.
</event>
<event>
 7    1  0.2810263E-009  0.1288019E+03  0.7561462E-02  0.1229244E+00
          2   -1    0    0  501    0  0.00000000000E+00  0.00000000000E+00  0.21429470540E+03  0.21429470540E+03  0.00000000000E+00 0. -1.
         -2   -1    0    0    0  501 -0.00000000000E+00 -0.00000000000E+00 -0.10774369489E+03  0.10774369489E+03  0.00000000000E+00 0.  1.
         25    2    1    2    0    0 -0.71482435280E+02  0.62319113861E+02  0.10788045960E+03  0.19047289246E+03  0.12509324000E+03 0.  0.
          5    1    3    3  502    0 -0.35526651441E+02 -0.17080180051E+02 -0.12704574839E+02  0.41626363462E+02  0.41800000000E+01 0.  1.
         -5    1    3    3    0  502 -0.35955783839E+02  0.79399293913E+02  0.12058503444E+03  0.14884652900E+03  0.41800000000E+01 0.  1.
        -11    1    1    2    0    0  0.27941383526E+02 -0.79214620671E+02 -0.80387691321E+01  0.84381863280E+02  0.00000000000E+00 0. -1.
         11    1    1    2    0    0  0.43541051753E+02  0.16895506810E+02  0.67093200470E+01  0.47183644557E+02  0.00000000000E+00 0.  1.
</event>
<event>
 7    1  0.2810263E-009  0.8695431E+02  0.7561462E-02  0.1310400E+00
         -1   -1    0    0    0  501 -0.00000000000E+00  0.00000000000E+00  0.58472873527E+03  0.58472873527E+03  0.00000000000E+00 0.  1.
          1   -1    0    0  501    0  0.00000000000E+00 -0.00000000000E+00 -0.27875314728E+02  0.27875314728E+02  0.00000000000E+00 0. -1.
         25    2    1    2    0    0 -0.40096034849E+02 -0.31746175529E+02  0.44877151021E+03  0.46867752665E+03  0.12508894413E+03 0.  0.
          5    1    3    3  502    0 -0.89586596129E+01  0.31592916628E+02  0.32312314709E+02  0.46259356297E+02  0.41800000000E+01 0. -1.
         -5    1    3    3    0  502 -0.31137375236E+02 -0.63339092158E+02  0.41645919550E+03  0.42241817035E+03  0.41800000000E+01 0. -1.
        -11    1    1    2    0    0  0.94797181540E+01  0.37733700154E+02  0.88413947130E+01  0.39898213545E+02  0.00000000000E+00 0.  1.
         11    1    1    2    0    0  0.30616316695E+02 -0.59875246249E+01  0.99240515628E+02  0.10402830981E+03  0.00000000000E+00 0. -1.
</event>
<event>
 7    1  0.2810263E-009  0.1197943E+03  0.7561462E-02  0.1243437E+00
         -3   -1    0    0    0  501 -0.00000000000E+00  0.00000000000E+00  0.36294225272E+02  0.36294225272E+02  0.00000000000E+00 0.  1.
          3   -1    0    0  501    0  0.00000000000E+00 -0.00000000000E+00 -0.46949822564E+03  0.46949822564E+03  0.00000000000E+00 0. -1.
         25    2    1    2    0    0 -0.64040089929E+02 -0.35272264143E+02 -0.23953285488E+03  0.27993909488E+03  0.12507854548E+03 0.  0.
          5    1    3    3  502    0 -0.49223897253E+02 -0.75374068399E+02 -0.10325744528E+03  0.13705405742E+03  0.41800000000E+01 0.  1.
         -5    1    3    3    0  502 -0.14816192676E+02  0.40101804255E+02 -0.13627540960E+03  0.14288503746E+03  0.41800000000E+01 0.  1.
        -11    1    1    2    0    0 -0.94401297052E+01 -0.14828118808E+02 -0.67059322068E+01  0.18813789703E+02  0.00000000000E+00 0.  1.
         11    1    1    2    0    0  0.73480219634E+02  0.50100382952E+02 -0.18696521329E+03  0.20703956634E+03  0.00000000000E+00 0. -1.
</event>
<event>
 7    1  0.2810263E-009  0.1271283E+03  0.7561462E-02  0.1231780E+00
          2   -1    0    0  501    0  0.00000000000E+00  0.00000000000E+00  0.15359471681E+03  0.15359471681E+03  0.00000000000E+00 0. -1.
         -2   -1    0    0    0  501 -0.00000000000E+00 -0.00000000000E+00 -0.10798005586E+03  0.10798005586E+03  0.00000000000E+00 0.  1.
         25    2    1    2    0    0  0.93008596522E+01  0.66519396142E+02  0.20887013144E+02  0.14350825699E+03  0.12508803481E+03 0.  0.
          5    1    3    3  502    0  0.45057795964E+02  0.88671758090E+02  0.17761110340E+02  0.10112277241E+03  0.41800000000E+01 0.  1.
         -5    1    3    3    0  502 -0.35756936312E+02 -0.22152361949E+02  0.31259028038E+01  0.42385484575E+02  0.41800000000E+01 0.  1.
        -11    1    1    2    0    0  0.28868296143E+02  0.69053130866E+01 -0.50691554956E+01  0.30112426147E+02  0.00000000000E+00 0.  1.
         11    1    1    2    0    0 -0.38169155795E+02 -0.73424709228E+02  0.29796803306E+02  0.87954089539E+02  0.00000000000E+00 0. -1.
</event>
<event>
 7    1  0.2810263E-009  0.1161044E+03  0.7561462E-02  0.1249666E+00
         -1   -1    0    0    0  501 -0.00000000000E+00  0.00000000000E+00  0.28978227714E+02  0.28978227714E+02  0.00000000000E+00 0.  1.
          1   -1    0    0  501    0  0.00000000000E+00 -0.00000000000E+00 -0.97883798814E+03  0.97883798814E+03  0.00000000000E+00 0. -1.
         25    2    1    2    0    0  0.72866167259E+02 -0.82543254407E+02 -0.70526152122E+03  0.72468206640E+03  0.12508963535E+03 0.  0.
          5    1    3    3  502    0  0.41530663802E+02 -0.34678176263E+02 -0.79256155164E+02  0.96054060175E+02  0.41800000000E+01 0. -1.
         -5    1    3    3    0  502  0.31335503457E+02 -0.47865078145E+02 -0.62600536605E+03  0.62862800623E+03  0.41800000000E+01 0. -1.
        -11    1    1    2    0    0 -0.30269225596E+02  0.30878857142E+01 -0.14762422188E+03  0.15072714401E+03  0.00000000000E+00 0. -1.
         11    1    1    2    0    0 -0.42596941663E+02  0.79455368693E+02 -0.96974017327E+02  0.13240700544E+03  0.00000000000E+00 0.  1.
</event>
<event>
 7    1  0.2810263E-009  0.1571495E+03  0.7561462E-02  0.1191953E+00
          4   -1    0    0  501    0  0.00000000000E+00  0.00000000000E+00  0.11710159263E+03  0.11710159263E+03  0.00000000000E+00 0. -1.
         -4   -1    0    0    0  501 -0.00000000000E+00 -0.00000000000E+00 -0.22562650384E+03  0.22562650384E+03  0.00000000000E+00 0.  1.
         25    2    1    2    0    0  0.61518462330E+02  0.10020400560E+03 -0.68223988132E+02  0.18473499608E+03  0.12508853774E+03 0.  0.
          5    1    3    3  502    0 -0.70800105356E+01  0.95183293325E+02 -0.12979840177E+02  0.96415426817E+02  0.41800000000E+01 0.  1.
         -5    1    3    3    0  502  0.68598472866E+02  0.50207122754E+01 -0.55244147955E+02  0.88319569262E+02  0.41800000000E+01 0.  1.
        -11    1    1    2    0    0 -0.85849670571E+02 -0.68157280352E+02 -0.15445699929E+02  0.11069846633E+03  0.00000000000E+00 0.  1.
         11    1    1    2    0    0  0.24331208241E+02 -0.32046725248E+02 -0.24855223151E+02  0.47294634066E+02  0.00000000000E+00 0. -1.
</event>
<event>
 7    1  0.2810263E-009  0.9489530E+02  0.7561462E-02  0.1291412E+00
         -2   -1    0    0    0  501 -0.00000000000E+00  0.00000000000E+00  0.24892709458E+03  0.24892709458E+03  0.00000000000E+00 0.  1.
          2   -1    0    0  501    0  0.00000000000E+00 -0.00000000000E+00 -0.56198770169E+02  0.56198770169E+02  0.00000000000E+00 0. -1.
         25    2    1    2    0    0  0.16948818972E+02 -0.36084543632E+02  0.78289514423E+02  0.15286135353E+03  0.12509192052E+03 0.  0.
          5    1    3    3  502    0  0.33240447941E+02  0.30415684852E+02  0.70574238678E+02  0.83834580152E+02  0.41800000000E+01 0. -1.
         -5    1    3    3    0  502 -0.16291628969E+02 -0.66500228484E+02  0.77152757452E+01  0.69026773376E+02  0.41800000000E+01 0. -1.
        -11    1    1    2    0    0 -0.39384549240E+02  0.36225052208E+02  0.11798246205E+03  0.12955021604E+03  0.00000000000E+00 0.  1.
         11    1    1    2    0    0  0.22435730268E+02 -0.14050857581E+00 -0.35436520617E+01  0.22714295174E+02  0.00000000000E+00 0. -1.
</event>
<event>
 7    1  0.2810263E-009  0.9252937E+02  0.7561462E-02  0.1296840E+00
         -2   -1    0    0    0  501 -0.00000000000E+00  0.00000000000E+00  0.68024679125E+02  0.68024679125E+02  0.00000000000E+00 0.  1.
          2   -1    0    0  501    0  0.00000000000E+00 -0.00000000000E+00 -0.20108596326E+03  0.20108596326E+03  0.00000000000E+00 0. -1.
         25    2    1    2    0    0  0.19019651412E+01 -0.23058390456E+02 -0.11963259409E+03  0.17463222442E+03  0.12509656028E+03 0.  0.
          5    1    3    3  502    0  0.31734781619E+02 -0.66819121581E+02 -0.70009433151E+02  0.10193470706E+03  0.41800000000E+01 0. -1.
         -5    1    3    3    0  502 -0.29832816478E+02  0.43760731125E+02 -0.49623160943E+02  0.72697517355E+02  0.41800000000E+01 0. -1.
        -11    1    1    2    0    0 -0.20532111305E+02  0.31329386594E+02  0.29023410443E+02  0.47386247085E+02  0.00000000000E+00 0.  1.
         11    1    1    2    0    0  0.18630146164E+02 -0.82709961385E+01 -0.42452100483E+02  0.47092170885E+02  0.00000000000E+00 0. -1.
</event>
<event>
 7    1  0.2810263E-009  0.1442056E+03  0.7561462E-02  0.1207779E+00
          2   -1    0    0  501    0  0.00000000000E+00  0.00000000000E+00  0.19965577903E+03  0.19965577903E+03  0.00000000000E+00 0.  1.
         -2   -1    0    0    0  501 -0.00000000000E+00 -0.00000000000E+00 -0.11488243510E+03  0.11488243510E+03  0.00000000000E+00 0. -1.
         25    2    1    2    0    0 -0.99552395927E+02 -0.33878158848E+02  0.50530190966E+02  0.17105201094E+03  0.12508829307E+03 0.  0.
          5    1    3    3  502    0 -0.38987580970E+02 -0.78473793239E+02  0.32874991428E+02  0.93682469847E+02  0.41800000000E+01 0. -1.
         -5    1    3    3    0  502 -0.60564814957E+02  0.44595634391E+02  0.17655199538E+02  0.77369541089E+02  0.41800000000E+01 0. -1.
        -11    1    1    2    0    0  0.38361796228E+02  0.49093678215E+02 -0.14283935114E+02  0.63920634015E+02  0.00000000000E+00 0. -1.
         11    1    1    2    0    0  0.61190599699E+02 -0.15215519367E+02  0.48527088074E+02  0.79565569174E+02  0.00000000000E+00 0.  1.
</event>
<event>
 7    1  0.2810263E-009  0.9050253E+02  0.7561462E-02  0.1301639E+00
         -1   -1    0    0    0  501 -0.00000000000E+00  0.00000000000E+00  0.28137724539E+03  0.28137724539E+03  0.00000000000E+00 0.  1.
          1   -1    0    0  501    0  0.00000000000E+00 -0.00000000000E+00 -0.55513258600E+02  0.55513258600E+02  0.00000000000E+00 0. -1.
         25    2    1    2    0    0 -0.40819013819E+02 -0.37233545488E+02  0.16062269096E+03  0.21095098810E+03  0.12509253268E+03 0.  0.
          5    1    3    3  502    0 -0.59775884196E+02 -0.63554404240E+02  0.15478258958E+03  0.17772856007E+03  0.41800000000E+01 0. -1.
         -5    1    3    3    0  502  0.18956870377E+02  0.26320858752E+02  0.58401013813E+01  0.33222428028E+02  0.41800000000E+01 0. -1.
        -11    1    1    2    0    0  0.80354627023E+01  0.24495847113E+02 -0.20711416023E+02  0.33069289987E+02  0.00000000000E+00 0. -1.
         11    1    1    2    0    0  0.32783551116E+02  0.12737698376E+02  0.85952711859E+02  0.92870225905E+02  0.00000000000E+00 0.  1.
</event>
<event>
 7    1  0.2810263E-009  0.2807485E+03  0.7561462E-02  0.1095281E+00
         -1   -1    0    0    0  501 -0.00000000000E+00  0.00000000000E+00  0.57605104802E+02  0.57605104802E+02  0.00000000000E+00 0.  1.
          1   -1    0    0  501    0  0.00000000000E+00 -0.00000000000E+00 -0.17399885478E+04  0.17399885478E+04  0.00000000000E+00 0. -1.
         25    2    1    2    0    0  0.23995032597E+03 -0.14040348013E+03 -0.11469430492E+04  0.11867666981E+04  0.12509013355E+03 0.  0.
          5    1    3    3  502    0  0.83971733339E+02 -0.29850663616E+02 -0.61617548522E+03  0.62260100795E+03  0.41800000000E+01 0. -1.
         -5    1    3    3    0  502  0.15597859263E+03 -0.11055281651E+03 -0.53076756400E+03  0.56416569020E+03  0.41800000000E+01 0. -1.
        -11    1    1    2    0    0 -0.15616042480E+03  0.68047754972E+02 -0.40730549427E+03  0.44149104282E+03  0.00000000000E+00 0. -1.
         11    1    1    2    0    0 -0.83789901169E+02  0.72355725158E+02 -0.12813489956E+03  0.16933591168E+03  0.00000000000E+00 0.  1.
</event>
<event>
 7    1  0.2810263E-009  0.1164039E+03  0.7561462E-02  0.1249150E+00
          1   -1    0    0  501    0  0.00000000000E+00  0.00000000000E+00  0.45246527948E+03  0.45246527948E+03  0.00000000000E+00 0. -1.
         -1   -1    0    0    0  501 -0.00000000000E+00 -0.00000000000E+00 -0.48671501882E+02  0.48671501882E+02  0.00000000000E+00 0.  1.
         25    2    1    2    0    0  0.69757165362E+02  0.11036413775E+02  0.23987587734E+03  0.27960654623E+03  0.12510603349E+03 0.  0.
          5    1    3    3  502    0  0.21912937876E+02 -0.55975103333E+02  0.11750531191E+03  0.13205438185E+03  0.41800000000E+01 0.  1.
         -5    1    3    3    0  502  0.47844227486E+02  0.67011517108E+02  0.12237056544E+03  0.14755216439E+03  0.41800000000E+01 0.  1.
        -11    1    1    2    0    0 -0.87270823811E+01 -0.25867922877E+02 -0.15530164714E+02  0.31408556428E+02  0.00000000000E+00 0.  1.
         11    1    1    2    0    0 -0.61030082981E+02  0.14831509101E+02  0.17944806497E+03  0.19012167870E+03  0.00000000000E+00 0. -1.
</event>
<event>
 7    1  0.2810263E-009  0.9196542E+02  0.7561462E-02  0.1298161E+00
          1   -1    0    0  501    0  0.00000000000E+00  0.00000000000E+00  0.20553470988E+03  0.20553470988E+03  0.00000000000E+00 0. -1.
         -1   -1    0    0    0  501 -0.00000000000E+00 -0.00000000000E+00 -0.67001437173E+02  0.67001437173E+02  0.00000000000E+00 0.  1.
         25    2    1    2    0    0  0.16272582203E+02 -0.30564788057E+02  0.41637190169E+02  0.13630961657E+03  0.12509057824E+03 0.  0.
          5    1    3    3  502    0 -0.31890067862E+02 -0.27664574214E+02 -0.28476900920E+02  0.51095120909E+02  0.41800000000E+01 0. -1.
         -5    1    3    3    0  502  0.48162650065E+02 -0.29002138433E+01  0.70114091089E+02  0.85214495662E+02  0.41800000000E+01 0. -1.
        -11    1    1    2    0    0  0.21912375160E+02 -0.20031197785E+02  0.46845371230E+02  0.55460705689E+02  0.00000000000E+00 0.  1.
         11    1    1    2    0    0 -0.38184957363E+02  0.50595985842E+02  0.50050711310E+02  0.80765824795E+02  0.00000000000E+00 0. -1.
</event>
<event>
 7    1  0.2810263E-009  0.1735136E+03  0.7561462E-02  0.1174232E+00
         -2   -1    0    0    0  501 -0.00000000000E+00  0.00000000000E+00  0.28282798961E+03  0.28282798961E+03  0.00000000000E+00 0.  1.
          2   -1    0    0  501    0  0.00000000000E+00 -0.00000000000E+00 -0.11917540197E+03  0.11917540197E+03  0.00000000000E+00 0. -1.
         25    2    1    2    0    0 -0.22247615046E+02  0.13845903167E+03  0.36323780398E+02  0.19139473285E+03  0.12508663762E+03 0.  0.
          5    1    3    3  502    0 -0.48474747455E+02  0.51452086538E+01 -0.53476483869E+01  0.49217314598E+02  0.41800000000E+01 0.  1.
         -5    1    3    3    0  502  0.26227132409E+02  0.13331382302E+03  0.41671428785E+02  0.14217741825E+03  0.41800000000E+01 0.  1.
        -11    1    1    2    0    0 -0.22737429690E+02 -0.78912980515E+01  0.41607720692E+02  0.48067304013E+02  0.00000000000E+00 0.  1.
         11    1    1    2    0    0  0.44985044736E+02 -0.13056773362E+03  0.85721086556E+02  0.16254135472E+03  0.00000000000E+00 0. -1.
</event>
<event>
 7    1  0.2810263E-009  0.9854466E+02  0.7561462E-02  0.1283386E+00
          1   -1    0    0  501    0  0.00000000000E+00  0.00000000000E+00  0.28265492677E+02  0.28265492677E+02  0.00000000000E+00 0. -1.
         -1   -1    0    0    0  501 -0.00000000000E+00 -0.00000000000E+00 -0.60383897770E+03  0.60383897770E+03  0.00000000000E+00 0.  1.
         25    2    1    2    0    0  0.60060761770E+02 -0.14934514979E+02 -0.41550833057E+03  0.43831900036E+03  0.12508412555E+03 0.  0.
          5    1    3    3  502    0  0.72889331550E+02  0.10766077884E+02 -0.39720638881E+03  0.40400389949E+03  0.41800000000E+01 0. -1.
         -5    1    3    3    0  502 -0.12828569780E+02 -0.25700592863E+02 -0.18301941755E+02  0.34315100876E+02  0.41800000000E+01 0. -1.
        -11    1    1    2    0    0 -0.88458445884E+01 -0.26784462891E+02 -0.10202691735E+03  0.10585437299E+03  0.00000000000E+00 0. -1.
         11    1    1    2    0    0 -0.51214917181E+02  0.41718977870E+02 -0.58038237108E+02  0.87931097019E+02  0.00000000000E+00 0.  1.
</event>
<event>
 7    1  0.2810263E-009  0.1302319E+03  0.7561462E-02  0.1227112E+00
         -2   -1    0    0    0  501 -0.00000000000E+00  0.00000000000E+00  0.53240690312E+02  0.53240690312E+02  0.00000000000E+00 0.  1.
          2   -1    0    0  501    0  0.00000000000E+00 -0.00000000000E+00 -0.43421572868E+03  0.43421572868E+03  0.00000000000E+00 0. -1.
         25    2    1    2    0    0  0.50063694057E+02  0.87877680768E+02 -0.16145119635E+03  0.22790108727E+03  0.12507420411E+03 0.  0.
          5    1    3    3  502    0  0.71893094999E+02  0.67619273681E+02 -0.46686441232E+02  0.10926151874E+03  0.41800000000E+01 0.  1.
         -5    1    3    3    0  502 -0.21829400942E+02  0.20258407087E+02 -0.11476475512E+03  0.11863956853E+03  0.41800000000E+01 0.  1.
        -11    1    1    2    0    0  0.22524166416E+02 -0.35695545301E+02 -0.36239515218E+02  0.55631038911E+02  0.00000000000E+00 0.  1.
         11    1    1    2    0    0 -0.72587860473E+02 -0.52182135467E+02 -0.18328432679E+03  0.20392429281E+03  0.00000000000E+00 0. -1.
</event>
<event>
 7    1  0.2810263E-009  0.8037950E+02  0.7561462E-02  0.1327978E+00
         -2   -1    0    0    0  501 -0.00000000000E+00  0.00000000000E+00  0.22967116291E+02  0.22967116291E+02  0.00000000000E+00 0. -1.
          2   -1    0    0  501    0  0.00000000000E+00 -0.00000000000E+00 -0.92349050507E+03  0.92349050507E+03  0.00000000000E+00 0.  1.
         25    2    1    2    0    0  0.23347001067E+02  0.21608596893E+02 -0.83598248831E+03  0.84588811437E+03  0.12509183567E+03 0.  0.
          5    1    3    3  502    0  0.12935817760E+02 -0.50436847159E+02 -0.25092083398E+03  0.25630050382E+03  0.41800000000E+01 0.  1.
         -5    1    3    3    0  502  0.10411183306E+02  0.72045444052E+02 -0.58506165433E+03  0.58958761055E+03  0.41800000000E+01 0.  1.
        -11    1    1    2    0    0 -0.21878277869E+02 -0.10258833053E+02 -0.78721616926E+02  0.82346801211E+02  0.00000000000E+00 0.  1.
         11    1    1    2    0    0 -0.14687231981E+01 -0.11349763840E+02  0.14180716453E+02  0.18222705786E+02  0.00000000000E+00 0. -1.
</event>
<event>
 7    1  0.2810263E-009  0.1091198E+03  0.7561462E-02  0.1262209E+00
          1   -1    0    0  501    0  0.00000000000E+00  0.00000000000E+00  0.41321036225E+03  0.41321036225E+03  0.00000000000E+00 0. -1.
         -1   -1    0    0    0  501 -0.00000000000E+00 -0.00000000000E+00 -0.42116248229E+02  0.42116248229E+02  0.00000000000E+00 0.  1.
         25    2    1    2    0    0  0.42253021252E+02 -0.60494257364E+02  0.19150745271E+03  0.24035026055E+03  0.12509304667E+03 0.  0.
          5    1    3    3  502    0  0.80331969271E+02 -0.63071932135E+02  0.16350912448E+03  0.19283153295E+03  0.41800000000E+01 0. -1.
         -5    1    3    3    0  502 -0.38078948019E+02  0.25776747708E+01  0.27998328223E+02  0.47518727600E+02  0.41800000000E+01 0. -1.
        -11    1    1    2    0    0 -0.43211793289E+02  0.46047889378E+02  0.18793722412E+03  0.19826262231E+03  0.00000000000E+00 0. -1.
         11    1    1    2    0    0  0.95877203707E+00  0.14446367986E+02 -0.83505628052E+01  0.16713727621E+02  0.00000000000E+00 0.  1.
</event>
<event>
 7    1  0.2810263E-009  0.1161403E+03  0.7561462E-02  0.1249604E+00
         -2   -1    0    0    0  501 -0.00000000000E+00  0.00000000000E+00  0.35346359762E+03  0.35346359762E+03  0.00000000000E+00 0.  1.
          2   -1    0    0  501    0  0.00000000000E+00 -0.00000000000E+00 -0.64988336423E+02  0.64988336423E+02  0.00000000000E+00 0. -1.
         25    2    1    2    0    0 -0.33522618576E+02 -0.76028127678E+02  0.64452333475E+02  0.16341823397E+03  0.12508946298E+03 0.  0.
          5    1    3    3  502    0 -0.67303908604E+01  0.34212537941E+02  0.25482679669E+02  0.43389345197E+02  0.41800000000E+01 0.  1.
         -5    1    3    3    0  502 -0.26792227715E+02 -0.11024066562E+03  0.38969653806E+02  0.12002888877E+03  0.41800000000E+01 0.  1.
        -11    1    1    2    0    0  0.26382957508E+02  0.48661724648E+02  0.21952454875E+03  0.22639578485E+03  0.00000000000E+00 0.  1.
         11    1    1    2    0    0  0.71396610676E+01  0.27366403030E+02  0.44983789664E+01  0.28637915222E+02  0.00000000000E+00 0. -1.
</event>
<event>
 7    1  0.2810263E-009  0.8197918E+02  0.7561462E-02  0.1323527E+00
          3   -1    0    0  501    0  0.00000000000E+00  0.00000000000E+00  0.37257472288E+02  0.37257472288E+02  0.00000000000E+00 0. -1.
         -3   -1    0    0    0  501 -0.00000000000E+00 -0.00000000000E+00 -0.38455356948E+03  0.38455356948E+03  0.00000000000E+00 0.  1.
         25    2    1    2    0    0 -0.40914765348E+02 -0.12114523107E+02 -0.24168889526E+03  0.27546610275E+03  0.12508905619E+03 0.  0.
          5    1    3    3  502    0  0.25651545840E+01 -0.25280909320E+02 -0.22563874702E+03  0.22710354676E+03  0.41800000000E+01 0.  1.
         -5    1    3    3    0  502 -0.43479919932E+02  0.13166386213E+02 -0.16050148239E+02  0.48362555988E+02  0.41800000000E+01 0.  1.
        -11    1    1    2    0    0  0.19109661065E+02  0.47398976093E+02 -0.27814165253E+02  0.58184790705E+02  0.00000000000E+00 0.  1.
         11    1    1    2    0    0  0.21805104282E+02 -0.35284452986E+02 -0.77793036687E+02  0.88160148322E+02  0.00000000000E+00 0. -1.
</event>
<event>
 7    1  0.2810263E-009  0.1563194E+03  0.7561462E-02  0.1192916E+00
          2   -1    0    0  501    0  0.00000000000E+00  0.00000000000E+00  0.17368097648E+03  0.17368097648E+03  0.00000000000E+00 0.  1.
         -2   -1    0    0    0  501 -0.00000000000E+00 -0.00000000000E+00 -0.27361301230E+03  0.27361301230E+03  0.00000000000E+00 0. -1.
         25    2    1    2    0    0  0.31868417795E+02  0.13787097026E+03  0.76717555344E+02  0.20385566609E+03  0.12509016270E+03 0.  0.
          5    1    3    3  502    0  0.62471364580E+02  0.78446844224E+02  0.90882750996E+02  0.13540208857E+03  0.41800000000E+01 0. -1.
         -5    1    3    3    0  502 -0.30602946785E+02  0.59424126031E+02 -0.14165195652E+02  0.68453577513E+02  0.41800000000E+01 0. -1.
        -11    1    1    2    0    0 -0.20050925869E+02 -0.26147130157E+02 -0.10533477775E+03  0.11036814507E+03  0.00000000000E+00 0. -1.
         11    1    1    2    0    0 -0.11817491926E+02 -0.11172384010E+03 -0.71314813417E+02  0.13307017763E+03  0.00000000000E+00 0.  1.
</event>
<event>
 7    1  0.3144143E-009  0.8805659E+02  0.7561462E-02  0.1307627E+00
          1   -1    0    0  501    0  0.00000000000E+00  0.00000000000E+00  0.39056056979E+03  0.39056056979E+03  0.00000000000E+00 0. -1.
         -1   -1    0    0    0  501 -0.00000000000E+00 -0.00000000000E+00 -0.39982129643E+02  0.39982129643E+02  0.00000000000E+00 0.  1.
         25    2    1    2    0    0  0.17531072663E+02 -0.40801364402E+02  0.27021817048E+03  0.30106268186E+03  0.12509511943E+03 0.  0.
          5    1    3    3  502    0  0.18779008499E+02  0.32839589728E+02  0.26376566095E+02  0.46306429928E+02  0.41800000000E+01 0.  1.
         -5    1    3    3    0  502 -0.12479358356E+01 -0.73640954130E+02  0.24384160439E+03  0.25475625194E+03  0.41800000000E+01 0.  1.
        -11    1    1    2    0    0  0.12462787385E+02 -0.13649712336E+01 -0.15866740798E+02  0.20222207580E+02  0.00000000000E+00 0.  1.
         11    1    1    2    0    0 -0.29993860048E+02  0.42166335636E+02  0.96227010464E+02  0.10925780999E+03  0.00000000000E+00 0. -1.
</event>
<event>
 7    1  0.2810263E-009  0.1754262E+03  0.7561462E-02  0.1172304E+00
          2   -1    0    0  501    0  0.00000000000E+00  0.00000000000E+00  0.41628947466E+02  0.41628947466E+02  0.00000000000E+00 0. -1.
         -2   -1    0    0    0  501 -0.00000000000E+00 -0.00000000000E+00 -0.89699354018E+03  0.89699354018E+03  0.00000000000E+00 0.  1.
         25    2    1    2    0    0  0.12422331465E+03 -0.97111012304E+02 -0.50035437396E+03  0.53931756880E+03  0.12508780863E+03 0.  0.
          5    1    3    3  502    0  0.12583061530E+03 -0.74988782472E+02 -0.26446306399E+03  0.30234888103E+03  0.41800000000E+01 0. -1.
         -5    1    3    3    0  502 -0.16073006513E+01 -0.22122229832E+02 -0.23589130997E+03  0.23696868777E+03  0.41800000000E+01 0. -1.
        -11    1    1    2    0    0 -0.57664442777E+02  0.99652161964E+02 -0.24495029760E+03  0.27065917616E+03  0.00000000000E+00 0.  1.
         11    1    1    2    0    0 -0.66558871868E+02 -0.25411496604E+01 -0.11005992115E+03  0.12864574268E+03  0.00000000000E+00 0. -1.
</event>
<event>
 7    1  0.2810263E-009  0.1834202E+03  0.7561462E-02  0.1164533E+00
          2   -1    0    0  501    0  0.00000000000E+00  0.00000000000E+00  0.37999195511E+02  0.37999195511E+02  0.00000000000E+00 0. -1.
         -2   -1    0    0    0  501 -0.00000000000E+00 -0.00000000000E+00 -0.11282301341E+04  0.11282301341E+04  0.00000000000E+00 0.  1.
         25    2    1    2    0    0  0.93257191503E+02 -0.13280148556E+03 -0.37745353113E+03  0.42947821323E+03  0.12508888497E+03 0.  0.
          5    1    3    3  502    0  0.82403750695E+02 -0.15694889158E+03 -0.31419657962E+03  0.36077734926E+03  0.41800000000E+01 0.  1.
         -5    1    3    3    0  502  0.10853440807E+02  0.24147406025E+02 -0.63256951517E+02  0.68700863970E+02  0.41800000000E+01 0.  1.
        -11    1    1    2    0    0 -0.62480427216E+02  0.78778657823E+02 -0.59630529574E+03  0.60472298322E+03  0.00000000000E+00 0.  1.
         11    1    1    2    0    0 -0.30776764287E+02  0.54022827732E+02 -0.11647211170E+03  0.13202813314E+03  0.00000000000E+00 0. -1.
</event>
<event>
 7    1  0.2810263E-009  0.1053232E+03  0.7561462E-02  0.1269484E+00
          2   -1    0    0  501    0  0.00000000000E+00  0.00000000000E+00  0.10171579706E+04  0.10171579706E+04  0.00000000000E+00 0. -1.
         -2   -1    0    0    0  501 -0.00000000000E+00 -0.00000000000E+00 -0.14650568496E+02  0.14650568496E+02  0.00000000000E+00 0.  1.
         25    2    1    2    0    0  0.24385677637E+02  0.11561522657E+02  0.76652967645E+03  0.77713835252E+03  0.12509174231E+03 0.  0.
          5    1    3    3  502    0 -0.13032595036E+02  0.59488601697E+02  0.50092617951E+03  0.50463179843E+03  0.41800000000E+01 0. -1.
         -5    1    3    3    0  502  0.37418272673E+02 -0.47927079040E+02  0.26560349694E+03  0.27250655409E+03  0.41800000000E+01 0. -1.
        -11    1    1    2    0    0 -0.49117180883E+02  0.15969322861E+02  0.87100009972E+02  0.10126168312E+03  0.00000000000E+00 0.  1.
         11    1    1    2    0    0  0.24731503246E+02 -0.27530845518E+02  0.14887771568E+03  0.15340850346E+03  0.00000000000E+00 0. -1.
</event>
<event>
 7    1  0.2810263E-009  0.1033668E+03  0.7561462E-02  0.1273371E+00
          1   -1    0    0  501    0  0.00000000000E+00  0.00000000000E+00  0.26690545347E+03  0.26690545347E+03  0.00000000000E+00 0. -1.
         -1   -1    0    0    0  501 -0.00000000000E+00 -0.00000000000E+00 -0.48256980745E+02  0.48256980745E+02  0.00000000000E+00 0.  1.
         25    2    1    2    0    0  0.25859726136E+02  0.13183689414E+02  0.15349153158E+03  0.20012218617E+03  0.12508678598E+03 0.  0.
          5    1    3    3  502    0  0.24608585544E+02  0.65917171640E+02  0.59415928065E+02  0.92186663392E+02  0.41800000000E+01 0. -1.
         -5    1    3    3    0  502  0.12511405925E+01 -0.52733482226E+02  0.94075603514E+02  0.10793552278E+03  0.41800000000E+01 0. -1.
        -11    1    1    2    0    0  0.21674097251E+02  0.16547558033E+02  0.50014524947E+02  0.56965260239E+02  0.00000000000E+00 0.  1.
         11    1    1    2    0    0 -0.47533823388E+02 -0.29731247447E+02  0.15142416201E+02  0.58074987809E+02  0.00000000000E+00 0. -1.
</event>
<event>
 7    1  0.2810263E-009  0.1568700E+03  0.7561462E-02  0.1192277E+00
          2   -1    0    0  501    0  0.00000000000E+00  0.00000000000E+00  0.22865441142E+03  0.22865441142E+03  0.00000000000E+00 0. -1.
         -2   -1    0    0    0  501 -0.00000000000E+00 -0.00000000000E+00 -0.10864540872E+03  0.10864540872E+03  0.00000000000E+00 0.  1.
         25    2    1    2    0    0 -0.11262635322E+03 -0.27826182554E+01  0.80317098237E+02  0.18652080621E+03  0.12508691568E+03 0.  0.
          5    1    3    3  502    0 -0.58610482839E+02 -0.63777850051E+02  0.39326092364E+02  0.95219834049E+02  0.41800000000E+01 0. -1.
         -5    1    3    3    0  502 -0.54015870383E+02  0.60995231795E+02  0.40991005873E+02  0.91300972161E+02  0.41800000000E+01 0. -1.
        -11    1    1    2    0    0  0.42589887002E+02  0.46358503371E+02  0.18488879738E+02  0.65611340358E+02  0.00000000000E+00 0.  1.
         11    1    1    2    0    0  0.70036466219E+02 -0.43575885115E+02  0.21203024727E+02  0.85167673572E+02  0.00000000000E+00 0. -1.
</event>
<event>
 7    1  0.2824556E-009  0.1784316E+03  0.7561462E-02  0.1169330E+00
          2   -1    0    0  501    0  0.00000000000E+00  0.00000000000E+00  0.10450828108E+04  0.10450828108E+04  0.00000000000E+00 0. -1.
         -2   -1    0    0    0  501 -0.00000000000E+00 -0.00000000000E+00 -0.35694129161E+02  0.35694129161E+02  0.00000000000E+00 0.  1.
         25    2    1    2    0    0 -0.14142349315E+03 -0.73025103095E+02  0.50508843236E+03  0.54414633149E+03  0.12509050911E+03 0.  0.
          5    1    3    3  502    0 -0.11988400976E+03 -0.17761966387E+02  0.43811213465E+03  0.45458484156E+03  0.41800000000E+01 0. -1.
         -5    1    3    3    0  502 -0.21539483392E+02 -0.55263136708E+02  0.66976297710E+02  0.89561489930E+02  0.41800000000E+01 0. -1.
        -11    1    1    2    0    0  0.40427224689E+02 -0.14039277867E+02  0.67433707920E+02  0.79867182140E+02  0.00000000000E+00 0.  1.
         11    1    1    2    0    0  0.10099626846E+03  0.87064380962E+02  0.43686654132E+03  0.45676342630E+03  0.00000000000E+00 0. -1.
</event>
<event>
 7    1  0.2810263E-009  0.1143765E+03  0.7561462E-02  0.1252673E+00
         -2   -1    0    0    0  501 -0.00000000000E+00  0.00000000000E+00  0.12237715741E+03  0.12237715741E+03  0.00000000000E+00 0.  1.
          2   -1    0    0  501    0  0.00000000000E+00 -0.00000000000E+00 -0.16602726780E+03  0.16602726780E+03  0.00000000000E+00 0. -1.
         25    2    1    2    0    0  0.30990201832E+02 -0.60579639524E+02 -0.53765309253E+01  0.14250694564E+03  0.12509611160E+03 0.  0.
          5    1    3    3  502    0  0.25271502695E+02 -0.73499105549E+02  0.45077445069E+02  0.89945627014E+02  0.41800000000E+01 0.  1.
         -5    1    3    3    0  502  0.57186991369E+01  0.12919466024E+02 -0.50453975995E+02  0.52561318627E+02  0.41800000000E+01 0.  1.
        -11    1    1    2    0    0 -0.27189809360E+02 -0.32869612018E+02 -0.29700242952E+02  0.51978856843E+02  0.00000000000E+00 0. -1.
         11    1    1    2    0    0 -0.38003924721E+01  0.93449251542E+02 -0.85733365106E+01  0.93918622731E+02  0.00000000000E+00 0.  1.
</event>
<event>
 7    1  0.2810263E-009  0.1589104E+03  0.7561462E-02  0.1189932E+00
         -2   -1    0    0    0  501 -0.00000000000E+00  0.00000000000E+00  0.18261390095E+02  0.18261390095E+02  0.00000000000E+00 0.  1.
          2   -1    0    0  501    0  0.00000000000E+00 -0.00000000000E+00 -0.19479205160E+04  0.19479205160E+04  0.00000000000E+00 0. -1.
         25    2    1    2    0    0  0.11404772761E+02 -0.13360901921E+03 -0.14025114566E+04  0.14144493417E+04  0.12508843117E+03 0.  0.
          5    1    3    3  502    0  0.51305871641E+02 -0.13286094181E+03 -0.11447545079E+04  0.11535877418E+04  0.41800000000E+01 0.  1.
         -5    1    3    3    0  502 -0.39901098881E+02 -0.74807740099E+00 -0.25775694873E+03  0.26086159995E+03  0.41800000000E+01 0.  1.
        -11    1    1    2    0    0  0.41388619250E+01  0.49802424907E+02 -0.66062029507E+02  0.82834796113E+02  0.00000000000E+00 0.  1.
         11    1    1    2    0    0 -0.15543634686E+02  0.83806594308E+02 -0.46108563979E+03  0.46889776822E+03  0.00000000000E+00 0. -1.
</event>
<event>
 7    1  0.2810263E-009  0.1100922E+03  0.7561462E-02  0.1260399E+00
          1   -1    0    0  501    0  0.00000000000E+00  0.00000000000E+00  0.15467575617E+03  0.15467575617E+03  0.00000000000E+00 0. -1.
         -1   -1    0    0    0  501 -0.00000000000E+00 -0.00000000000E+00 -0.83609284559E+02  0.83609284559E+02  0.00000000000E+00 0.  1.
         25    2    1    2    0    0 -0.17012152212E+02 -0.15868507854E+02  0.56793309024E+02  0.13934539778E+03  0.12510170689E+03 0.  0.
          5    1    3    3  502    0  0.48933464131E+02 -0.32766682267E+02  0.25878295909E+02  0.64461600801E+02  0.41800000000E+01 0. -1.
         -5    1    3    3    0  502 -0.65945616343E+02  0.16898174413E+02  0.30915013115E+02  0.74883796974E+02  0.41800000000E+01 0. -1.
        -11    1    1    2    0    0  0.40023752770E+02  0.42071218064E+02  0.23850943764E+02  0.62775438618E+02  0.00000000000E+00 0. -1.
         11    1    1    2    0    0 -0.23011600558E+02 -0.26202710210E+02 -0.95777811822E+01  0.36164204332E+02  0.00000000000E+00 0.  1.
</event>
<event>
 7    1  0.2810263E-009  0.1155133E+03  0.7561462E-02  0.1250688E+00
          1   -1    0    0  501    0  0.00000000000E+00  0.00000000000E+00  0.80753573229E+03  0.80753573229E+03  0.00000000000E+00 0. -1.
         -1   -1    0    0    0  501 -0.00000000000E+00 -0.00000000000E+00 -0.29768228153E+02  0.29768228153E+02  0.00000000000E+00 0.  1.
         25    2    1    2    0    0 -0.12030061925E+02  0.80868927019E+02  0.61164394132E+03  0.62963473377E+03  0.12508829388E+03 0.  0.
          5    1    3    3  502    0 -0.35181548628E+02  0.35312133055E+01  0.42175870407E+03  0.42325888968E+03  0.41800000000E+01 0.  1.
         -5    1    3    3    0  502  0.23151486703E+02  0.77337713714E+02  0.18988523725E+03  0.20637584409E+03  0.41800000000E+01 0.  1.
        -11    1    1    2    0    0 -0.29111498421E+02 -0.63638954397E+02  0.58653324029E+02  0.91310504745E+02  0.00000000000E+00 0.  1.
         11    1    1    2    0    0  0.41141560346E+02 -0.17229972623E+02  0.10747023878E+03  0.11635872193E+03  0.00000000000E+00 0. -1.
</event>
<event>
 7    1  0.2810263E-009  0.1051109E+03  0.7561462E-02  0.1269901E+00
         -2   -1    0    0    0  501 -0.00000000000E+00  0.00000000000E+00  0.19715054497E+02  0.19715054497E+02  0.00000000000E+00 0.  1.
          2   -1    0    0  501    0  0.00000000000E+00 -0.00000000000E+00 -0.65546205282E+03  0.65546205282E+03  0.00000000000E+00 0. -1.
         25    2    1    2    0    0 -0.31551939380E+02  0.99978134095E+01 -0.39557936006E+03  0.41620392649E+03  0.12508875717E+03 0.  0.
          5    1    3    3  502    0 -0.61121847589E+02 -0.37783459094E+02 -0.19499542213E+03  0.20785609706E+03  0.41800000000E+01 0. -1.
         -5    1    3    3    0  502  0.29569908210E+02  0.47781272504E+02 -0.20058393793E+03  0.20834782943E+03  0.41800000000E+01 0. -1.
        -11    1    1    2    0    0 -0.21937644166E+02 -0.17263850108E+02 -0.26142938401E+02  0.38245966850E+02  0.00000000000E+00 0.  1.
         11    1    1    2    0    0  0.53489583545E+02  0.72660366984E+01 -0.21402469987E+03  0.22072721398E+03  0.00000000000E+00 0. -1.
</event>
<event>
 7    1  0.2810263E-009  0.1613640E+03  0.7561462E-02  0.1187165E+00
          2   -1    0    0  501    0  0.00000000000E+00  0.00000000000E+00  0.44725614586E+03  0.44725614586E+03  0.00000000000E+00 0. -1.
         -2   -1    0    0    0  501 -0.00000000000E+00 -0.00000000000E+00 -0.90776292345E+02  0.90776292345E+02  0.00000000000E+00 0.  1.
         25    2    1    2    0    0 -0.12957209934E+03  0.67747338491E+02  0.71864805074E+02  0.20540427648E+03  0.12509091010E+03 0.  0.
          5    1    3    3  502    0 -0.13905574626E+03  0.79386086672E+02  0.33011092140E+02  0.16354160305E+03  0.41800000000E+01 0.  1.
         -5    1    3    3    0  502  0.94836469168E+01 -0.11638748180E+02  0.38853712935E+02  0.41862673432E+02  0.41800000000E+01 0.  1.
        -11    1    1    2    0    0  0.68027647829E+02 -0.27179114749E+02  0.55381102964E+02  0.91834262197E+02  0.00000000000E+00 0.  1.
         11    1    1    2    0    0  0.61544451512E+02 -0.40568223743E+02  0.22923394548E+03  0.24079389953E+03  0.00000000000E+00 0. -1.
</event>
<event>
 7    1  0.2810263E-009  0.1754914E+03  0.7561462E-02  0.1172239E+00
          4   -1    0    0  501    0  0.00000000000E+00  0.00000000000E+00  0.70994805260E+03  0.70994805260E+03  0.00000000000E+00 0. -1.
         -4   -1    0    0    0  501 -0.00000000000E+00 -0.00000000000E+00 -0.49784104281E+02  0.49784104281E+02  0.00000000000E+00 0.  1.
         25    2    1    2    0    0 -0.14242322829E+03 -0.65260979664E+02  0.35317890086E+03  0.40611112816E+03  0.12509013142E+03 0.  0.
          5    1    3    3  502    0  0.13965412351E+02 -0.25713749668E+02  0.19354083468E+02  0.35331043163E+02  0.41800000000E+01 0.  1.
         -5    1    3    3    0  502 -0.15638864064E+03 -0.39547229996E+02  0.33382481739E+03  0.37078008499E+03  0.41800000000E+01 0.  1.
        -11    1    1    2    0    0  0.10978722107E+03  0.64667780580E+02  0.16799421628E+03  0.21084879051E+03  0.00000000000E+00 0. -1.
         11    1    1    2    0    0  0.32636007219E+02  0.59319908430E+00  0.13899083118E+03  0.14277223821E+03  0.00000000000E+00 0.  1.
</event>
<event>
 7    1  0.2810263E-009  0.2151382E+03  0.7561462E-02  0.1137560E+00
         -2   -1    0    0    0  501 -0.00000000000E+00  0.00000000000E+00  0.35108199999E+03  0.35108199999E+03  0.00000000000E+00 0.  1.
          2   -1    0    0  501    0  0.00000000000E+00 -0.00000000000E+00 -0.15364784406E+03  0.15364784406E+03  0.00000000000E+00 0. -1.
         25    2    1    2    0    0  0.19463954496E+03 -0.65956117205E+02  0.97147710316E+02  0.25945857604E+03  0.12508522377E+03 0.  0.
          5    1    3    3  502    0  0.11262659940E+03  0.49237904597E+01  0.10027439237E+03  0.15093515419E+03  0.41800000000E+01 0.  1.
         -5    1    3    3    0  502  0.82012945559E+02 -0.70879907665E+02 -0.31266820578E+01  0.10852342185E+03  0.41800000000E+01 0.  1.
        -11    1    1    2    0    0 -0.18250797389E+03  0.71021534418E+02  0.11373004795E+03  0.22646797277E+03  0.00000000000E+00 0.  1.
         11    1    1    2    0    0 -0.12131571070E+02 -0.50654172130E+01 -0.13443602331E+02  0.18803295238E+02  0.00000000000E+00 0. -1.
</event>
<event>
 7    1  0.2810263E-009  0.9539174E+02  0.7561462E-02  0.1290296E+00
         -4   -1    0    0    0  501 -0.00000000000E+00  0.00000000000E+00  0.29008231375E+03  0.29008231375E+03  0.00000000000E+00 0.  1.
          4   -1    0    0  501    0  0.00000000000E+00 -0.00000000000E+00 -0.71297781744E+02  0.71297781744E+02  0.00000000000E+00 0. -1.
         25    2    1    2    0    0 -0.74137264761E+02 -0.11638073492E+02  0.47148588520E+02  0.15330553274E+03  0.12509123945E+03 0.  0.
          5    1    3    3  502    0 -0.62440781946E+02 -0.33637549200E+02  0.83121171830E+02  0.10934778266E+03  0.41800000000E+01 0. -1.
         -5    1    3    3    0  502 -0.11696482815E+02  0.21999475708E+02 -0.35972583310E+02  0.43957750075E+02  0.41800000000E+01 0. -1.
        -11    1    1    2    0    0  0.53296768114E+01 -0.18574045782E+02  0.10766536999E+03  0.10938570531E+03  0.00000000000E+00 0.  1.
         11    1    1    2    0    0  0.68807587950E+02  0.30212119274E+02  0.63970573494E+02  0.98688857444E+02  0.00000000000E+00 0. -1.
</event>
<event>
 7    1  0.2810263E-009  0.1527171E+03  0.7561462E-02  0.1197173E+00
         -1   -1    0    0    0  501 -0.00000000000E+00  0.00000000000E+00  0.18222750601E+03  0.18222750601E+03  0.00000000000E+00 0.  1.
          1   -1    0    0  501    0  0.00000000000E+00 -0.00000000000E+00 -0.14437104998E+03  0.14437104998E+03  0.00000000000E+00 0. -1.
         25    2    1    2    0    0 -0.25631067588E+02  0.10969173477E+03 -0.26843956462E+02  0.17045894521E+03  0.12508567344E+03 0.  0.
          5    1    3    3  502    0 -0.59241063516E+02  0.11580663098E+03 -0.35635744427E+02  0.13493723751E+03  0.41800000000E+01 0. -1.
         -5    1    3    3    0  502  0.33609995927E+02 -0.61148962160E+01  0.87917879649E+01  0.35521707695E+02  0.41800000000E+01 0. -1.
        -11    1    1    2    0    0 -0.31312691471E+02 -0.35294120563E+02  0.31549949189E+02  0.56758778064E+02  0.00000000000E+00 0.  1.
         11    1    1    2    0    0  0.56943759060E+02 -0.74397614205E+02  0.33150463303E+02  0.99380832721E+02  0.00000000000E+00 0. -1.
</event>
<event>
 7    1  0.2810263E-009  0.1505104E+03  0.7561462E-02  0.1199847E+00
         -2   -1    0    0    0  501 -0.00000000000E+00  0.00000000000E+00  0.10135061886E+03  0.10135061886E+03  0.00000000000E+00 0.  1.
          2   -1    0    0  501    0  0.00000000000E+00 -0.00000000000E+00 -0.27820918320E+03  0.27820918320E+03  0.00000000000E+00 0. -1.
         25    2    1    2    0    0 -0.18800992111E+02 -0.12430078945E+03 -0.11569483167E+03  0.21174943117E+03  0.12509342094E+03 0.  0.
          5    1    3    3  502    0  0.50784646456E+02 -0.38762419600E+02 -0.24342616477E+02  0.68495553621E+02  0.41800000000E+01 0.  1.
         -5    1    3    3    0  502 -0.69585638567E+02 -0.85538369855E+02 -0.91352215198E+02  0.14325387755E+03  0.41800000000E+01 0.  1.
        -11    1    1    2    0    0  0.19352150804E+02  0.78654765206E+02  0.11686647958E+02  0.81839205586E+02  0.00000000000E+00 0.  1.
         11    1    1    2    0    0 -0.55115869225E+00  0.45646024249E+02 -0.72850380625E+02  0.85971165299E+02  0.00000000000E+00 0. -1.
</event>
<event>
 7    1  0.2810263E-009  0.8429795E+02  0.7561462E-02  0.1317279E+00
          2   -1    0    0  501    0  0.00000000000E+00  0.00000000000E+00  0.63153048384E+02  0.63153048384E+02  0.00000000000E+00 0. -1.
         -2   -1    0    0    0  501 -0.00000000000E+00 -0.00000000000E+00 -0.24710205985E+03  0.24710205985E+03  0.00000000000E+00 0.  1.
         25    2    1    2    0    0  0.23512190220E+02  0.50428273575E+02 -0.67412439281E+02  0.15260282847E+03  0.12508937774E+03 0.  0.
          5    1    3    3  502    0  0.27502516299E+02  0.51070187721E+02 -0.10206256155E+03  0.11746825676E+03  0.41800000000E+01 0.  1.
         -5    1    3    3    0  502 -0.39903260788E+01 -0.64191414643E+00  0.34650122270E+02  0.35134571711E+02  0.41800000000E+01 0.  1.
        -11    1    1    2    0    0 -0.57490338129E+02 -0.35029693999E+02 -0.87374250487E+02  0.11030175922E+03  0.00000000000E+00 0.  1.
         11    1    1    2    0    0  0.33978147909E+02 -0.15398579576E+02 -0.29162321703E+02  0.47350520540E+02  0.00000000000E+00 0. -1.
</event>
<event>
 7    1  0.2810263E-009  0.1146706E+03  0.7561462E-02  0.1252157E+00
         -2   -1    0    0    0  501 -0.00000000000E+00  0.00000000000E+00  0.23657064454E+03  0.23657064454E+03  0.00000000000E+00 0.  1.
          2   -1    0    0  501    0  0.00000000000E+00 -0.00000000000E+00 -0.89369080379E+02  0.89369080379E+02  0.00000000000E+00 0. -1.
         25    2    1    2    0    0 -0.32974758714E+02 -0.14520501094E+02  0.17937687291E+03  0.22163478647E+03  0.12509091244E+03 0.  0.
          5    1    3    3  502    0 -0.60420704178E+02 -0.54495933137E+02  0.11468821022E+03  0.14068164836E+03  0.41800000000E+01 0. -1.
         -5    1    3    3    0  502  0.27445945465E+02  0.39975432043E+02  0.64688662690E+02  0.80953138111E+02  0.41800000000E+01 0. -1.
        -11    1    1    2    0    0  0.46863787134E+02  0.45455795521E+02 -0.20162190619E+02  0.68329772585E+02  0.00000000000E+00 0.  1.
         11    1    1    2    0    0 -0.13889028421E+02 -0.30935294427E+02 -0.12013118129E+02  0.35975165864E+02  0.00000000000E+00 0. -1.
</event>
<event>
 7    1  0.2810263E-009  0.8608435E+02  0.7561462E-02  0.1312621E+00
          1   -1    0    0  501    0  0.00000000000E+00  0.00000000000E+00  0.25289939834E+02  0.25289939834E+02  0.00000000000E+00 0. -1.
         -1   -1    0    0    0  501 -0.00000000000E+00 -0.00000000000E+00 -0.62591254308E+03  0.62591254308E+03  0.00000000000E+00 0.  1.
         25    2    1    2    0    0 -0.56145868364E+02  0.32784069188E+02 -0.36530187707E+03  0.39156002045E+03  0.12508650805E+03 0.  0.
          5    1    3    3  502    0 -0.15818801612E+02  0.19571969227E+02 -0.18086722037E+01  0.25574208864E+02  0.41800000000E+01 0. -1.
         -5    1    3    3    0  502 -0.40327066752E+02  0.13212099961E+02 -0.36349320487E+03  0.36598581159E+03  0.41800000000E+01 0. -1.
        -11    1    1    2    0    0  0.75497941725E+02 -0.37203389920E+02 -0.21651366775E+03  0.23229765334E+03  0.00000000000E+00 0.  1.
         11    1    1    2    0    0 -0.19352073361E+02  0.44193207313E+01 -0.18807058423E+02  0.27344809117E+02  0.00000000000E+00 0. -1.
</event>
<event>
 7    1  0.2810263E-009  0.9804979E+02  0.7561462E-02  0.1284451E+00
          1   -1    0    0  501    0  0.00000000000E+00  0.00000000000E+00  0.32217731290E+03  0.32217731290E+03  0.00000000000E+00 0. -1.
         -1   -1    0    0    0  501 -0.00000000000E+00 -0.00000000000E+00 -0.51488523373E+02  0.51488523373E+02  0.00000000000E+00 0.  1.
         25    2    1    2    0    0  0.44635192887E+02 -0.34783583119E+02  0.90572116090E+02  0.16448127361E+03  0.12509429666E+03 0.  0.
          5    1    3    3  502    0 -0.12403832143E+02  0.13044378236E+02  0.87960461194E+02  0.89880620764E+02  0.41800000000E+01 0.  1.
         -5    1    3    3    0  502  0.57039025030E+02 -0.47827961355E+02  0.26116548963E+01  0.74600652846E+02  0.41800000000E+01 0.  1.
        -11    1    1    2    0    0 -0.31972755330E+02  0.63823911988E+02  0.14664928261E+03  0.16310046264E+03  0.00000000000E+00 0. -1.
         11    1    1    2    0    0 -0.12662437558E+02 -0.29040328869E+02  0.33467390826E+02  0.46084100017E+02  0.00000000000E+00 0.  1.
</event>
<event>
 7    1  0.2810263E-009  0.1069060E+03  0.7561462E-02  0.1266409E+00
          4   -1    0    0  501    0  0.00000000000E+00  0.00000000000E+00  0.69106021784E+03  0.69106021784E+03  0.00000000000E+00 0. -1.
         -4   -1    0    0    0  501 -0.00000000000E+00 -0.00000000000E+00 -0.18953865278E+02  0.18953865278E+02  0.00000000000E+00 0.  1.
         25    2    1    2    0    0  0.14294523681E+02 -0.27377602104E+02  0.32443695235E+03  0.34908097132E+03  0.12507726407E+03 0.  0.
          5    1    3    3  502    0  0.64323879980E+02 -0.31624478322E+02  0.24238010654E+03  0.25279093657E+03  0.41800000000E+01 0. -1.
         -5    1    3    3    0  502 -0.50029356299E+02  0.42468762186E+01  0.82056845809E+02  0.96290034757E+02  0.41800000000E+01 0. -1.
        -11    1    1    2    0    0  0.25933296408E+02  0.41549523016E+02  0.12573864996E+03  0.13494112353E+03  0.00000000000E+00 0. -1.
         11    1    1    2    0    0 -0.40227820089E+02 -0.14171920912E+02  0.22193075025E+03  0.22599198826E+03  0.00000000000E+00 0.  1.
</event>
<event>
 7    1  0.2810263E-009  0.1647339E+03  0.7561462E-02  0.1183453E+00
          1   -1    0    0  501    0  0.00000000000E+00  0.00000000000E+00  0.23906893317E+03  0.23906893317E+03  0.00000000000E+00 0. -1.
         -1   -1    0    0    0  501 -0.00000000000E+00 -0.00000000000E+00 -0.17787887704E+03  0.17787887704E+03  0.00000000000E+00 0.  1.
         25    2    1    2    0    0  0.99488702438E+02  0.10498202646E+03  0.12758656810E+03  0.22987918388E+03  0.12508748550E+03 0.  0.
          5    1    3    3  502    0  0.52409317590E+02 -0.13807204746E+02  0.72634139498E+02  0.90722467414E+02  0.41800000000E+01 0. -1.
         -5    1    3    3    0  502  0.47079384847E+02  0.11878923120E+03  0.54952428598E+02  0.13915671646E+03  0.41800000000E+01 0. -1.
        -11    1    1    2    0    0 -0.58960657777E+02 -0.80945925554E+02 -0.89753363666E+02  0.13447776143E+03  0.00000000000E+00 0.  1.
         11    1    1    2    0    0 -0.40528044661E+02 -0.24036100903E+02  0.23356851702E+02  0.52590864911E+02  0.00000000000E+00 0. -1.
</event>
<event>
 7    1  0.2810263E-009  0.9997858E+02  0.7561462E-02  0.1280341E+00
          2   -1    0    0  501    0  0.00000000000E+00  0.00000000000E+00  0.54537757248E+03  0.54537757248E+03  0.00000000000E+00 0. -1.
         -2   -1    0    0    0  501 -0.00000000000E+00 -0.00000000000E+00 -0.37091247464E+02  0.37091247464E+02  0.00000000000E+00 0.  1.
         25    2    1    2    0    0 -0.16688739981E+02  0.26209772257E+02  0.99862246600E+02  0.16305050430E+03  0.12509009734E+03 0.  0.
          5    1    3    3  502    0 -0.25280691431E+02 -0.36616233853E+02  0.87583060337E+02  0.98326633212E+02  0.41800000000E+01 0. -1.
         -5    1    3    3    0  502  0.85919514494E+01  0.62826006109E+02  0.12279186262E+02  0.64723871088E+02  0.41800000000E+01 0. -1.
        -11    1    1    2    0    0  0.40585155365E+01  0.31947492706E+02  0.92711090706E+02  0.98145097577E+02  0.00000000000E+00 0.  1.
         11    1    1    2    0    0  0.12630224445E+02 -0.58157264963E+02  0.31571298771E+03  0.32127321807E+03  0.00000000000E+00 0. -1.
</event>
<event>
 7    1  0.3472385E-009  0.1429457E+03  0.7561462E-02  0.1209419E+00
         -1   -1    0    0    0  501 -0.00000000000E+00  0.00000000000E+00  0.11329778248E+02  0.11329778248E+02  0.00000000000E+00 0.  1.
          1   -1    0    0  501    0  0.00000000000E+00 -0.00000000000E+00 -0.19117039596E+04  0.19117039596E+04  0.00000000000E+00 0. -1.
         25    2    1    2    0    0 -0.80333582244E+02 -0.49507803338E+02 -0.12260903297E+04  0.12360623939E+04  0.12509291784E+03 0.  0.
          5    1    3    3  502    0  0.74837491434E+01  0.34211416496E+02 -0.28494504636E+03  0.28711945138E+03  0.41800000000E+01 0.  1.
         -5    1    3    3    0  502 -0.87817331388E+02 -0.83719219834E+02 -0.94114528335E+03  0.94894294256E+03  0.41800000000E+01 0.  1.
        -11    1    1    2    0    0  0.19238374526E+00 -0.21888688373E+02 -0.74085240272E+02  0.77251372262E+02  0.00000000000E+00 0.  1.
         11    1    1    2    0    0  0.80141198499E+02  0.71396491711E+02 -0.60019861141E+03  0.60971997168E+03  0.00000000000E+00 0. -1.
</event>
<event>
 7    1  0.2810263E-009  0.1197984E+03  0.7561462E-02  0.1243430E+00
         -1   -1    0    0    0  501 -0.00000000000E+00  0.00000000000E+00  0.17399668345E+03  0.17399668345E+03  0.00000000000E+00 0.  1.
          1   -1    0    0  501    0  0.00000000000E+00 -0.00000000000E+00 -0.12114158764E+03  0.12114158764E+03  0.00000000000E+00 0. -1.
         25    2    1    2    0    0  0.78896131175E+02 -0.61454589664E+02  0.26084181707E+02  0.16225239354E+03  0.12507673072E+03 0.  0.
          5    1    3    3  502    0  0.36282879484E+02 -0.21833964684E+01  0.68544797607E+02  0.77698624459E+02  0.41800000000E+01 0.  1.
         -5    1    3    3    0  502  0.42613251691E+02 -0.59271193196E+02 -0.42460615900E+02  0.84553769077E+02  0.41800000000E+01 0.  1.
        -11    1    1    2    0    0 -0.81593774495E+02  0.14518052287E+02  0.21192890374E+02  0.85542132782E+02  0.00000000000E+00 0.  1.
         11    1    1    2    0    0  0.26976433197E+01  0.46936537377E+02  0.55780237315E+01  0.47343744773E+02  0.00000000000E+00 0. -1.
</event>
<event>
 7    1  0.2810263E-009  0.8285048E+02  0.7561462E-02  0.1321151E+00
         -3   -1    0    0    0  501 -0.00000000000E+00  0.00000000000E+00  0.13373510196E+03  0.13373510196E+03  0.00000000000E+00 0.  1.
          3   -1    0    0  501    0  0.00000000000E+00 -0.00000000000E+00 -0.14715013687E+03  0.14715013687E+03  0.00000000000E+00 0. -1.
         25    2    1    2    0    0  0.28658747055E+02 -0.12167973985E+01  0.76706980039E+02  0.14951479698E+03  0.12509160384E+03 0.  0.
          5    1    3    3  502    0 -0.14055561559E+02 -0.25003159983E+02  0.93313477184E+02  0.97711791735E+02  0.41800000000E+01 0.  1.
         -5    1    3    3    0  502  0.42714308613E+02  0.23786362584E+02 -0.16606497145E+02  0.51803005248E+02  0.41800000000E+01 0.  1.
        -11    1    1    2    0    0  0.13419451905E+02  0.32533786749E+02 -0.63376575373E+02  0.72492201482E+02  0.00000000000E+00 0.  1.
         11    1    1    2    0    0 -0.42078198959E+02 -0.31316989351E+02 -0.26745439583E+02  0.58878240362E+02  0.00000000000E+00 0. -1.
</event>
<event>
 7    1  0.2810263E-009  0.8237934E+02  0.7561462E-02  0.1322432E+00
          1   -1    0    0  501    0  0.00000000000E+00  0.00000000000E+00  0.51427775509E+03  0.51427775509E+03  0.00000000000E+00 0. -1.
         -1   -1    0    0    0  501 -0.00000000000E+00 -0.00000000000E+00 -0.30285439518E+02  0.30285439518E+02  0.00000000000E+00 0.  1.
         25    2    1    2    0    0 -0.17151225976E+02 -0.33575886792E+02  0.37013457701E+03  0.39251488472E+03  0.12508726912E+03 0.  0.
          5    1    3    3  502    0  0.26276231395E+02  0.89214214636E+01  0.14281793900E+02  0.31487682262E+02  0.41800000000E+01 0. -1.
         -5    1    3    3    0  502 -0.43427457370E+02 -0.42497308256E+02  0.35585278311E+03  0.36102720246E+03  0.41800000000E+01 0. -1.
        -11    1    1    2    0    0  0.13787963738E+02  0.53672348183E+02  0.11879366122E+03  0.13108303799E+03  0.00000000000E+00 0. -1.
         11    1    1    2    0    0  0.33632622376E+01 -0.20096461390E+02 -0.49359226592E+01  0.20965271899E+02  0.00000000000E+00 0.  1.
</event>
<event>
 7    1  0.2810263E-009  0.1106231E+03  0.7561462E-02  0.1259420E+00
         -1   -1    0    0    0  501 -0.00000000000E+00  0.00000000000E+00  0.86206506261E+02  0.86206506261E+02  0.00000000000E+00 0.  1.
          1   -1    0    0  501    0  0.00000000000E+00 -0.00000000000E+00 -0.29618315388E+03  0.29618315388E+03  0.00000000000E+00 0. -1.
         25    2    1    2    0    0  0.82693770580E+02  0.11796103513E+02 -0.15391844532E+02  0.15119212496E+03  0.12507894316E+03 0.  0.
          5    1    3    3  502    0  0.22700781719E+02  0.26498718631E+02  0.50018297994E+02  0.61129453735E+02  0.41800000000E+01 0.  1.
         -5    1    3    3    0  502  0.59992988860E+02 -0.14702615119E+02 -0.65410142526E+02  0.90062671230E+02  0.41800000000E+01 0.  1.
        -11    1    1    2    0    0 -0.96267820713E+02 -0.30589853857E+02 -0.14832187315E+03  0.17945085823E+03  0.00000000000E+00 0.  1.
         11    1    1    2    0    0  0.13574050133E+02  0.18793750344E+02 -0.46262929930E+02  0.51746676944E+02  0.00000000000E+00 0. -1.
</event>
<event>
 7    1  0.2810263E-009  0.1219492E+03  0.7561462E-02  0.1239916E+00
          2   -1    0    0  501    0  0.00000000000E+00  0.00000000000E+00  0.37491416651E+03  0.37491416651E+03  0.00000000000E+00 0. -1.
         -2   -1    0    0    0  501 -0.00000000000E+00 -0.00000000000E+00 -0.49526522372E+02  0.49526522372E+02  0.00000000000E+00 0.  1.
         25    2    1    2    0    0  0.77788372968E+02  0.17928587094E+02  0.22267142972E+03  0.26758618192E+03  0.12508930385E+03 0.  0.
          5    1    3    3  502    0  0.63383292653E+02  0.65334271343E+02  0.18126683686E+03  0.20288210208E+03  0.41800000000E+01 0.  1.
         -5    1    3    3    0  502  0.14405080315E+02 -0.47405684248E+02  0.41404592853E+02  0.64704079835E+02  0.41800000000E+01 0.  1.
        -11    1    1    2    0    0 -0.27786159392E+02 -0.39748253338E+02  0.87788143768E+02  0.10029333220E+03  0.00000000000E+00 0. -1.
         11    1    1    2    0    0 -0.50002213577E+02  0.21819666244E+02  0.14928070656E+02  0.56561174767E+02  0.00000000000E+00 0.  1.
</event>
<event>
 7    1  0.2810263E-009  0.1004025E+03  0.7561462E-02  0.1279452E+00
          2   -1    0    0  501    0  0.00000000000E+00  0.00000000000E+00  0.52754972770E+03  0.52754972770E+03  0.00000000000E+00 0. -1.
         -2   -1    0    0    0  501 -0.00000000000E+00 -0.00000000000E+00 -0.25666521865E+02  0.25666521865E+02  0.00000000000E+00 0.  1.
         25    2    1    2    0    0 -0.11058748418E+02 -0.37778820443E+02  0.25247184644E+03  0.28449816691E+03  0.12509052140E+03 0.  0.
          5    1    3    3  502    0  0.44112840399E+02 -0.32707203982E+02  0.20220986529E+03  0.20957577604E+03  0.41800000000E+01 0.  1.
         -5    1    3    3    0  502 -0.55171588817E+02 -0.50716164609E+01  0.50261981145E+02  0.74922390877E+02  0.41800000000E+01 0.  1.
        -11    1    1    2    0    0  0.22593006113E+02 -0.20652616054E+02  0.36516077012E+02  0.47648697312E+02  0.00000000000E+00 0.  1.
         11    1    1    2    0    0 -0.11534257696E+02  0.58431436497E+02  0.21289528238E+03  0.22106938534E+03  0.00000000000E+00 0. -1.
</event>
<event>
 7    1  0.3252046E-009  0.8442517E+02  0.7561462E-02  0.1316943E+00
          2   -1    0    0  501    0  0.00000000000E+00  0.00000000000E+00  0.21472798450E+03  0.21472798450E+03  0.00000000000E+00 0. -1.
         -2   -1    0    0    0  501 -0.00000000000E+00 -0.00000000000E+00 -0.82219396304E+02  0.82219396304E+02  0.00000000000E+00 0.  1.
         25    2    1    2    0    0  0.16625404993E+02  0.32505247534E+02  0.14778256521E+03  0.19702804067E+03  0.12508943608E+03 0.  0.
          5    1    3    3  502    0 -0.45046406031E+02 -0.19719728132E+01  0.17089760509E+02  0.48400409992E+02  0.41800000000E+01 0.  1.
         -5    1    3    3    0  502  0.61671811025E+02  0.34477220348E+02  0.13069280471E+03  0.14862763067E+03  0.41800000000E+01 0.  1.
        -11    1    1    2    0    0  0.11188476521E+02 -0.18568867199E+02 -0.49275200712E+02  0.53833356212E+02  0.00000000000E+00 0.  1.
         11    1    1    2    0    0 -0.27813881515E+02 -0.13936380336E+02  0.34001223696E+02  0.46085983928E+02  0.00000000000E+00 0. -1.
</event>
<event>
 7    1  0.2810263E-009  0.6735502E+02  0.7561462E-02  0.1369326E+00
         -2   -1    0    0    0  501 -0.00000000000E+00  0.00000000000E+00  0.11795829342E+03  0.11795829342E+03  0.00000000000E+00 0.  1.
          2   -1    0    0  501    0  0.00000000000E+00 -0.00000000000E+00 -0.12543619077E+03  0.12543619077E+03  0.00000000000E+00 0. -1.
         25    2    1    2    0    0  0.14242003639E+02 -0.20372496510E+01  0.49600398594E+02  0.13532973837E+03  0.12508778314E+03 0.  0.
          5    1    3    3  502    0  0.16778367698E+02 -0.21182306389E+02 -0.37278792755E+02  0.46231856072E+02  0.41800000000E+01 0. -1.
         -5    1    3    3    0  502 -0.25363640585E+01  0.19145056738E+02  0.86879191349E+02  0.89097882296E+02  0.41800000000E+01 0. -1.
        -11    1    1    2    0    0 -0.13434836900E+02 -0.41726321810E+02 -0.44631610318E+02  0.62558463967E+02  0.00000000000E+00 0.  1.
         11    1    1    2    0    0 -0.80716673940E+00  0.43763571461E+02 -0.12446685631E+02  0.45506281856E+02  0.00000000000E+00 0. -1.
</event>
<event>
 7    1  0.2810263E-009  0.2105168E+03  0.7561462E-02  0.1141157E+00
          2   -1    0    0  501    0  0.00000000000E+00  0.00000000000E+00  0.23564350647E+03  0.23564350647E+03  0.00000000000E+00 0. -1.
         -2   -1    0    0    0  501 -0.00000000000E+00 -0.00000000000E+00 -0.22728321937E+03  0.22728321937E+03  0.00000000000E+00 0.  1.
         25    2    1    2    0    0  0.19684667960E+03 -0.37917256719E+02  0.37623710333E+02  0.23927034003E+03  0.12509363858E+03 0.  0.
          5    1    3    3  502    0  0.72521734288E+02 -0.59953467063E+02 -0.26155339628E+02  0.97751697418E+02  0.41800000000E+01 0. -1.
         -5    1    3    3    0  502  0.12432494531E+03  0.22036210344E+02  0.63779049961E+02  0.14151864262E+03  0.41800000000E+01 0. -1.
        -11    1    1    2    0    0 -0.70574257001E+02  0.15757371314E+02  0.34900849329E+02  0.80293771775E+02  0.00000000000E+00 0. -1.
         11    1    1    2    0    0 -0.12627242260E+03  0.22159885405E+02 -0.64164272562E+02  0.14336261404E+03  0.00000000000E+00 0.  1.
</event>
<event>
 7    1  0.2810263E-009  0.1112336E+03  0.7561462E-02  0.1258302E+00
          2   -1    0    0  501    0  0.00000000000E+00  0.00000000000E+00  0.30960277092E+03  0.30960277092E+03  0.00000000000E+00 0.  1.
         -2   -1    0    0    0  501 -0.00000000000E+00 -0.00000000000E+00 -0.56807263676E+02  0.56807263676E+02  0.00000000000E+00 0. -1.
         25    2    1    2    0    0  0.92141400214E+01  0.77364146582E+02  0.14386021508E+03  0.20594487395E+03  0.12508964013E+03 0.  0.
          5    1    3    3  502    0  0.11983960981E+02 -0.27563196341E+02  0.33805348946E+01  0.30532696073E+02  0.41800000000E+01 0. -1.
         -5    1    3    3    0  502 -0.27698209592E+01  0.10492734292E+03  0.14047968019E+03  0.17541217787E+03  0.41800000000E+01 0. -1.
        -11    1    1    2    0    0 -0.21185013029E+02 -0.69730261479E+02  0.12138507991E+03  0.14158196131E+03  0.00000000000E+00 0.  1.
         11    1    1    2    0    0  0.11970873008E+02 -0.76338851026E+01 -0.12449787749E+02  0.18883199340E+02  0.00000000000E+00 0. -1.
</event>
<event>
 7    1  0.2810263E-009  0.1426748E+03  0.7561462E-02  0.1209774E+00
          2   -1    0    0  501    0  0.00000000000E+00  0.00000000000E+00  0.10848231356E+03  0.10848231356E+03  0.00000000000E+00 0. -1.
         -2   -1    0    0    0  501 -0.00000000000E+00 -0.00000000000E+00 -0.26853468168E+03  0.26853468168E+03  0.00000000000E+00 0.  1.
         25    2    1    2    0    0  0.41449657253E+02 -0.12443509320E+03 -0.88095125720E+02  0.20151844548E+03  0.12508703445E+03 0.  0.
          5    1    3    3  502    0  0.51066237909E+01 -0.99864131809E+02  0.32114789644E+01  0.10013345308E+03  0.41800000000E+01 0.  1.
         -5    1    3    3    0  502  0.36343033462E+02 -0.24570961389E+02 -0.91306604685E+02  0.10138499240E+03  0.41800000000E+01 0.  1.
        -11    1    1    2    0    0 -0.33900138367E+02  0.26644654562E+02 -0.63899987006E+02  0.77086739050E+02  0.00000000000E+00 0.  1.
         11    1    1    2    0    0 -0.75495188862E+01  0.97790438636E+02 -0.80572553897E+01  0.98411810716E+02  0.00000000000E+00 0. -1.
</event>
<event>
 7    1  0.2810263E-009  0.1392252E+03  0.7561462E-02  0.1214375E+00
         -2   -1    0    0    0  501 -0.00000000000E+00  0.00000000000E+00  0.69179907988E+03  0.69179907988E+03  0.00000000000E+00 0.  1.
          2   -1    0    0  501    0  0.00000000000E+00 -0.00000000000E+00 -0.40524395350E+02  0.40524395350E+02  0.00000000000E+00 0. -1.
         25    2    1    2    0    0  0.18365174796E+02 -0.10625319269E+03  0.49462589123E+03  0.52146854951E+03  0.12509058816E+03 0.  0.
          5    1    3    3  502    0  0.57991968795E+02 -0.10411263530E+03  0.30074218950E+03  0.32352101357E+03  0.41800000000E+01 0. -1.
         -5    1    3    3    0  502 -0.39626793999E+02 -0.21405573914E+01  0.19388370173E+03  0.19794753594E+03  0.41800000000E+01 0. -1.
        -11    1    1    2    0    0 -0.29966871912E+02  0.30851297365E+02  0.11746474098E+03  0.12509109215E+03  0.00000000000E+00 0. -1.
         11    1    1    2    0    0  0.11601697116E+02  0.75401895321E+02  0.39184052326E+02  0.85763833582E+02  0.00000000000E+00 0.  1.
</event>
<event>
 7    1  0.2810263E-009  0.1137944E+03  0.7561462E-02  0.1253700E+00
          1   -1    0    0  501    0  0.00000000000E+00  0.00000000000E+00  0.59123339645E+03  0.59123339645E+03  0.00000000000E+00 0. -1.
         -1   -1    0    0    0  501 -0.00000000000E+00 -0.00000000000E+00 -0.28254291294E+02  0.28254291294E+02  0.00000000000E+00 0.  1.
         25    2    1    2    0    0  0.36511313858E+02 -0.17721155196E+02  0.17618990388E+03  0.21986711773E+03  0.12510616231E+03 0.  0.
          5    1    3    3  502    0 -0.46758938397E+02 -0.69067536925E+01  0.63426088002E+02  0.79211379269E+02  0.41800000000E+01 0. -1.
         -5    1    3    3    0  502  0.83270252254E+02 -0.10814401504E+02  0.11276381588E+03  0.14065573846E+03  0.41800000000E+01 0. -1.
        -11    1    1    2    0    0 -0.16582781466E+01  0.49123448731E+02  0.13911961022E+03  0.14754704013E+03  0.00000000000E+00 0.  1.
         11    1    1    2    0    0 -0.34853035711E+02 -0.31402293534E+02  0.24766959106E+03  0.25207352989E+03  0.00000000000E+00 0. -1.
</event>
<event>
 7    1  0.2810263E-009  0.1967427E+03  0.7561462E-02  0.1152517E+00
          3   -1    0    0  501    0  0.00000000000E+00  0.00000000000E+00  0.56090021911E+03  0.56090021911E+03  0.00000000000E+00 0. -1.
         -3   -1    0    0    0  501 -0.00000000000E+00 -0.00000000000E+00 -0.99686830900E+02  0.99686830900E+02  0.00000000000E+00 0.  1.
         25    2    1    2    0    0  0.28545142719E+02 -0.18606216036E+03  0.37575525984E+03  0.43848998613E+03  0.12508996744E+03 0.  0.
          5    1    3    3  502    0  0.52140197728E+01 -0.54922713132E+02  0.24723429480E+03  0.25334948065E+03  0.41800000000E+01 0. -1.
         -5    1    3    3    0  502  0.23331122946E+02 -0.13113944723E+03  0.12852096503E+03  0.18514050548E+03  0.41800000000E+01 0. -1.
        -11    1    1    2    0    0  0.26672178340E+02  0.34648782982E+02  0.15358966433E+02  0.46344806714E+02  0.00000000000E+00 0. -1.
         11    1    1    2    0    0 -0.55217321058E+02  0.15141337738E+03  0.70099161944E+02  0.17575225717E+03  0.00000000000E+00 0.  1.
</event>
<event>
 7    1  0.4292482E-009  0.8204722E+02  0.7561462E-02  0.1323340E+00
         -2   -1    0    0    0  501 -0.00000000000E+00  0.00000000000E+00  0.85683499108E+02  0.85683499108E+02  0.00000000000E+00 0.  1.
          2   -1    0    0  501    0  0.00000000000E+00 -0.00000000000E+00 -0.17075525222E+03  0.17075525222E+03  0.00000000000E+00 0. -1.
         25    2    1    2    0    0  0.22721201930E+02 -0.70874182467E+01  0.33188022711E+01  0.12738330094E+03  0.12509598873E+03 0.  0.
          5    1    3    3  502    0  0.51703850329E+02 -0.10541340282E+02  0.49578817161E+02  0.72525440398E+02  0.41800000000E+01 0.  1.
         -5    1    3    3    0  502 -0.28982648399E+02  0.34539220356E+01 -0.46260014890E+02  0.54857860542E+02  0.41800000000E+01 0.  1.
        -11    1    1    2    0    0 -0.37584162525E+02 -0.25799136867E+02 -0.16259285839E+02  0.48399680905E+02  0.00000000000E+00 0.  1.
         11    1    1    2    0    0  0.14862960594E+02  0.32886555113E+02 -0.72131269540E+02  0.80655769479E+02  0.00000000000E+00 0. -1.
</event>
<event>
 7    1  0.2810263E-009  0.3726930E+03  0.7561462E-02  0.1053668E+00
          2   -1    0    0  501    0  0.00000000000E+00  0.00000000000E+00  0.17460871375E+04  0.17460871375E+04  0.00000000000E+00 0. -1.
         -2   -1    0    0    0  501 -0.00000000000E+00 -0.00000000000E+00 -0.93460234396E+02  0.93460234396E+02  0.00000000000E+00 0.  1.
         25    2    1    2    0    0  0.26540811352E+03 -0.24491832943E+03  0.50922867532E+03  0.63670055603E+03  0.12508916607E+03 0.  0.
          5    1    3    3  502    0  0.17709765500E+03 -0.23328171909E+03  0.38398785351E+03  0.48295764194E+03  0.41800000000E+01 0.  1.
         -5    1    3    3    0  502  0.88310458528E+02 -0.11636610340E+02  0.12524082181E+03  0.15374291409E+03  0.41800000000E+01 0.  1.
        -11    1    1    2    0    0 -0.21911693121E+03  0.18004245918E+03  0.75849539377E+03  0.80977946320E+03  0.00000000000E+00 0. -1.
         11    1    1    2    0    0 -0.46291182313E+02  0.64875870252E+02  0.38490283402E+03  0.39306735267E+03  0.00000000000E+00 0.  1.
</event>
<event>
 7    1  0.2810263E-009  0.1032219E+03  0.7561462E-02  0.1273663E+00
          3   -1    0    0  501    0  0.00000000000E+00  0.00000000000E+00  0.75067409403E+02  0.75067409403E+02  0.00000000000E+00 0. -1.
         -3   -1    0    0    0  501 -0.00000000000E+00 -0.00000000000E+00 -0.17805034158E+03  0.17805034158E+03  0.00000000000E+00 0.  1.
         25    2    1    2    0    0 -0.17450130580E+02  0.15151151863E+02 -0.91316476379E+02  0.15658840725E+03  0.12508863244E+03 0.  0.
          5    1    3    3  502    0  0.36035972908E+02 -0.24916238203E+02 -0.76118195926E+02  0.87925322977E+02  0.41800000000E+01 0. -1.
         -5    1    3    3    0  502 -0.53486103488E+02  0.40067390066E+02 -0.15198280453E+02  0.68663084272E+02  0.41800000000E+01 0. -1.
        -11    1    1    2    0    0  0.52595360528E+02  0.82672348020E+01 -0.10582383339E+02  0.54282648770E+02  0.00000000000E+00 0.  1.
         11    1    1    2    0    0 -0.35145229948E+02 -0.23418386665E+02 -0.10840724560E+01  0.42246694961E+02  0.00000000000E+00 0. -1.
</event>
<event>
 7    1  0.3878176E-009  0.1352368E+03  0.7561462E-02  0.1219886E+00
         -1   -1    0    0    0  501 -0.00000000000E+00  0.00000000000E+00  0.20354556902E+02  0.20354556902E+02  0.00000000000E+00 0.  1.
          1   -1    0    0  501    0  0.00000000000E+00 -0.00000000000E+00 -0.11746785883E+04  0.11746785883E+04  0.00000000000E+00 0. -1.
         25    2    1    2    0    0 -0.61354118517E+02  0.85495963181E+02 -0.74140947647E+03  0.75921864897E+03  0.12510418683E+03 0.  0.
          5    1    3    3  502    0 -0.84477361984E+02  0.45007576074E+02 -0.64463680795E+03  0.65171787850E+03  0.41800000000E+01 0.  1.
         -5    1    3    3    0  502  0.23123243467E+02  0.40488387106E+02 -0.96772668525E+02  0.10750077047E+03  0.41800000000E+01 0.  1.
        -11    1    1    2    0    0  0.61705585805E+01 -0.70358151285E+02 -0.13817898560E+03  0.15518304452E+03  0.00000000000E+00 0.  1.
         11    1    1    2    0    0  0.55183559936E+02 -0.15137811895E+02 -0.27473556929E+03  0.28063145168E+03  0.00000000000E+00 0. -1.
</event>
<event>
 7    1  0.2810263E-009  0.1343963E+03  0.7561462E-02  0.1221075E+00
         -1   -1    0    0    0  501 -0.00000000000E+00  0.00000000000E+00  0.27667763612E+02  0.27667763612E+02  0.00000000000E+00 0.  1.
          1   -1    0    0  501    0  0.00000000000E+00 -0.00000000000E+00 -0.85230339753E+03  0.85230339753E+03  0.00000000000E+00 0. -1.
         25    2    1    2    0    0  0.16087555443E+02  0.10701989202E+03 -0.44315018558E+03  0.47301293105E+03  0.12508828574E+03 0.  0.
          5    1    3    3  502    0  0.48178003157E+02  0.66656614984E+02 -0.39091276912E+03  0.39949279063E+03  0.41800000000E+01 0.  1.
         -5    1    3    3    0  502 -0.32090447714E+02  0.40363277037E+02 -0.52237416464E+02  0.73520140414E+02  0.41800000000E+01 0.  1.
        -11    1    1    2    0    0 -0.47980436266E+02 -0.78063668254E+02 -0.19347803927E+03  0.21407898133E+03  0.00000000000E+00 0.  1.
         11    1    1    2    0    0  0.31892880823E+02 -0.28956223767E+02 -0.18800740907E+03  0.19287924877E+03  0.00000000000E+00 0. -1.
</event>
<event>
 7    1  0.2810263E-009  0.1103067E+03  0.7561462E-02  0.1260003E+00
         -3   -1    0    0    0  501 -0.00000000000E+00  0.00000000000E+00  0.14844633542E+03  0.14844633542E+03  0.00000000000E+00 0.  1.
          3   -1    0    0  501    0  0.00000000000E+00 -0.00000000000E+00 -0.11045345606E+03  0.11045345606E+03  0.00000000000E+00 0. -1.
         25    2    1    2    0    0 -0.42655390080E+02  0.13344703413E+02 -0.30587198336E+02  0.13631416832E+03  0.12509361443E+03 0.  0.
          5    1    3    3  502    0  0.66901918200E+01 -0.43600106947E+02 -0.40711600528E+02  0.60171711043E+02  0.41800000000E+01 0. -1.
         -5    1    3    3    0  502 -0.49345581900E+02  0.56944810360E+02  0.10124402192E+02  0.76142457274E+02  0.41800000000E+01 0. -1.
        -11    1    1    2    0    0  0.11557347846E+02  0.38602109067E+02  0.34879889900E+02  0.53294482202E+02  0.00000000000E+00 0.  1.
         11    1    1    2    0    0  0.31098042234E+02 -0.51946812480E+02  0.33700187800E+02  0.69291140959E+02  0.00000000000E+00 0. -1.
</event>
<event>
 7    1  0.2810263E-009  0.9547413E+02  0.7561462E-02  0.1290112E+00
         -2   -1    0    0    0  501 -0.00000000000E+00  0.00000000000E+00  0.54369402006E+03  0.54369402006E+03  0.00000000000E+00 0.  1.
          2   -1    0    0  501    0  0.00000000000E+00 -0.00000000000E+00 -0.24700331329E+02  0.24700331329E+02  0.00000000000E+00 0. -1.
         25    2    1    2    0    0  0.23417213261E+02 -0.46709391049E+01  0.38049755736E+03  0.40124372882E+03  0.12509178713E+03 0.  0.
          5    1    3    3  502    0 -0.23631083562E+02 -0.44722665990E+02  0.26859150348E+03  0.27334486113E+03  0.41800000000E+01 0.  1.
         -5    1    3    3    0  502  0.47048296822E+02  0.40051726885E+02  0.11190605388E+03  0.12789886768E+03  0.41800000000E+01 0.  1.
        -11    1    1    2    0    0  0.25262000654E+02 -0.10381260277E+02  0.98954134872E+02  0.10265407956E+03  0.00000000000E+00 0.  1.
         11    1    1    2    0    0 -0.48679213915E+02  0.15052199382E+02  0.39541996495E+02  0.64496543012E+02  0.00000000000E+00 0. -1.
</event>
<event>
 7    1  0.2810263E-009  0.1051831E+03  0.7561462E-02  0.1269759E+00
          3   -1    0    0  501    0  0.00000000000E+00  0.00000000000E+00  0.41923019435E+03  0.41923019435E+03  0.00000000000E+00 0. -1.
         -3   -1    0    0    0  501 -0.00000000000E+00 -0.00000000000E+00 -0.42978502827E+02  0.42978502827E+02  0.00000000000E+00 0.  1.
         25    2    1    2    0    0  0.11520504999E+02 -0.11202389906E+02  0.73815338105E+02  0.14613243133E+03  0.12509103794E+03 0.  0.
          5    1    3    3  502    0 -0.52967051985E+02  0.84131744384E+00  0.57718814157E+02  0.78454766068E+02  0.41800000000E+01 0. -1.
         -5    1    3    3    0  502  0.64487556984E+02 -0.12043707350E+02  0.16096523948E+02  0.67677665265E+02  0.41800000000E+01 0. -1.
        -11    1    1    2    0    0 -0.17755707151E+02 -0.37975138442E+02  0.15256152007E+03  0.15821628767E+03  0.00000000000E+00 0.  1.
         11    1    1    2    0    0  0.62352021523E+01  0.49177528348E+02  0.14987483334E+03  0.15785997818E+03  0.00000000000E+00 0. -1.
</event>
<event>
 7    1  0.2810263E-009  0.7934639E+02  0.7561462E-02  0.1330917E+00
          1   -1    0    0  501    0  0.00000000000E+00  0.00000000000E+00  0.33396342036E+03  0.33396342036E+03  0.00000000000E+00 0. -1.
         -1   -1    0    0    0  501 -0.00000000000E+00 -0.00000000000E+00 -0.38830455234E+02  0.38830455234E+02  0.00000000000E+00 0.  1.
         25    2    1    2    0    0 -0.10187088759E+01 -0.40135408964E+01  0.22364265155E+03  0.25628183382E+03  0.12508875441E+03 0.  0.
          5    1    3    3  502    0 -0.38869079175E+02  0.20624274002E+02  0.21571366720E+02  0.49182946802E+02  0.41800000000E+01 0.  1.
         -5    1    3    3    0  502  0.37850370299E+02 -0.24637814898E+02  0.20207128483E+03  0.20709888702E+03  0.41800000000E+01 0.  1.
        -11    1    1    2    0    0 -0.19568426907E+02 -0.26123273093E+02 -0.37820552766E+01  0.32858068580E+02  0.00000000000E+00 0.  1.
         11    1    1    2    0    0  0.20587135783E+02  0.30136813990E+02  0.75272368857E+02  0.83653973190E+02  0.00000000000E+00 0. -1.
</event>
<event>
 7    1  0.2810263E-009  0.1073252E+03  0.7561462E-02  0.1265605E+00
          1   -1    0    0  501    0  0.00000000000E+00  0.00000000000E+00  0.30711703364E+03  0.30711703364E+03  0.00000000000E+00 0. -1.
         -1   -1    0    0    0  501 -0.00000000000E+00 -0.00000000000E+00 -0.59394030802E+02  0.59394030802E+02  0.00000000000E+00 0.  1.
         25    2    1    2    0    0 -0.58520453441E+02 -0.32021774052E+02  0.74651130727E+02  0.16021912457E+03  0.12508932438E+03 0.  0.
          5    1    3    3  502    0 -0.62435100384E+02  0.31064773253E+02  0.66320415663E+02  0.96327731370E+02  0.41800000000E+01 0.  1.
         -5    1    3    3    0  502  0.39146469428E+01 -0.63086547305E+02  0.83307150640E+01  0.63891393200E+02  0.41800000000E+01 0.  1.
        -11    1    1    2    0    0  0.43773574999E+02 -0.25597235885E+01  0.19153921884E+02  0.47849250534E+02  0.00000000000E+00 0.  1.
         11    1    1    2    0    0  0.14746878442E+02  0.34581497641E+02  0.15391795022E+03  0.15844268933E+03  0.00000000000E+00 0. -1.
</event>
<event>
 7    1  0.2810263E-009  0.1210213E+03  0.7561462E-02  0.1241422E+00
          2   -1    0    0  501    0  0.00000000000E+00  0.00000000000E+00  0.56771556381E+03  0.56771556381E+03  0.00000000000E+00 0. -1.
         -2   -1    0    0    0  501 -0.00000000000E+00 -0.00000000000E+00 -0.35594416650E+02  0.35594416650E+02  0.00000000000E+00 0.  1.
         25    2    1    2    0    0 -0.42677544522E+02 -0.38802548034E+02  0.39577353361E+03  0.41906170612E+03  0.12509601549E+03 0.  0.
          5    1    3    3  502    0  0.44202665094E+02 -0.18715211598E+02  0.15219265783E+03  0.15963775319E+03  0.41800000000E+01 0.  1.
         -5    1    3    3    0  502 -0.86880209616E+02 -0.20087336436E+02  0.24358087578E+03  0.25942395293E+03  0.41800000000E+01 0.  1.
        -11    1    1    2    0    0  0.69876122258E+02  0.29438688242E+02  0.44313686110E+02  0.87823753073E+02  0.00000000000E+00 0.  1.
         11    1    1    2    0    0 -0.27198577736E+02  0.93638597925E+01  0.92033927440E+02  0.96424521265E+02  0.00000000000E+00 0. -1.
</event>
<event>
 7    1  0.6472831E-009  0.1273329E+03  0.7561462E-02  0.1231468E+00
          1   -1    0    0  501    0  0.00000000000E+00  0.00000000000E+00  0.59086622168E+03  0.59086622168E+03  0.00000000000E+00 0. -1.
         -1   -1    0    0    0  501 -0.00000000000E+00 -0.00000000000E+00 -0.37382365742E+02  0.37382365742E+02  0.00000000000E+00 0.  1.
         25    2    1    2    0    0 -0.31223158944E+00 -0.10003755584E+03  0.26803372791E+03  0.31224533025E+03  0.12508979533E+03 0.  0.
          5    1    3    3  502    0 -0.55592735690E+02 -0.27209439067E+02  0.15398343009E+03  0.16600986410E+03  0.41800000000E+01 0. -1.
         -5    1    3    3    0  502  0.55280504101E+02 -0.72828116777E+02  0.11405029783E+03  0.14623546615E+03  0.41800000000E+01 0. -1.
        -11    1    1    2    0    0 -0.70964116016E+01  0.42174894534E+02  0.25944925593E+02  0.50022194580E+02  0.00000000000E+00 0.  1.
         11    1    1    2    0    0  0.74086431910E+01  0.57862661310E+02  0.25950520243E+03  0.26598106259E+03  0.00000000000E+00 0. -1.
</event>
<event>
 7    1  0.2810263E-009  0.9450380E+02  0.7561462E-02  0.1292298E+00
          3   -1    0    0  501    0  0.00000000000E+00  0.00000000000E+00  0.60232008780E+03  0.60232008780E+03  0.00000000000E+00 0. -1.
         -3   -1    0    0    0  501 -0.00000000000E+00 -0.00000000000E+00 -0.19099246032E+02  0.19099246032E+02  0.00000000000E+00 0.  1.
         25    2    1    2    0    0 -0.64711438692E+01  0.50458958593E+01  0.34813984748E+03  0.37002216572E+03  0.12509081882E+03 0.  0.
          5    1    3    3  502    0 -0.52832066022E+02  0.73807632271E+01  0.29289762433E+03  0.29774518233E+03  0.41800000000E+01 0.  1.
         -5    1    3    3    0  502  0.46360922153E+02 -0.23348673678E+01  0.55242223152E+02  0.72276983385E+02  0.41800000000E+01 0.  1.
        -11    1    1    2    0    0  0.45383239797E+02 -0.16562252087E+02  0.13612304656E+03  0.14444178915E+03  0.00000000000E+00 0.  1.
         11    1    1    2    0    0 -0.38912095928E+02  0.11516356228E+02  0.98957947728E+02  0.10695537896E+03  0.00000000000E+00 0. -1.
</event>
<event>
 7    1  0.2810263E-009  0.1294454E+03  0.7561462E-02  0.1228281E+00
         -2   -1    0    0    0  501 -0.00000000000E+00  0.00000000000E+00  0.73293627809E+03  0.73293627809E+03  0.00000000000E+00 0. -1.
          2   -1    0    0  501    0  0.00000000000E+00 -0.00000000000E+00 -0.36047849182E+02  0.36047849182E+02  0.00000000000E+00 0.  1.
         25    2    1    2    0    0  0.89227386025E+02 -0.54314268976E+02  0.51768873300E+03  0.54273471268E+03  0.12509107816E+03 0.  0.
          5    1    3    3  502    0  0.10535932125E+03 -0.58219029701E+02  0.50989479636E+03  0.52392768370E+03  0.41800000000E+01 0. -1.
         -5    1    3    3    0  502 -0.16131935225E+02  0.39047607251E+01  0.77939366416E+01  0.18807028974E+02  0.41800000000E+01 0. -1.
        -11    1    1    2    0    0 -0.17350904440E+02 -0.13902048769E+02  0.88630837680E+00  0.22250986211E+02  0.00000000000E+00 0.  1.
         11    1    1    2    0    0 -0.71876481586E+02  0.68216317745E+02  0.17831338753E+03  0.20399842839E+03  0.00000000000E+00 0. -1.
</event>
<event>
 7    1  0.2810263E-009  0.1582323E+03  0.7561462E-02  0.1190707E+00
          2   -1    0    0  501    0  0.00000000000E+00  0.00000000000E+00  0.41149079769E+03  0.41149079769E+03  0.00000000000E+00 0. -1.
         -2   -1    0    0    0  501 -0.00000000000E+00 -0.00000000000E+00 -0.70381311468E+02  0.70381311468E+02  0.00000000000E+00 0.  1.
         25    2    1    2    0    0  0.11574346164E+03  0.48551532944E+02  0.23446681323E+03  0.29389888629E+03  0.12509224033E+03 0.  0.
          5    1    3    3  502    0  0.49133634564E+01 -0.30657650553E+02  0.89967494919E+02  0.95266233366E+02  0.41800000000E+01 0. -1.
         -5    1    3    3    0  502  0.11083009819E+03  0.79209183497E+02  0.14449931831E+03  0.19863265292E+03  0.41800000000E+01 0. -1.
        -11    1    1    2    0    0 -0.17100445221E+02 -0.47190628311E+02  0.61777632952E+02  0.79598093949E+02  0.00000000000E+00 0. -1.
         11    1    1    2    0    0 -0.98643016423E+02 -0.13609046330E+01  0.44865040038E+02  0.10837512892E+03  0.00000000000E+00 0.  1.
</event>
<event>
 7    1  0.2810263E-009  0.1045317E+03  0.7561462E-02  0.1271045E+00
         -2   -1    0    0    0  501 -0.00000000000E+00  0.00000000000E+00  0.15425226153E+03  0.15425226153E+03  0.00000000000E+00 0.  1.
          2   -1    0    0  501    0  0.00000000000E+00 -0.00000000000E+00 -0.10788835715E+03  0.10788835715E+03  0.00000000000E+00 0. -1.
         25    2    1    2    0    0 -0.59960741081E+02  0.31361055086E+02  0.48000664822E+02  0.15010054853E+03  0.12508918658E+03 0.  0.
          5    1    3    3  502    0 -0.15263711249E+02 -0.22148290848E+02  0.71420410400E+02  0.76432160053E+02  0.41800000000E+01 0. -1.
         -5    1    3    3    0  502 -0.44697029832E+02  0.53509345935E+02 -0.23419745578E+02  0.73668388479E+02  0.41800000000E+01 0. -1.
        -11    1    1    2    0    0  0.39951327734E+02 -0.62976605236E+02  0.18728471265E+00  0.74580134556E+02  0.00000000000E+00 0.  1.
         11    1    1    2    0    0  0.20009413348E+02  0.31615550150E+02 -0.18240451607E+01  0.37459935592E+02  0.00000000000E+00 0. -1.
</event>
<event>
 7    1  0.2810263E-009  0.7696537E+02  0.7561462E-02  0.1337891E+00
         -2   -1    0    0    0  501 -0.00000000000E+00  0.00000000000E+00  0.74139011410E+02  0.74139011410E+02  0.00000000000E+00 0. -1.
          2   -1    0    0  501    0  0.00000000000E+00 -0.00000000000E+00 -0.20723841413E+03  0.20723841413E+03  0.00000000000E+00 0.  1.
         25    2    1    2    0    0  0.13819843634E+02  0.51721283249E+02 -0.47790765674E+02  0.14421508671E+03  0.12509178523E+03 0.  0.
          5    1    3    3  502    0  0.44063575354E+02  0.37618335319E+02  0.25605092585E+02  0.63480949831E+02  0.41800000000E+01 0. -1.
         -5    1    3    3    0  502 -0.30243731720E+02  0.14102947929E+02 -0.73395858259E+02  0.80734136883E+02  0.41800000000E+01 0. -1.
        -11    1    1    2    0    0  0.91172878898E+01 -0.26956592001E+02 -0.97272749865E+02  0.10134974424E+03  0.00000000000E+00 0.  1.
         11    1    1    2    0    0 -0.22937131524E+02 -0.24764691248E+02  0.11964112823E+02  0.35812594584E+02  0.00000000000E+00 0. -1.
</event>
<event>
 7    1  0.2810263E-009  0.1750808E+03  0.7561462E-02  0.1172651E+00
         -1   -1    0    0    0  501 -0.00000000000E+00  0.00000000000E+00  0.29766731095E+02  0.29766731095E+02  0.00000000000E+00 0.  1.
          1   -1    0    0  501    0  0.00000000000E+00 -0.00000000000E+00 -0.10795308292E+04  0.10795308292E+04  0.00000000000E+00 0. -1.
         25    2    1    2    0    0 -0.41139126631E+02  0.13460988280E+03 -0.49876207907E+03  0.53312494455E+03  0.12508535765E+03 0.  0.
          5    1    3    3  502    0  0.40559298472E+02  0.33225985833E+02 -0.91562061985E+02  0.10559406433E+03  0.41800000000E+01 0. -1.
         -5    1    3    3    0  502 -0.81698425103E+02  0.10138389697E+03 -0.40720001709E+03  0.42753088022E+03  0.41800000000E+01 0. -1.
        -11    1    1    2    0    0  0.68275648364E+02 -0.72903843427E+02 -0.29532146106E+03  0.31175519227E+03  0.00000000000E+00 0. -1.
         11    1    1    2    0    0 -0.27136521734E+02 -0.61706039375E+02 -0.25568055793E+03  0.26441742342E+03  0.00000000000E+00 0.  1.
</event>
<event>
 7    1  0.2810263E-009  0.1466786E+03  0.7561462E-02  0.1204615E+00
         -2   -1    0    0    0  501 -0.00000000000E+00  0.00000000000E+00  0.21341202382E+03  0.21341202382E+03  0.00000000000E+00 0.  1.
          2   -1    0    0  501    0  0.00000000000E+00 -0.00000000000E+00 -0.13112183410E+03  0.13112183410E+03  0.00000000000E+00 0. -1.
         25    2    1    2    0    0 -0.10449230985E+03  0.61584306192E+02  0.80762438584E+02  0.19204604730E+03  0.12509133947E+03 0.  0.
          5    1    3    3  502    0 -0.52354578322E+02  0.92493837831E+02  0.24301789576E+02  0.10910619270E+03  0.41800000000E+01 0. -1.
         -5    1    3    3    0  502 -0.52137731525E+02 -0.30909531639E+02  0.56460649009E+02  0.82939854601E+02  0.41800000000E+01 0. -1.
        -11    1    1    2    0    0  0.13598868122E+02 -0.24596434835E+02  0.38461717615E+02  0.47636304881E+02  0.00000000000E+00 0.  1.
         11    1    1    2    0    0  0.90893441725E+02 -0.36987871357E+02 -0.36933966484E+02  0.10485150574E+03  0.00000000000E+00 0. -1.
</event>
<event>
 7    1  0.2810263E-009  0.1226058E+03  0.7561462E-02  0.1238859E+00
          1   -1    0    0  501    0  0.00000000000E+00  0.00000000000E+00  0.79862165584E+02  0.79862165584E+02  0.00000000000E+00 0. -1.
         -1   -1    0    0    0  501 -0.00000000000E+00 -0.00000000000E+00 -0.22818668368E+03  0.22818668368E+03  0.00000000000E+00 0.  1.
         25    2    1    2    0    0  0.24494442372E+02 -0.79613173738E+02 -0.42736560582E+02  0.15623654333E+03  0.12508080877E+03 0.  0.
          5    1    3    3  502    0 -0.40270747500E+02 -0.64406557608E+02  0.17537187298E+01  0.76095240958E+02  0.41800000000E+01 0.  1.
         -5    1    3    3    0  502  0.64765189872E+02 -0.15206616130E+02 -0.44490279312E+02  0.80141302376E+02  0.41800000000E+01 0.  1.
        -11    1    1    2    0    0 -0.41048974019E+02  0.74657776949E+02 -0.63330493877E+02  0.10615815269E+03  0.00000000000E+00 0. -1.
         11    1    1    2    0    0  0.16554531647E+02  0.49553967894E+01 -0.42257463639E+02  0.45654153246E+02  0.00000000000E+00 0.  1.
</event>
<event>
 7    1  0.2875359E-009  0.8580523E+02  0.7561462E-02  0.1313340E+00
         -1   -1    0    0    0  501 -0.00000000000E+00  0.00000000000E+00  0.13545785429E+02  0.13545785429E+02  0.00000000000E+00 0.  1.
          1   -1    0    0  501    0  0.00000000000E+00 -0.00000000000E+00 -0.13523668978E+04  0.13523668978E+04  0.00000000000E+00 0. -1.
         25    2    1    2    0    0 -0.21168887067E+01  0.20986668700E+02 -0.11349650498E+04  0.11420335339E+04  0.12509998672E+03 0.  0.
          5    1    3    3  502    0  0.11422259265E+02  0.56376728281E+02 -0.26362594599E+03  0.26986091843E+03  0.41800000000E+01 0.  1.
         -5    1    3    3    0  502 -0.13539147972E+02 -0.35390059582E+02 -0.87133910384E+03  0.87217261544E+03  0.41800000000E+01 0.  1.
        -11    1    1    2    0    0 -0.34923968914E+02 -0.42945532856E+01 -0.32935429201E+02  0.48196154300E+02  0.00000000000E+00 0.  1.
         11    1    1    2    0    0  0.37040857621E+02 -0.16692115414E+02 -0.17092063335E+03  0.17568299506E+03  0.00000000000E+00 0. -1.
</event>
<event>
 7    1  0.2810263E-009  0.6369956E+02  0.7561462E-02  0.1382931E+00
         -1   -1    0    0    0  501 -0.00000000000E+00  0.00000000000E+00  0.25516263131E+02  0.25516263131E+02  0.00000000000E+00 0.  1.
          1   -1    0    0  501    0  0.00000000000E+00 -0.00000000000E+00 -0.50254461540E+03  0.50254461540E+03  0.00000000000E+00 0. -1.
         25    2    1    2    0    0 -0.33034171825E+02  0.93867497829E+01 -0.22808372826E+03  0.26239015787E+03  0.12508813003E+03 0.  0.
          5    1    3    3  502    0 -0.14368133458E+02 -0.45935949162E+01  0.12876012975E+02  0.20268410975E+02  0.41800000000E+01 0.  1.
         -5    1    3    3    0  502 -0.18666038367E+02  0.13980344699E+02 -0.24095974123E+03  0.24212174690E+03  0.41800000000E+01 0.  1.
        -11    1    1    2    0    0  0.35098340583E+02 -0.42362340261E+02 -0.11179824830E+03  0.12460060075E+03  0.00000000000E+00 0.  1.
         11    1    1    2    0    0 -0.20641687581E+01  0.32975590478E+02 -0.13714637572E+03  0.14107011991E+03  0.00000000000E+00 0. -1.
</event>
<event>
 7    1  0.2810263E-009  0.5403620E+02  0.7561462E-02  0.1424713E+00
          1   -1    0    0  501    0  0.00000000000E+00  0.00000000000E+00  0.34899752545E+03  0.34899752545E+03  0.00000000000E+00 0. -1.
         -1   -1    0    0    0  501 -0.00000000000E+00 -0.00000000000E+00 -0.45157778910E+02  0.45157778910E+02  0.00000000000E+00 0.  1.
         25    2    1    2    0    0  0.31611934454E+02  0.26960876792E+02  0.24537967905E+03  0.27853992380E+03  0.12508836469E+03 0.  0.
          5    1    3    3  502    0  0.74415947437E+01  0.36012566339E+02  0.57097269049E+01  0.37448039307E+02  0.41800000000E+01 0. -1.
         -5    1    3    3    0  502  0.24170339710E+02 -0.90516895471E+01  0.23966995215E+03  0.24109188449E+03  0.41800000000E+01 0. -1.
        -11    1    1    2    0    0 -0.18517972811E+02 -0.47246645900E+01  0.79845400950E+02  0.82100705389E+02  0.00000000000E+00 0. -1.
         11    1    1    2    0    0 -0.13093961643E+02 -0.22236212202E+02 -0.21385333463E+02  0.33514675172E+02  0.00000000000E+00 0.  1.
</event>
<event>
 7    1  0.2810263E-009  0.1296065E+03  0.7561462E-02  0.1228041E+00
         -2   -1    0    0    0  501 -0.00000000000E+00  0.00000000000E+00  0.45113183301E+02  0.45113183301E+02  0.00000000000E+00 0.  1.
          2   -1    0    0  501    0  0.00000000000E+00 -0.00000000000E+00 -0.65432082864E+03  0.65432082864E+03  0.00000000000E+00 0. -1.
         25    2    1    2    0    0 -0.91580047245E+02  0.78774418083E+02 -0.43774655580E+03  0.47102491987E+03  0.12510041576E+03 0.  0.
          5    1    3    3  502    0 -0.10266588855E+02  0.17537236202E+01 -0.26417115586E+03  0.26440943701E+03  0.41800000000E+01 0. -1.
         -5    1    3    3    0  502 -0.81313458390E+02  0.77020694463E+02 -0.17357539994E+03  0.20661548286E+03  0.41800000000E+01 0. -1.
        -11    1    1    2    0    0 -0.70862052371E+01 -0.19646334571E+02  0.12239506822E+01  0.20921061684E+02  0.00000000000E+00 0.  1.
         11    1    1    2    0    0  0.98666252482E+02 -0.59128083512E+02 -0.17268504022E+03  0.20748803039E+03  0.00000000000E+00 0. -1.
</event>
<event>
 7    1  0.2810263E-009  0.7288113E+02  0.7561462E-02  0.1350561E+00
         -1   -1    0    0    0  501 -0.00000000000E+00  0.00000000000E+00  0.11995281097E+03  0.11995281097E+03  0.00000000000E+00 0.  1.
          1   -1    0    0  501    0  0.00000000000E+00 -0.00000000000E+00 -0.10336783425E+03  0.10336783425E+03  0.00000000000E+00 0. -1.
         25    2    1    2    0    0 -0.10953225655E+02 -0.16532100030E+02 -0.42802816497E+01  0.12672371806E+03  0.12508915390E+03 0.  0.
          5    1    3    3  502    0 -0.28203843268E+02 -0.18484144571E+02 -0.59593181133E+02  0.68599854324E+02  0.41800000000E+01 0.  1.
         -5    1    3    3    0  502  0.17250617613E+02  0.19520445410E+01  0.55312899484E+02  0.58123863733E+02  0.41800000000E+01 0.  1.
        -11    1    1    2    0    0 -0.39065644075E+02  0.19807267100E+02  0.53557180899E+01  0.44126365058E+02  0.00000000000E+00 0.  1.
         11    1    1    2    0    0  0.50018869730E+02 -0.32751670697E+01  0.15509540279E+02  0.52470562110E+02  0.00000000000E+00 0. -1.
</event>
<event>
 7    1  0.3222580E-009  0.1490178E+03  0.7561462E-02  0.1201685E+00
         -1   -1    0    0    0  501 -0.00000000000E+00  0.00000000000E+00  0.39528524372E+02  0.39528524372E+02  0.00000000000E+00 0.  1.
          1   -1    0    0  501    0  0.00000000000E+00 -0.00000000000E+00 -0.69457309314E+03  0.69457309314E+03  0.00000000000E+00 0. -1.
         25    2    1    2    0    0 -0.72664515074E+02 -0.98829799290E+02 -0.30243939343E+03  0.34952066889E+03  0.12509056842E+03 0.  0.
          5    1    3    3  502    0  0.45230919125E+01  0.25438526761E+02 -0.26930015578E+02  0.37553630227E+02  0.41800000000E+01 0. -1.
         -5    1    3    3    0  502 -0.77187606986E+02 -0.12426832605E+03 -0.27550937785E+03  0.31196703867E+03  0.41800000000E+01 0. -1.
        -11    1    1    2    0    0  0.38748930801E+02  0.30802909480E+02 -0.26049502897E+03  0.26515648019E+03  0.00000000000E+00 0. -1.
         11    1    1    2    0    0  0.33915584273E+02  0.68026889810E+02 -0.92110146371E+02  0.11942446842E+03  0.00000000000E+00 0.  1.
</event>
<event>
 7    1  0.2810263E-009  0.1101890E+03  0.7561462E-02  0.1260220E+00
         -3   -1    0    0    0  501 -0.00000000000E+00  0.00000000000E+00  0.67058234136E+02  0.67058234136E+02  0.00000000000E+00 0.  1.
          3   -1    0    0  501    0  0.00000000000E+00 -0.00000000000E+00 -0.19238531447E+03  0.19238531447E+03  0.00000000000E+00 0. -1.
         25    2    1    2    0    0 -0.88051691744E+01 -0.31346821291E+02 -0.64200391186E+02  0.14432309652E+03  0.12508921517E+03 0.  0.
          5    1    3    3  502    0  0.29763565448E+02  0.38715453717E+02 -0.27865907502E+02  0.56380292528E+02  0.41800000000E+01 0.  1.
         -5    1    3    3    0  502 -0.38568734622E+02 -0.70062275008E+02 -0.36334483684E+02  0.87942803994E+02  0.41800000000E+01 0.  1.
        -11    1    1    2    0    0  0.19902450939E+02 -0.26070854545E+02 -0.42624071192E+02  0.53782975514E+02  0.00000000000E+00 0. -1.
         11    1    1    2    0    0 -0.11097281765E+02  0.57417675837E+02 -0.18502617958E+02  0.61337476573E+02  0.00000000000E+00 0.  1.
</event>
<event>
 7    1  0.2810263E-009  0.1487908E+03  0.7561462E-02  0.1201967E+00
         -1   -1    0    0    0  501 -0.00000000000E+00  0.00000000000E+00  0.16325427767E+03  0.16325427767E+03  0.00000000000E+00 0.  1.
          1   -1    0    0  501    0  0.00000000000E+00 -0.00000000000E+00 -0.19680712151E+03  0.19680712151E+03  0.00000000000E+00 0. -1.
         25    2    1    2    0    0 -0.47202586059E+02  0.11290602912E+03  0.54451314151E+02  0.18327405027E+03  0.12509426984E+03 0.  0.
          5    1    3    3  502    0 -0.84114824176E+02  0.90955726340E+02  0.63363895154E+02  0.13921459481E+03  0.41800000000E+01 0. -1.
         -5    1    3    3    0  502  0.36912238118E+02  0.21950302783E+02 -0.89125810030E+01  0.44059455458E+02  0.41800000000E+01 0. -1.
        -11    1    1    2    0    0  0.54783351761E+02 -0.81745580254E+02 -0.18344596831E+02  0.10010034842E+03  0.00000000000E+00 0.  1.
         11    1    1    2    0    0 -0.75807657022E+01 -0.31160448868E+02 -0.69659561163E+02  0.76687000487E+02  0.00000000000E+00 0. -1.
</event>
<event>
 7    1  0.2810263E-009  0.1525009E+03  0.7561462E-02  0.1197433E+00
          2   -1    0    0  501    0  0.00000000000E+00  0.00000000000E+00  0.27819114140E+02  0.27819114140E+02  0.00000000000E+00 0.  1.
         -2   -1    0    0    0  501 -0.00000000000E+00 -0.00000000000E+00 -0.94348825986E+03  0.94348825986E+03  0.00000000000E+00 0. -1.
         25    2    1    2    0    0 -0.94681994587E+02 -0.63317706160E+02 -0.37936732359E+03  0.41538040039E+03  0.12508996285E+03 0.  0.
          5    1    3    3  502    0  0.29697914591E+02 -0.30027640455E+01 -0.54010443857E+02  0.61851298843E+02  0.41800000000E+01 0.  1.
         -5    1    3    3    0  502 -0.12437990918E+03 -0.60314942115E+02 -0.32535687974E+03  0.35352910155E+03  0.41800000000E+01 0.  1.
        -11    1    1    2    0    0  0.36858504855E+02 -0.14506892824E+02 -0.77994464586E+02  0.87476487273E+02  0.00000000000E+00 0.  1.
         11    1    1    2    0    0  0.57823489732E+02  0.77824598984E+02 -0.45830735754E+03  0.46845048634E+03  0.00000000000E+00 0. -1.
</event>
<event>
 7    1  0.2810263E-009  0.2112517E+03  0.7561462E-02  0.1140579E+00
         -1   -1    0    0    0  501 -0.00000000000E+00  0.00000000000E+00  0.82043482760E+02  0.82043482760E+02  0.00000000000E+00 0.  1.
          1   -1    0    0  501    0  0.00000000000E+00 -0.00000000000E+00 -0.58573176402E+03  0.58573176402E+03  0.00000000000E+00 0. -1.
         25    2    1    2    0    0  0.59074304527E+02 -0.18261019073E+03 -0.25447301100E+03  0.34240371301E+03  0.12509010407E+03 0.  0.
          5    1    3    3  502    0  0.95428874892E+02 -0.10241126439E+03 -0.17068140948E+03  0.22078123376E+03  0.41800000000E+01 0.  1.
         -5    1    3    3    0  502 -0.36354570366E+02 -0.80198926342E+02 -0.83791601520E+02  0.12162247925E+03  0.41800000000E+01 0.  1.
        -11    1    1    2    0    0 -0.14590550240E+02  0.94333575076E+02 -0.18297891389E+03  0.20638069306E+03  0.00000000000E+00 0. -1.
         11    1    1    2    0    0 -0.44483754287E+02  0.88276615657E+02 -0.66236356370E+02  0.11899084071E+03  0.00000000000E+00 0.  1.
</event>
<event>
 7    1  0.2810263E-009  0.8665950E+02  0.7561462E-02  0.1311149E+00
          1   -1    0    0  501    0  0.00000000000E+00  0.00000000000E+00  0.59738844322E+02  0.59738844322E+02  0.00000000000E+00 0. -1.
         -1   -1    0    0    0  501 -0.00000000000E+00 -0.00000000000E+00 -0.24607382700E+03  0.24607382700E+03  0.00000000000E+00 0.  1.
         25    2    1    2    0    0  0.26943472405E+02  0.35103583776E+02 -0.64047362499E+02  0.14733546917E+03  0.12508982186E+03 0.  0.
          5    1    3    3  502    0 -0.23064924871E+01 -0.15503129121E+02  0.31395208065E+02  0.35338341919E+02  0.41800000000E+01 0. -1.
         -5    1    3    3    0  502  0.29249964892E+02  0.50606712896E+02 -0.95442570564E+02  0.11199712725E+03  0.41800000000E+01 0. -1.
        -11    1    1    2    0    0 -0.58047922512E+02 -0.34211100870E+02 -0.66919399985E+02  0.94964029112E+02  0.00000000000E+00 0. -1.
         11    1    1    2    0    0  0.31104450108E+02 -0.89248290565E+00 -0.55368220189E+02  0.63513173036E+02  0.00000000000E+00 0.  1.
</event>
<event>
 7    1  0.2810263E-009  0.6752121E+02  0.7561462E-02  0.1368731E+00
         -1   -1    0    0    0  501 -0.00000000000E+00  0.00000000000E+00  0.99027646042E+02  0.99027646042E+02  0.00000000000E+00 0.  1.
          1   -1    0    0  501    0  0.00000000000E+00 -0.00000000000E+00 -0.17597658268E+03  0.17597658268E+03  0.00000000000E+00 0. -1.
         25    2    1    2    0    0 -0.29950414020E+01 -0.33292964727E+02 -0.11393132670E+03  0.17245800476E+03  0.12507607457E+03 0.  0.
          5    1    3    3  502    0 -0.20941173203E+01 -0.62027877626E+02 -0.12637456985E+03  0.14085399261E+03  0.41800000000E+01 0.  1.
         -5    1    3    3    0  502 -0.90092408173E+00  0.28734912899E+02  0.12443243155E+02  0.31604012146E+02  0.41800000000E+01 0.  1.
        -11    1    1    2    0    0 -0.12345188767E+02  0.19926001267E+02  0.64325532037E+02  0.68463298810E+02  0.00000000000E+00 0.  1.
         11    1    1    2    0    0  0.15340230169E+02  0.13366963461E+02 -0.27343141983E+02  0.34082925158E+02  0.00000000000E+00 0. -1.
</event>
<event>
 7    1  0.2810263E-009  0.1098435E+03  0.7561462E-02  0.1260860E+00
          2   -1    0    0  501    0  0.00000000000E+00  0.00000000000E+00  0.41502547836E+03  0.41502547836E+03  0.00000000000E+00 0. -1.
         -2   -1    0    0    0  501 -0.00000000000E+00 -0.00000000000E+00 -0.34787752082E+02  0.34787752082E+02  0.00000000000E+00 0.  1.
         25    2    1    2    0    0 -0.15573981546E+02  0.30941111645E+02  0.13168036704E+03  0.18489878194E+03  0.12509172318E+03 0.  0.
          5    1    3    3  502    0  0.54208940591E+02  0.16430282789E+02  0.44133704279E+02  0.71929268632E+02  0.41800000000E+01 0.  1.
         -5    1    3    3    0  502 -0.69782922136E+02  0.14510828856E+02  0.87546662763E+02  0.11296951331E+03  0.41800000000E+01 0.  1.
        -11    1    1    2    0    0 -0.33647119666E+02 -0.56677613934E+00  0.98960556254E+02  0.10452579390E+03  0.00000000000E+00 0. -1.
         11    1    1    2    0    0  0.49221101211E+02 -0.30374335506E+02  0.14959680298E+03  0.16038865460E+03  0.00000000000E+00 0.  1.
</event>
<event>
 7    1  0.2810263E-009  0.8239229E+02  0.7561462E-02  0.1322396E+00
         -2   -1    0    0    0  501 -0.00000000000E+00  0.00000000000E+00  0.23057335105E+02  0.23057335105E+02  0.00000000000E+00 0.  1.
          2   -1    0    0  501    0  0.00000000000E+00 -0.00000000000E+00 -0.63004446260E+03  0.63004446260E+03  0.00000000000E+00 0. -1.
         25    2    1    2    0    0 -0.26192998501E+02 -0.30885665689E+01 -0.21555430301E+03  0.25061315732E+03  0.12509070573E+03 0.  0.
          5    1    3    3  502    0  0.22008566748E+02 -0.47497555511E+01 -0.19768896943E+03  0.19901089976E+03  0.41800000000E+01 0. -1.
         -5    1    3    3    0  502 -0.48201565249E+02  0.16611889822E+01 -0.17865333583E+02  0.51602257560E+02  0.41800000000E+01 0. -1.
        -11    1    1    2    0    0  0.30156184049E+02  0.43465729624E+02 -0.20792798752E+03  0.21455235511E+03  0.00000000000E+00 0.  1.
         11    1    1    2    0    0 -0.39631855473E+01 -0.40377163056E+02 -0.18350483695E+03  0.18793628527E+03  0.00000000000E+00 0. -1.
</event>
<event>
 7    1  0.2810263E-009  0.1134630E+03  0.7561462E-02  0.1254288E+00
          1   -1    0    0  501    0  0.00000000000E+00  0.00000000000E+00  0.77280450506E+02  0.77280450506E+02  0.00000000000E+00 0. -1.
         -1   -1    0    0    0  501 -0.00000000000E+00 -0.00000000000E+00 -0.24162457695E+03  0.24162457695E+03  0.00000000000E+00 0.  1.
         25    2    1    2    0    0  0.44536095161E+02 -0.69749808961E+02 -0.68002158919E+02  0.16468702731E+03  0.12509605799E+03 0.  0.
          5    1    3    3  502    0  0.52658906216E+02 -0.88488773187E+02 -0.88210313126E+02  0.13565306899E+03  0.41800000000E+01 0.  1.
         -5    1    3    3    0  502 -0.81228110555E+01  0.18738964225E+02  0.20208154207E+02  0.29033958327E+02  0.41800000000E+01 0.  1.
        -11    1    1    2    0    0 -0.53739122678E+02  0.28639461889E+02 -0.15155092517E+02  0.62751804059E+02  0.00000000000E+00 0. -1.
         11    1    1    2    0    0  0.92030275179E+01  0.41110347073E+02 -0.81186875005E+02  0.91466196078E+02  0.00000000000E+00 0.  1.
</event>
<event>
 7    1  0.2810263E-009  0.1856726E+03  0.7561462E-02  0.1162423E+00
         -1   -1    0    0    0  501 -0.00000000000E+00  0.00000000000E+00  0.13696139498E+03  0.13696139498E+03  0.00000000000E+00 0.  1.
          1   -1    0    0  501    0  0.00000000000E+00 -0.00000000000E+00 -0.41015561834E+03  0.41015561834E+03  0.00000000000E+00 0. -1.
         25    2    1    2    0    0  0.17743627900E+03 -0.17853883681E+02 -0.26802421913E+03  0.34537865693E+03  0.12508813034E+03 0.  0.
          5    1    3    3  502    0  0.11502128567E+03  0.23825505613E+02 -0.23604667267E+03  0.26369121137E+03  0.41800000000E+01 0.  1.
         -5    1    3    3    0  502  0.62414993332E+02 -0.41679389294E+02 -0.31977546462E+02  0.81687445561E+02  0.41800000000E+01 0.  1.
        -11    1    1    2    0    0 -0.10394188568E+03  0.52680107443E+01  0.43387616099E+02  0.11275705196E+03  0.00000000000E+00 0.  1.
         11    1    1    2    0    0 -0.73494393321E+02  0.12585872936E+02 -0.48557620323E+02  0.88981304433E+02  0.00000000000E+00 0. -1.
</event>
<event>
 7    1  0.2810263E-009  0.1314550E+03  0.7561462E-02  0.1225313E+00
         -2   -1    0    0    0  501 -0.00000000000E+00  0.00000000000E+00  0.21931523028E+03  0.21931523028E+03  0.00000000000E+00 0.  1.
          2   -1    0    0  501    0  0.00000000000E+00 -0.00000000000E+00 -0.86268459926E+02  0.86268459926E+02  0.00000000000E+00 0. -1.
         25    2    1    2    0    0  0.48194921277E+02 -0.69552387266E+02  0.76498272874E+02  0.16929240052E+03  0.12509055164E+03 0.  0.
          5    1    3    3  502    0 -0.41677140107E+02 -0.14720788771E+02  0.12939305782E+02  0.46244823101E+02  0.41800000000E+01 0.  1.
         -5    1    3    3    0  502  0.89872061384E+02 -0.54831598495E+02  0.63558967092E+02  0.12304757742E+03  0.41800000000E+01 0.  1.
        -11    1    1    2    0    0 -0.52119104562E+02  0.83627546623E+02  0.25208790685E+02  0.10171258891E+03  0.00000000000E+00 0. -1.
         11    1    1    2    0    0  0.39241832854E+01 -0.14075159357E+02  0.31339706796E+02  0.34578700778E+02  0.00000000000E+00 0.  1.
</event>
<event>
 7    1  0.2810263E-009  0.1044103E+03  0.7561462E-02  0.1271286E+00
         -3   -1    0    0    0  501 -0.00000000000E+00  0.00000000000E+00  0.26680798946E+02  0.26680798946E+02  0.00000000000E+00 0.  1.
          3   -1    0    0  501    0  0.00000000000E+00 -0.00000000000E+00 -0.74425077585E+03  0.74425077585E+03  0.00000000000E+00 0. -1.
         25    2    1    2    0    0 -0.54867714954E+02  0.72787696251E+02 -0.40468196927E+03  0.43327018434E+03  0.12508813500E+03 0.  0.
          5    1    3    3  502    0 -0.18223139962E+02  0.55209782841E+02 -0.38223346295E+03  0.38665242215E+03  0.41800000000E+01 0.  1.
         -5    1    3    3    0  502 -0.36644574992E+02  0.17577913411E+02 -0.22448506319E+02  0.46617762196E+02  0.41800000000E+01 0.  1.
        -11    1    1    2    0    0  0.44638183611E+02 -0.95936138469E+01 -0.52762932747E+02  0.69774866068E+02  0.00000000000E+00 0.  1.
         11    1    1    2    0    0  0.10229531343E+02 -0.63194082404E+02 -0.26012507489E+03  0.26788652439E+03  0.00000000000E+00 0. -1.
</event>
<event>
 7    1  0.2810263E-009  0.1233643E+03  0.7561462E-02  0.1237648E+00
         -2   -1    0    0    0  501 -0.00000000000E+00  0.00000000000E+00  0.22480101887E+03  0.22480101887E+03  0.00000000000E+00 0.  1.
          2   -1    0    0  501    0  0.00000000000E+00 -0.00000000000E+00 -0.11884538878E+03  0.11884538878E+03  0.00000000000E+00 0. -1.
         25    2    1    2    0    0 -0.50254310377E+02 -0.10652992158E+03  0.22425045299E+02  0.17328407200E+03  0.12510142704E+03 0.  0.
          5    1    3    3  502    0 -0.13502920267E+02 -0.67226718533E+01 -0.44756907359E+02  0.47414937825E+02  0.41800000000E+01 0.  1.
         -5    1    3    3    0  502 -0.36751390110E+02 -0.99807249731E+02  0.67181952658E+02  0.12586913417E+03  0.41800000000E+01 0.  1.
        -11    1    1    2    0    0  0.76740535681E+01  0.63983108567E+02 -0.35077783182E+01  0.64537072980E+02  0.00000000000E+00 0. -1.
         11    1    1    2    0    0  0.42580256809E+02  0.42546813017E+02  0.87038363104E+02  0.10582526267E+03  0.00000000000E+00 0.  1.
</event>
<event>
 7    1  0.2810263E-009  0.1088089E+03  0.7561462E-02  0.1262792E+00
         -2   -1    0    0    0  501 -0.00000000000E+00  0.00000000000E+00  0.24866533480E+02  0.24866533480E+02  0.00000000000E+00 0.  1.
          2   -1    0    0  501    0  0.00000000000E+00 -0.00000000000E+00 -0.50993590972E+03  0.50993590972E+03  0.00000000000E+00 0. -1.
         25    2    1    2    0    0 -0.17928311623E+02  0.56767801814E+01 -0.22576627047E+03  0.25878935815E+03  0.12509145781E+03 0.  0.
          5    1    3    3  502    0  0.32977923133E+02  0.48264594878E+02 -0.86822096693E+02  0.10475000433E+03  0.41800000000E+01 0.  1.
         -5    1    3    3    0  502 -0.50906234756E+02 -0.42587814696E+02 -0.13894417378E+03  0.15403935382E+03  0.41800000000E+01 0.  1.
        -11    1    1    2    0    0  0.53479385302E+02  0.86625216403E+01 -0.17919179641E+03  0.18720252091E+03  0.00000000000E+00 0. -1.
         11    1    1    2    0    0 -0.35551073679E+02 -0.14339301822E+02 -0.80111309350E+02  0.88810564136E+02  0.00000000000E+00 0.  1.
</event>
<event>
 7    1  0.2810263E-009  0.1416504E+03  0.7561462E-02  0.1211125E+00
          2   -1    0    0  501    0  0.00000000000E+00  0.00000000000E+00  0.41093701097E+03  0.41093701097E+03  0.00000000000E+00 0.  1.
         -2   -1    0    0    0  501 -0.00000000000E+00 -0.00000000000E+00 -0.10014245571E+03  0.10014245571E+03  0.00000000000E+00 0. -1.
         25    2    1    2    0    0  0.35972137334E+02  0.12197296918E+03  0.17203842967E+02  0.17920601554E+03  0.12508966352E+03 0.  0.
          5    1    3    3  502    0  0.60195239591E+02  0.61387163695E+02  0.56461749747E+02  0.10294295663E+03  0.41800000000E+01 0. -1.
         -5    1    3    3    0  502 -0.24223102257E+02  0.60585805489E+02 -0.39257906780E+02  0.76263058911E+02  0.41800000000E+01 0. -1.
        -11    1    1    2    0    0 -0.25633725518E+01 -0.70059221612E+02  0.24030512602E+03  0.25032262983E+03  0.00000000000E+00 0.  1.
         11    1    1    2    0    0 -0.33408764782E+02 -0.51913747573E+02  0.53285586268E+02  0.81550821303E+02  0.00000000000E+00 0. -1.
</event>
<event>
 7    1  0.2810263E-009  0.1124141E+03  0.7561462E-02  0.1256164E+00
          2   -1    0    0  501    0  0.00000000000E+00  0.00000000000E+00  0.82811031859E+03  0.82811031859E+03  0.00000000000E+00 0. -1.
         -2   -1    0    0    0  501 -0.00000000000E+00 -0.00000000000E+00 -0.17592740898E+02  0.17592740898E+02  0.00000000000E+00 0.  1.
         25    2    1    2    0    0  0.51514737809E+02 -0.11412161030E+02  0.45048103700E+03  0.47049503227E+03  0.12509358522E+03 0.  0.
          5    1    3    3  502    0 -0.16170585898E+02 -0.46101587906E+02  0.94591133100E+02  0.10654482210E+03  0.41800000000E+01 0. -1.
         -5    1    3    3    0  502  0.67685323707E+02  0.34689426877E+02  0.35588990390E+03  0.36395021016E+03  0.41800000000E+01 0. -1.
        -11    1    1    2    0    0  0.21895744248E+02 -0.86146648361E+01  0.41474524995E+02  0.47684088436E+02  0.00000000000E+00 0.  1.
         11    1    1    2    0    0 -0.73410482057E+02  0.20026825866E+02  0.31856201570E+03  0.32752393879E+03  0.00000000000E+00 0. -1.
</event>
<event>
 7    1  0.2810263E-009  0.8666114E+02  0.7561462E-02  0.1311145E+00
         -2   -1    0    0    0  501 -0.00000000000E+00  0.00000000000E+00  0.52759558040E+02  0.52759558040E+02  0.00000000000E+00 0.  1.
          2   -1    0    0  501    0  0.00000000000E+00 -0.00000000000E+00 -0.27937219126E+03  0.27937219126E+03  0.00000000000E+00 0. -1.
         25    2    1    2    0    0  0.20788324829E+02 -0.11656478278E+02 -0.19761975750E+03  0.23509355200E+03  0.12508949478E+03 0.  0.
          5    1    3    3  502    0 -0.42177297542E+02 -0.28897408173E+02 -0.13548425724E+03  0.14487042827E+03  0.41800000000E+01 0.  1.
         -5    1    3    3    0  502  0.62965622371E+02  0.17240929895E+02 -0.62135500258E+02  0.90223123735E+02  0.41800000000E+01 0.  1.
        -11    1    1    2    0    0  0.99392635492E+00 -0.18985947474E+02  0.24899624194E+02  0.31328028602E+02  0.00000000000E+00 0.  1.
         11    1    1    2    0    0 -0.21782251184E+02  0.30642425752E+02 -0.53892499914E+02  0.65710168692E+02  0.00000000000E+00 0. -1.
</event>
<event>
 7    1  0.2810263E-009  0.1025029E+03  0.7561462E-02  0.1275119E+00
         -2   -1    0    0    0  501 -0.00000000000E+00  0.00000000000E+00  0.42698892275E+02  0.42698892275E+02  0.00000000000E+00 0.  1.
          2   -1    0    0  501    0  0.00000000000E+00 -0.00000000000E+00 -0.38883951636E+03  0.38883951636E+03  0.00000000000E+00 0. -1.
         25    2    1    2    0    0 -0.12703799750E+02 -0.51552305747E+02 -0.11592680381E+03  0.17862089370E+03  0.12508946026E+03 0.  0.
          5    1    3    3  502    0 -0.47566537398E+02 -0.74145915617E+02 -0.10146186678E+03  0.13443279024E+03  0.41800000000E+01 0.  1.
         -5    1    3    3    0  502  0.34862737649E+02  0.22593609871E+02 -0.14464937035E+02  0.44188103453E+02  0.41800000000E+01 0.  1.
        -11    1    1    2    0    0 -0.20650517087E+02  0.25017963845E+02 -0.19485988746E+03  0.19754168702E+03  0.00000000000E+00 0. -1.
         11    1    1    2    0    0  0.33354316836E+02  0.26534341902E+02 -0.35353932809E+02  0.55375827911E+02  0.00000000000E+00 0.  1.
</event>
<event>
 7    1  0.2810263E-009  0.1667384E+03  0.7561462E-02  0.1181293E+00
         -2   -1    0    0    0  501 -0.00000000000E+00  0.00000000000E+00  0.18074021925E+02  0.18074021925E+02  0.00000000000E+00 0.  1.
          2   -1    0    0  501    0  0.00000000000E+00 -0.00000000000E+00 -0.16179031760E+04  0.16179031760E+04  0.00000000000E+00 0. -1.
         25    2    1    2    0    0 -0.13057364183E+03  0.18289123316E+02 -0.89943298855E+03  0.91761194647E+03  0.12509202787E+03 0.  0.
          5    1    3    3  502    0  0.19842396173E+02 -0.80032002859E+01 -0.22712684149E+03  0.22817065198E+03  0.41800000000E+01 0.  1.
         -5    1    3    3    0  502 -0.15041603800E+03  0.26292323602E+02 -0.67230614707E+03  0.68944129449E+03  0.41800000000E+01 0.  1.
        -11    1    1    2    0    0  0.10388173289E+03 -0.51800348610E+02 -0.47928263647E+03  0.49313946929E+03  0.00000000000E+00 0. -1.
         11    1    1    2    0    0  0.26691908935E+02  0.33511225294E+02 -0.22111352903E+03  0.22522578214E+03  0.00000000000E+00 0.  1.
</event>
<event>
 7    1  0.2810263E-009  0.1258621E+03  0.7561462E-02  0.1233728E+00
          1   -1    0    0  501    0  0.00000000000E+00  0.00000000000E+00  0.40654050527E+04  0.40654050527E+04  0.00000000000E+00 0. -1.
         -1   -1    0    0    0  501 -0.00000000000E+00 -0.00000000000E+00 -0.11084362125E+02  0.11084362125E+02  0.00000000000E+00 0.  1.
         25    2    1    2    0    0  0.35302189708E+01 -0.90382444602E+02  0.36242738857E+04  0.36275597755E+04  0.12508907806E+03 0.  0.
          5    1    3    3  502    0  0.62930767004E+01 -0.10769924097E+03  0.35255993123E+04  0.35272520058E+04  0.41800000000E+01 0. -1.
         -5    1    3    3    0  502 -0.27628577296E+01  0.17316796367E+02  0.98674573425E+02  0.10030776969E+03  0.41800000000E+01 0. -1.
        -11    1    1    2    0    0 -0.11570882195E+01  0.10797504420E+03  0.32707012343E+03  0.34443404980E+03  0.00000000000E+00 0.  1.
         11    1    1    2    0    0 -0.23731307513E+01 -0.17592599599E+02  0.10297668140E+03  0.10449558949E+03  0.00000000000E+00 0. -1.
</event>
<event>
 7    1  0.2810263E-009  0.9874093E+02  0.7561462E-02  0.1282966E+00
         -1   -1    0    0    0  501 -0.00000000000E+00  0.00000000000E+00  0.82719574936E+02  0.82719574936E+02  0.00000000000E+00 0. -1.
          1   -1    0    0  501    0  0.00000000000E+00 -0.00000000000E+00 -0.16510332780E+03  0.16510332780E+03  0.00000000000E+00 0.  1.
         25    2    1    2    0    0  0.23959323278E+02  0.32466314818E+02 -0.67287155865E+02  0.14764373647E+03  0.12507198249E+03 0.  0.
          5    1    3    3  502    0 -0.48116811824E+02 -0.75205187840E+01 -0.24221346622E+02  0.54552101840E+02  0.41800000000E+01 0. -1.
         -5    1    3    3    0  502  0.72076135102E+02  0.39986833602E+02 -0.43065809243E+02  0.93091634633E+02  0.41800000000E+01 0. -1.
        -11    1    1    2    0    0 -0.90086088820E+01 -0.45410260672E+02  0.27053697540E+02  0.53620419234E+02  0.00000000000E+00 0. -1.
         11    1    1    2    0    0 -0.14950714396E+02  0.12943945854E+02 -0.42150294540E+02  0.46558747030E+02  0.00000000000E+00 0.  1.
</event>
<event>
 7    1  0.2810263E-009  0.8873842E+02  0.7561462E-02  0.1305936E+00
          1   -1    0    0  501    0  0.00000000000E+00  0.00000000000E+00  0.71386923848E+03  0.71386923848E+03  0.00000000000E+00 0. -1.
         -1   -1    0    0    0  501 -0.00000000000E+00 -0.00000000000E+00 -0.18390949749E+02  0.18390949749E+02  0.00000000000E+00 0.  1.
         25    2    1    2    0    0 -0.40174834137E+02 -0.13495495617E+02  0.37484018347E+03  0.39742775714E+03  0.12509002080E+03 0.  0.
          5    1    3    3  502    0  0.29489355426E+02  0.75973996147E+01  0.23741215234E+02  0.38838901441E+02  0.41800000000E+01 0.  1.
         -5    1    3    3    0  502 -0.69664189563E+02 -0.21092895232E+02  0.35109896823E+03  0.35858885570E+03  0.41800000000E+01 0.  1.
        -11    1    1    2    0    0 -0.13187111563E+02 -0.89539987733E+01  0.99359376397E+01  0.18782887483E+02  0.00000000000E+00 0.  1.
         11    1    1    2    0    0  0.53361945701E+02  0.22449494391E+02  0.31070216763E+03  0.31604954361E+03  0.00000000000E+00 0. -1.
</event>
<event>
 7    1  0.2810263E-009  0.5595203E+02  0.7561462E-02  0.1415650E+00
          3   -1    0    0  501    0  0.00000000000E+00  0.00000000000E+00  0.71458304198E+02  0.71458304198E+02  0.00000000000E+00 0. -1.
         -3   -1    0    0    0  501 -0.00000000000E+00 -0.00000000000E+00 -0.17703961370E+03  0.17703961370E+03  0.00000000000E+00 0.  1.
         25    2    1    2    0    0 -0.10298099530E+02  0.18756525731E+02 -0.85598877507E+02  0.15306907359E+03  0.12508043551E+03 0.  0.
          5    1    3    3  502    0  0.33909708697E+02 -0.29920016514E+01  0.17664133460E+02  0.38578678421E+02  0.41800000000E+01 0.  1.
         -5    1    3    3    0  502 -0.44207808227E+02  0.21748527382E+02 -0.10326301097E+03  0.11449039517E+03  0.41800000000E+01 0.  1.
        -11    1    1    2    0    0 -0.21532552837E+01 -0.15003649194E+02  0.35416662138E+02  0.38523836185E+02  0.00000000000E+00 0. -1.
         11    1    1    2    0    0  0.12451354814E+02 -0.37528765372E+01 -0.55399094129E+02  0.56905008122E+02  0.00000000000E+00 0.  1.
</event>
<event>
 7    1  0.3486600E-009  0.1297724E+03  0.7561462E-02  0.1227794E+00
         -2   -1    0    0    0  501 -0.00000000000E+00  0.00000000000E+00  0.57073047465E+02  0.57073047465E+02  0.00000000000E+00 0. -1.
          2   -1    0    0  501    0  0.00000000000E+00 -0.00000000000E+00 -0.38232743237E+03  0.38232743237E+03  0.00000000000E+00 0.  1.
         25    2    1    2    0    0 -0.17433407744E+02 -0.97690866150E+02 -0.18521359931E+03  0.24453788127E+03  0.12508904418E+03 0.  0.
          5    1    3    3  502    0  0.24826838603E+02  0.99969375417E+01 -0.11666500830E+01  0.27113541776E+02  0.41800000000E+01 0. -1.
         -5    1    3    3    0  502 -0.42260246347E+02 -0.10768780369E+03 -0.18404694923E+03  0.21742433950E+03  0.41800000000E+01 0. -1.
        -11    1    1    2    0    0 -0.16367297994E+02  0.73069976692E+02 -0.13275254220E+03  0.15241504978E+03  0.00000000000E+00 0.  1.
         11    1    1    2    0    0  0.33800705737E+02  0.24620889458E+02 -0.72882433883E+01  0.42447548783E+02  0.00000000000E+00 0. -1.
</event>
<event>
 7    1  0.2810263E-009  0.1022840E+03  0.7561462E-02  0.1275565E+00
         -1   -1    0    0    0  501 -0.00000000000E+00  0.00000000000E+00  0.21751937663E+03  0.21751937663E+03  0.00000000000E+00 0.  1.
          1   -1    0    0  501    0  0.00000000000E+00 -0.00000000000E+00 -0.81693440977E+02  0.81693440977E+02  0.00000000000E+00 0. -1.
         25    2    1    2    0    0 -0.59185272202E+02  0.13759632610E+01  0.13153832290E+03  0.19092944788E+03  0.12508770506E+03 0.  0.
          5    1    3    3  502    0  0.27910171845E+02 -0.33162738241E+02  0.53048074154E+02  0.68631738077E+02  0.41800000000E+01 0. -1.
         -5    1    3    3    0  502 -0.87095444047E+02  0.34538701502E+02  0.78490248746E+02  0.12229770980E+03  0.41800000000E+01 0. -1.
        -11    1    1    2    0    0  0.17052026188E+02  0.14326107106E+02 -0.39611478170E+02  0.45443130886E+02  0.00000000000E+00 0. -1.
         11    1    1    2    0    0  0.42133246014E+02 -0.15702070367E+02  0.43899090920E+02  0.62840238837E+02  0.00000000000E+00 0.  1.
</event>
<event>
 7    1  0.2810263E-009  0.1340635E+03  0.7561462E-02  0.1221548E+00
          1   -1    0    0  501    0  0.00000000000E+00  0.00000000000E+00  0.45692550279E+02  0.45692550279E+02  0.00000000000E+00 0. -1.
         -1   -1    0    0    0  501 -0.00000000000E+00 -0.00000000000E+00 -0.49908475553E+03  0.49908475553E+03  0.00000000000E+00 0.  1.
         25    2    1    2    0    0  0.81035872537E+02  0.46564246550E+02 -0.33079954355E+03  0.36580446593E+03  0.12509807190E+03 0.  0.
          5    1    3    3  502    0 -0.20536043667E+02 -0.22396436723E+02 -0.42381921637E+02  0.52316624022E+02  0.41800000000E+01 0.  1.
         -5    1    3    3    0  502  0.10157191620E+03  0.68960683273E+02 -0.28841762191E+03  0.31348784191E+03  0.41800000000E+01 0.  1.
        -11    1    1    2    0    0 -0.14999072763E+01 -0.34068976296E+02 -0.22426395263E+01  0.34175638980E+02  0.00000000000E+00 0.  1.
         11    1    1    2    0    0 -0.79535965260E+02 -0.12495270255E+02 -0.12035002218E+03  0.14479720089E+03  0.00000000000E+00 0. -1.
</event>
<event>
 7    1  0.2810263E-009  0.1313565E+03  0.7561462E-02  0.1225457E+00
         -1   -1    0    0    0  501 -0.00000000000E+00  0.00000000000E+00  0.18868729964E+03  0.18868729964E+03  0.00000000000E+00 0.  1.
          1   -1    0    0  501    0  0.00000000000E+00 -0.00000000000E+00 -0.23608337468E+03  0.23608337468E+03  0.00000000000E+00 0. -1.
         25    2    1    2    0    0 -0.84787139802E+02  0.53957931328E+02  0.12615537828E+03  0.20411690658E+03  0.12509282415E+03 0.  0.
          5    1    3    3  502    0  0.27975394567E+02  0.30302582691E+02  0.54115755306E+02  0.68167855997E+02  0.41800000000E+01 0.  1.
         -5    1    3    3    0  502 -0.11276253437E+03  0.23655348636E+02  0.72039622970E+02  0.13594905058E+03  0.41800000000E+01 0.  1.
        -11    1    1    2    0    0  0.59044735709E+00 -0.11783703122E+02  0.92702570158E+01  0.15004731003E+02  0.00000000000E+00 0.  1.
         11    1    1    2    0    0  0.84196692445E+02 -0.42174228206E+02 -0.18282171033E+03  0.20564903674E+03  0.00000000000E+00 0. -1.
</event>
<event>
 7    1  0.2810263E-009  0.1089667E+03  0.7561462E-02  0.1262495E+00
         -2   -1    0    0    0  501 -0.00000000000E+00  0.00000000000E+00  0.44244594100E+02  0.44244594100E+02  0.00000000000E+00 0.  1.
          2   -1    0    0  501    0  0.00000000000E+00 -0.00000000000E+00 -0.30876281486E+03  0.30876281486E+03  0.00000000000E+00 0. -1.
         25    2    1    2    0    0  0.20721252158E+02  0.24825274587E+02 -0.10955169992E+03  0.16940178332E+03  0.12509885965E+03 0.  0.
          5    1    3    3  502    0  0.35938713999E+02  0.66287042393E+02 -0.36362535763E+02  0.83816881117E+02  0.41800000000E+01 0. -1.
         -5    1    3    3    0  502 -0.15217461841E+02 -0.41461767807E+02 -0.73189164162E+02  0.85584902204E+02  0.41800000000E+01 0. -1.
        -11    1    1    2    0    0  0.19169995389E+02  0.26712327045E+02 -0.44190419371E+02  0.55080216989E+02  0.00000000000E+00 0. -1.
         11    1    1    2    0    0 -0.39891247547E+02 -0.51537601632E+02 -0.11077610147E+03  0.12852540865E+03  0.00000000000E+00 0.  1.
</event>
<event>
 7    1  0.2810263E-009  0.1352097E+03  0.7561462E-02  0.1219924E+00
         -2   -1    0    0    0  501 -0.00000000000E+00  0.00000000000E+00  0.14286981049E+03  0.14286981049E+03  0.00000000000E+00 0. -1.
          2   -1    0    0  501    0  0.00000000000E+00 -0.00000000000E+00 -0.16560551639E+03  0.16560551639E+03  0.00000000000E+00 0.  1.
         25    2    1    2    0    0 -0.48469439452E+02  0.93362751136E+02  0.14978558225E+02  0.16412843447E+03  0.12509155022E+03 0.  0.
          5    1    3    3  502    0 -0.80656067812E+02  0.59141631402E+02  0.43351566261E+02  0.10908695860E+03  0.41800000000E+01 0. -1.
         -5    1    3    3    0  502  0.32186628361E+02  0.34221119734E+02 -0.28373008036E+02  0.55041475871E+02  0.41800000000E+01 0. -1.
        -11    1    1    2    0    0  0.62927874923E+02 -0.60703314470E+02  0.63033079539E+01  0.87661516763E+02  0.00000000000E+00 0. -1.
         11    1    1    2    0    0 -0.14458435471E+02 -0.32659436665E+02 -0.44017572077E+02  0.56685375637E+02  0.00000000000E+00 0.  1.
</event>
<event>
 7    1  0.2810263E-009  0.9955788E+02  0.7561462E-02  0.1281228E+00
         -3   -1    0    0    0  501 -0.00000000000E+00  0.00000000000E+00  0.24251676173E+03  0.24251676173E+03  0.00000000000E+00 0.  1.
          3   -1    0    0  501    0  0.00000000000E+00 -0.00000000000E+00 -0.89454892380E+02  0.89454892380E+02  0.00000000000E+00 0. -1.
         25    2    1    2    0    0 -0.43425721814E+02 -0.97419268936E+01  0.18368178852E+03  0.22664400292E+03  0.12509119142E+03 0.  0.
          5    1    3    3  502    0  0.35832461058E+02  0.24544094384E+02  0.84267852998E+02  0.94894263702E+02  0.41800000000E+01 0. -1.
         -5    1    3    3    0  502 -0.79258182872E+02 -0.34286021278E+02  0.99413935520E+02  0.13174973921E+03  0.41800000000E+01 0. -1.
        -11    1    1    2    0    0  0.18032258114E+02 -0.21955018308E+02 -0.52129642157E+02  0.59369055517E+02  0.00000000000E+00 0. -1.
         11    1    1    2    0    0  0.25393463699E+02  0.31696945201E+02  0.21509722992E+02  0.45958595681E+02  0.00000000000E+00 0.  1.
</event>
<event>
 7    1  0.2810263E-009  0.1033988E+03  0.7561462E-02  0.1273307E+00
          1   -1    0    0  501    0  0.00000000000E+00  0.00000000000E+00  0.38472081929E+03  0.38472081929E+03  0.00000000000E+00 0. -1.
         -1   -1    0    0    0  501 -0.00000000000E+00 -0.00000000000E+00 -0.41027728622E+02  0.41027728622E+02  0.00000000000E+00 0.  1.
         25    2    1    2    0    0 -0.23653000780E+02 -0.19054208159E+02  0.96206891300E+02  0.16069066348E+03  0.12507276323E+03 0.  0.
          5    1    3    3  502    0 -0.46161537745E+02 -0.54241506205E+02  0.94851017660E+02  0.11868958048E+03  0.41800000000E+01 0.  1.
         -5    1    3    3    0  502  0.22508536965E+02  0.35187298046E+02  0.13558736398E+01  0.42001083003E+02  0.41800000000E+01 0.  1.
        -11    1    1    2    0    0  0.57564229235E+02  0.10785096782E+02  0.13192887792E+03  0.14434399062E+03  0.00000000000E+00 0. -1.
         11    1    1    2    0    0 -0.33911228455E+02  0.82691113768E+01  0.11555732145E+03  0.12071389381E+03  0.00000000000E+00 0.  1.
</event>
<event>
 7    1  0.2810263E-009  0.9729812E+02  0.7561462E-02  0.1286082E+00
         -1   -1    0    0    0  501 -0.00000000000E+00  0.00000000000E+00  0.20178786416E+02  0.20178786416E+02  0.00000000000E+00 0.  1.
          1   -1    0    0  501    0  0.00000000000E+00 -0.00000000000E+00 -0.10719332018E+04  0.10719332018E+04  0.00000000000E+00 0. -1.
         25    2    1    2    0    0 -0.12115039665E+02 -0.27864661218E+02 -0.92883409311E+03  0.93771316836E+03  0.12509996030E+03 0.  0.
          5    1    3    3  502    0 -0.35325730630E+02 -0.56594908941E+02 -0.28209496053E+03  0.28990676108E+03  0.41800000000E+01 0.  1.
         -5    1    3    3    0  502  0.23210690965E+02  0.28730247722E+02 -0.64673913258E+03  0.64780640729E+03  0.41800000000E+01 0.  1.
        -11    1    1    2    0    0 -0.22639266166E+02 -0.20823975618E+02 -0.24937500987E+02  0.39598652610E+02  0.00000000000E+00 0. -1.
         11    1    1    2    0    0  0.34754305831E+02  0.48688636836E+02 -0.97982821263E+02  0.11480016722E+03  0.00000000000E+00 0.  1.
</event>
<event>
 7    1  0.2810263E-009  0.9495950E+02  0.7561462E-02  0.1291267E+00
         -1   -1    0    0    0  501 -0.00000000000E+00  0.00000000000E+00  0.22583086504E+02  0.22583086504E+02  0.00000000000E+00 0.  1.
          1   -1    0    0  501    0  0.00000000000E+00 -0.00000000000E+00 -0.77981656473E+03  0.77981656473E+03  0.00000000000E+00 0. -1.
         25    2    1    2    0    0  0.68651542427E+02  0.28138500785E+01 -0.34194742934E+03  0.37053723309E+03  0.12509534223E+03 0.  0.
          5    1    3    3  502    0  0.71416387646E+01 -0.29018370280E+02 -0.10568682300E+02  0.31972461017E+02  0.41800000000E+01 0.  1.
         -5    1    3    3    0  502  0.61509903662E+02  0.31832220358E+02 -0.33137874704E+03  0.33856477208E+03  0.41800000000E+01 0.  1.
        -11    1    1    2    0    0  0.22558518737E+00 -0.19490574755E+02 -0.13110446751E+02  0.23490789833E+02  0.00000000000E+00 0.  1.
         11    1    1    2    0    0 -0.68877127614E+02  0.16676724676E+02 -0.40217560214E+03  0.40837162831E+03  0.00000000000E+00 0. -1.
</event>
<event>
 7    1  0.2810263E-009  0.4987798E+03  0.7561462E-02  0.1014098E+00
         -1   -1    0    0    0  501 -0.00000000000E+00  0.00000000000E+00  0.15391976045E+03  0.15391976045E+03  0.00000000000E+00 0.  1.
          1   -1    0    0  501    0  0.00000000000E+00 -0.00000000000E+00 -0.17252512385E+04  0.17252512385E+04  0.00000000000E+00 0. -1.
         25    2    1    2    0    0  0.43062004829E+03 -0.23797538077E+03 -0.98689707785E+03  0.11098104413E+04  0.12508982990E+03 0.  0.
          5    1    3    3  502    0  0.25072765241E+03 -0.97589690975E+02 -0.64345186376E+03  0.69744955147E+03  0.41800000000E+01 0.  1.
         -5    1    3    3    0  502  0.17989239588E+03 -0.14038568980E+03 -0.34344521409E+03  0.41236088985E+03  0.41800000000E+01 0.  1.
        -11    1    1    2    0    0 -0.70805560433E+02  0.37255273936E+01 -0.88305587370E+02  0.11324832760E+03  0.00000000000E+00 0.  1.
         11    1    1    2    0    0 -0.35981448785E+03  0.23424985338E+03 -0.49612881278E+03  0.65611223000E+03  0.00000000000E+00 0. -1.
</event>
<event>
 7    1  0.2810263E-009  0.1306051E+03  0.7561462E-02  0.1226561E+00
          2   -1    0    0  501    0  0.00000000000E+00  0.00000000000E+00  0.16558225839E+03  0.16558225839E+03  0.00000000000E+00 0. -1.
         -2   -1    0    0    0  501 -0.00000000000E+00 -0.00000000000E+00 -0.17436170563E+03  0.17436170563E+03  0.00000000000E+00 0.  1.
         25    2    1    2    0    0  0.72413543864E+02  0.94400664049E+02  0.51520848081E+02  0.18015847675E+03  0.12508985671E+03 0.  0.
          5    1    3    3  502    0  0.83509758635E+02  0.98455892874E+02  0.21142997492E+01  0.12918740377E+03  0.41800000000E+01 0.  1.
         -5    1    3    3    0  502 -0.11096214772E+02 -0.40552288251E+01  0.49406548332E+02  0.50971072984E+02  0.41800000000E+01 0.  1.
        -11    1    1    2    0    0 -0.64670784607E+02 -0.77641095240E+02 -0.82830562035E+02  0.13065738425E+03  0.00000000000E+00 0.  1.
         11    1    1    2    0    0 -0.77427592565E+01 -0.16759568809E+02  0.22530266706E+02  0.29128103017E+02  0.00000000000E+00 0. -1.
</event>
<event>
 7    1  0.2810263E-009  0.1698092E+03  0.7561462E-02  0.1178047E+00
         -1   -1    0    0    0  501 -0.00000000000E+00  0.00000000000E+00  0.56299803823E+03  0.56299803823E+03  0.00000000000E+00 0.  1.
          1   -1    0    0  501    0  0.00000000000E+00 -0.00000000000E+00 -0.57917038325E+02  0.57917038325E+02  0.00000000000E+00 0. -1.
         25    2    1    2    0    0 -0.81567925839E+02 -0.11656561984E+03  0.30926098799E+03  0.36267314099E+03  0.12509427745E+03 0.  0.
          5    1    3    3  502    0 -0.14160252475E+02 -0.10573094326E+03  0.25123207966E+03  0.27297357997E+03  0.41800000000E+01 0.  1.
         -5    1    3    3    0  502 -0.67407673365E+02 -0.10834676578E+02  0.58028908328E+02  0.89699561018E+02  0.41800000000E+01 0.  1.
        -11    1    1    2    0    0 -0.14785434763E+02  0.22511857673E+01  0.48744269645E+01  0.15730128948E+02  0.00000000000E+00 0.  1.
         11    1    1    2    0    0  0.96353360603E+02  0.11431443407E+03  0.19094558495E+03  0.24251180662E+03  0.00000000000E+00 0. -1.
</event>
<event>
 7    1  0.2810263E-009  0.1491699E+03  0.7561462E-02  0.1201497E+00
          2   -1    0    0  501    0  0.00000000000E+00  0.00000000000E+00  0.78032505453E+02  0.78032505453E+02  0.00000000000E+00 0. -1.
         -2   -1    0    0    0  501 -0.00000000000E+00 -0.00000000000E+00 -0.28611182099E+03  0.28611182099E+03  0.00000000000E+00 0.  1.
         25    2    1    2    0    0 -0.94147932682E+02 -0.39055403861E+02 -0.11566109817E+03  0.19853194741E+03  0.12509311218E+03 0.  0.
          5    1    3    3  502    0 -0.11295215283E+03 -0.63883136671E+02 -0.95894057988E+02  0.16140751760E+03  0.41800000000E+01 0. -1.
         -5    1    3    3    0  502  0.18804220147E+02  0.24827732809E+02 -0.19767040179E+02  0.37124429817E+02  0.41800000000E+01 0. -1.
        -11    1    1    2    0    0  0.10889620789E+03  0.16508985180E+02 -0.69444062125E+02  0.13020525508E+03  0.00000000000E+00 0.  1.
         11    1    1    2    0    0 -0.14748275213E+02  0.22546418681E+02 -0.22974155240E+02  0.35407123945E+02  0.00000000000E+00 0. -1.
</event>
<event>
 7    1  0.2810263E-009  0.8680212E+02  0.7561462E-02  0.1310786E+00
         -1   -1    0    0    0  501 -0.00000000000E+00  0.00000000000E+00  0.11372469579E+03  0.11372469579E+03  0.00000000000E+00 0.  1.
          1   -1    0    0  501    0  0.00000000000E+00 -0.00000000000E+00 -0.11510848824E+03  0.11510848824E+03  0.00000000000E+00 0. -1.
         25    2    1    2    0    0  0.28612171481E+02 -0.16512971787E+02 -0.16786064920E+02  0.13047812133E+03  0.12510568962E+03 0.  0.
          5    1    3    3  502    0  0.40738083847E+02  0.19738519226E+02  0.40899248413E+02  0.61150809786E+02  0.41800000000E+01 0. -1.
         -5    1    3    3    0  502 -0.12125912366E+02 -0.36251491013E+02 -0.57685313333E+02  0.69327311542E+02  0.41800000000E+01 0. -1.
        -11    1    1    2    0    0 -0.25301467479E+02  0.50001317806E+02 -0.90409649887E+01  0.56762972851E+02  0.00000000000E+00 0. -1.
         11    1    1    2    0    0 -0.33107040018E+01 -0.33488346020E+02  0.24443237461E+02  0.41592089845E+02  0.00000000000E+00 0.  1.
</event>
<event>
 7    1  0.2810263E-009  0.8672368E+02  0.7561462E-02  0.1310985E+00
         -2   -1    0    0    0  501 -0.00000000000E+00  0.00000000000E+00  0.30709683373E+03  0.30709683373E+03  0.00000000000E+00 0.  1.
          2   -1    0    0  501    0  0.00000000000E+00 -0.00000000000E+00 -0.42113506627E+02  0.42113506627E+02  0.00000000000E+00 0. -1.
         25    2    1    2    0    0  0.60352282703E+02 -0.19929611186E+02  0.10171512569E+03  0.17330166704E+03  0.12509162073E+03 0.  0.
          5    1    3    3  502    0 -0.61154322747E+01  0.27268010026E+02  0.85541190046E+02  0.90087238148E+02  0.41800000000E+01 0. -1.
         -5    1    3    3    0  502  0.66467714977E+02 -0.47197621212E+02  0.16173935640E+02  0.83214428896E+02  0.41800000000E+01 0. -1.
        -11    1    1    2    0    0 -0.26183270657E+02  0.81945156417E+01  0.92038776615E+02  0.96040877493E+02  0.00000000000E+00 0.  1.
         11    1    1    2    0    0 -0.34169012046E+02  0.11735095544E+02  0.71229424805E+02  0.79867795823E+02  0.00000000000E+00 0. -1.
</event>
<event>
 7    1  0.2810263E-009  0.9519829E+02  0.7561462E-02  0.1290730E+00
         -2   -1    0    0    0  501 -0.00000000000E+00  0.00000000000E+00  0.65864775015E+02  0.65864775015E+02  0.00000000000E+00 0.  1.
          2   -1    0    0  501    0  0.00000000000E+00 -0.00000000000E+00 -0.25208166454E+03  0.25208166454E+03  0.00000000000E+00 0. -1.
         25    2    1    2    0    0 -0.13660979122E+02  0.54232290336E+02 -0.15244516259E+03  0.20497397661E+03  0.12508812823E+03 0.  0.
          5    1    3    3  502    0  0.40656827407E+02  0.11923919995E+02 -0.12266302294E+03  0.12984162306E+03  0.41800000000E+01 0. -1.
         -5    1    3    3    0  502 -0.54317806529E+02  0.42308370342E+02 -0.29782139650E+02  0.75132353545E+02  0.41800000000E+01 0. -1.
        -11    1    1    2    0    0 -0.15784402354E+02 -0.45456125222E+02  0.19140875541E+02  0.51785903432E+02  0.00000000000E+00 0.  1.
         11    1    1    2    0    0  0.29445381476E+02 -0.87761651149E+01 -0.52912602474E+02  0.61186559513E+02  0.00000000000E+00 0. -1.
</event>
<event>
 7    1  0.2926728E-009  0.3075397E+03  0.7561462E-02  0.1081531E+00
          1   -1    0    0  501    0  0.00000000000E+00  0.00000000000E+00  0.40273056748E+03  0.40273056748E+03  0.00000000000E+00 0. -1.
         -1   -1    0    0    0  501 -0.00000000000E+00 -0.00000000000E+00 -0.25754164514E+03  0.25754164514E+03  0.00000000000E+00 0.  1.
         25    2    1    2    0    0  0.36071437930E+02  0.29685324980E+03  0.12261643656E+03  0.34656401134E+03  0.12509525525E+03 0.  0.
          5    1    3    3  502    0  0.69729623621E+02  0.17094575612E+03  0.31124021583E+02  0.18727212571E+03  0.41800000000E+01 0.  1.
         -5    1    3    3    0  502 -0.33658185691E+02  0.12590749368E+03  0.91492414980E+02  0.15929188563E+03  0.41800000000E+01 0.  1.
        -11    1    1    2    0    0 -0.96746725796E+01 -0.17817755321E+03  0.57050053449E+02  0.18733805902E+03  0.00000000000E+00 0.  1.
         11    1    1    2    0    0 -0.26396765350E+02 -0.11867569659E+03 -0.34477567678E+02  0.12637014226E+03  0.00000000000E+00 0. -1.
</event>
<event>
 7    1  0.3126720E-009  0.1244967E+03  0.7561462E-02  0.1235858E+00
          2   -1    0    0  501    0  0.00000000000E+00  0.00000000000E+00  0.13932820848E+04  0.13932820848E+04  0.00000000000E+00 0. -1.
         -2   -1    0    0    0  501 -0.00000000000E+00 -0.00000000000E+00 -0.19067657956E+02  0.19067657956E+02  0.00000000000E+00 0.  1.
         25    2    1    2    0    0 -0.81349163000E+02  0.44490198128E+02  0.10720639417E+04  0.10833122172E+04  0.12508877183E+03 0.  0.
          5    1    3    3  502    0 -0.57202336345E+02  0.66524731852E+02  0.36273627925E+03  0.37321940989E+03  0.41800000000E+01 0. -1.
         -5    1    3    3    0  502 -0.24146826656E+02 -0.22034533724E+02  0.70932766245E+03  0.71009280734E+03  0.41800000000E+01 0. -1.
        -11    1    1    2    0    0 -0.13186826651E+02 -0.29726902620E+02  0.10453786139E+03  0.10947943004E+03  0.00000000000E+00 0.  1.
         11    1    1    2    0    0  0.94535989651E+02 -0.14763295508E+02  0.19761262377E+03  0.21955809552E+03  0.00000000000E+00 0. -1.
</event>
<event>
 7    1  0.2810263E-009  0.7416713E+02  0.7561462E-02  0.1346470E+00
          1   -1    0    0  501    0  0.00000000000E+00  0.00000000000E+00  0.10514096440E+03  0.10514096440E+03  0.00000000000E+00 0. -1.
         -1   -1    0    0    0  501 -0.00000000000E+00 -0.00000000000E+00 -0.11971748357E+03  0.11971748357E+03  0.00000000000E+00 0.  1.
         25    2    1    2    0    0  0.93705877601E+00 -0.27521696774E+02 -0.21591533601E+02  0.12987608938E+03  0.12507310821E+03 0.  0.
          5    1    3    3  502    0 -0.19228546001E+02  0.71153960501E-01 -0.68736012192E+02  0.71497229430E+02  0.41800000000E+01 0. -1.
         -5    1    3    3    0  502  0.20165604777E+02 -0.27592850734E+02  0.47144478591E+02  0.58378859952E+02  0.41800000000E+01 0. -1.
        -11    1    1    2    0    0 -0.42938553991E+02  0.29632721913E+02  0.87128587365E+01  0.52893586890E+02  0.00000000000E+00 0. -1.
         11    1    1    2    0    0  0.42001495215E+02 -0.21110251388E+01 -0.16978443023E+01  0.42088771694E+02  0.00000000000E+00 0.  1.
</event>
<event>
 7    1  0.2810263E-009  0.1190338E+03  0.7561462E-02  0.1244699E+00
          1   -1    0    0  501    0  0.00000000000E+00  0.00000000000E+00  0.21621601800E+03  0.21621601800E+03  0.00000000000E+00 0. -1.
         -1   -1    0    0    0  501 -0.00000000000E+00 -0.00000000000E+00 -0.76684020682E+02  0.76684020682E+02  0.00000000000E+00 0.  1.
         25    2    1    2    0    0 -0.27361111550E+02  0.57207134011E+02  0.10625957382E+03  0.17594984430E+03  0.12508382819E+03 0.  0.
          5    1    3    3  502    0 -0.60025590059E+02  0.78650880469E+02  0.62340958800E+02  0.11701666550E+03  0.41800000000E+01 0.  1.
         -5    1    3    3    0  502  0.32664478509E+02 -0.21443746458E+02  0.43918615020E+02  0.58933178802E+02  0.41800000000E+01 0.  1.
        -11    1    1    2    0    0 -0.20294137204E+02 -0.46733933448E+02 -0.97788708471E+01  0.51880042939E+02  0.00000000000E+00 0.  1.
         11    1    1    2    0    0  0.47655248753E+02 -0.10473200564E+02  0.43051294347E+02  0.65070151442E+02  0.00000000000E+00 0. -1.
</event>
<event>
 7    1  0.3251526E-009  0.1617284E+03  0.7561462E-02  0.1186759E+00
         -2   -1    0    0    0  501 -0.00000000000E+00  0.00000000000E+00  0.23528845438E+02  0.23528845438E+02  0.00000000000E+00 0.  1.
          2   -1    0    0  501    0  0.00000000000E+00 -0.00000000000E+00 -0.15737676383E+04  0.15737676383E+04  0.00000000000E+00 0. -1.
         25    2    1    2    0    0 -0.21597001916E+02  0.15640794123E+03 -0.83457055053E+03  0.85853735549E+03  0.12509401419E+03 0.  0.
          5    1    3    3  502    0 -0.10805409146E+02  0.12334487526E+03 -0.32575805388E+03  0.34852044012E+03  0.41800000000E+01 0.  1.
         -5    1    3    3    0  502 -0.10791592770E+02  0.33063065967E+02 -0.50881249666E+03  0.51001691537E+03  0.41800000000E+01 0.  1.
        -11    1    1    2    0    0 -0.14586229109E+02 -0.53617436687E+02 -0.10862366318E+03  0.12201101507E+03  0.00000000000E+00 0.  1.
         11    1    1    2    0    0  0.36183231026E+02 -0.10279050454E+03 -0.60704457920E+03  0.61674811322E+03  0.00000000000E+00 0. -1.
</event>
<event>
 7    1  0.2810263E-009  0.1999461E+03  0.7561462E-02  0.1149785E+00
         -1   -1    0    0    0  501 -0.00000000000E+00  0.00000000000E+00  0.41193022863E+02  0.41193022863E+02  0.00000000000E+00 0.  1.
          1   -1    0    0  501    0  0.00000000000E+00 -0.00000000000E+00 -0.10607061427E+04  0.10607061427E+04  0.00000000000E+00 0. -1.
         25    2    1    2    0    0 -0.44312392307E+02  0.16821758479E+03 -0.43132904089E+03  0.48161513987E+03  0.12509059711E+03 0.  0.
          5    1    3    3  502    0 -0.74815632685E+02  0.72443671411E+02 -0.28981787278E+03  0.30798918196E+03  0.41800000000E+01 0.  1.
         -5    1    3    3    0  502  0.30503240378E+02  0.95773913383E+02 -0.14151116811E+03  0.17362595790E+03  0.41800000000E+01 0.  1.
        -11    1    1    2    0    0  0.70131576105E+02 -0.14141489861E+03 -0.50637840094E+03  0.53041087513E+03  0.00000000000E+00 0.  1.
         11    1    1    2    0    0 -0.25819183798E+02 -0.26802686185E+02 -0.81805677952E+02  0.89873150518E+02  0.00000000000E+00 0. -1.
</event>
<event>
 7    1  0.2977783E-009  0.7813248E+02  0.7561462E-02  0.1334436E+00
          1   -1    0    0  501    0  0.00000000000E+00  0.00000000000E+00  0.39673184877E+03  0.39673184877E+03  0.00000000000E+00 0. -1.
         -1   -1    0    0    0  501 -0.00000000000E+00 -0.00000000000E+00 -0.33374492800E+02  0.33374492800E+02  0.00000000000E+00 0.  1.
         25    2    1    2    0    0  0.19673649285E+02 -0.16313646306E+01  0.14489833010E+03  0.19244722265E+03  0.12510273224E+03 0.  0.
          5    1    3    3  502    0  0.12790410565E+02 -0.49572881232E+02  0.14638621624E+02  0.53411860097E+02  0.41800000000E+01 0.  1.
         -5    1    3    3    0  502  0.68832387204E+01  0.47941516601E+02  0.13025970847E+03  0.13903536256E+03  0.41800000000E+01 0.  1.
        -11    1    1    2    0    0 -0.36734069536E+02 -0.66333908688E+01  0.21521307092E+03  0.21842632541E+03  0.00000000000E+00 0. -1.
         11    1    1    2    0    0  0.17060420251E+02  0.82647554994E+01  0.32459549593E+01  0.19232793510E+02  0.00000000000E+00 0.  1.
</event>
<event>
 7    1  0.2810263E-009  0.1243295E+03  0.7561462E-02  0.1236121E+00
         -2   -1    0    0    0  501 -0.00000000000E+00  0.00000000000E+00  0.15633770367E+03  0.15633770367E+03  0.00000000000E+00 0.  1.
          2   -1    0    0  501    0  0.00000000000E+00 -0.00000000000E+00 -0.17142204207E+03  0.17142204207E+03  0.00000000000E+00 0. -1.
         25    2    1    2    0    0  0.61839643509E+02  0.10427795554E+03 -0.92503024409E+01  0.17444396244E+03  0.12508834645E+03 0.  0.
          5    1    3    3  502    0  0.26721232232E+02  0.55539836633E+02  0.57605864835E+02  0.84466595578E+02  0.41800000000E+01 0. -1.
         -5    1    3    3    0  502  0.35118411277E+02  0.48738118905E+02 -0.66856167276E+02  0.89977366864E+02  0.41800000000E+01 0. -1.
        -11    1    1    2    0    0 -0.84831960004E+01 -0.49408172964E+02  0.39975752077E+02  0.64118584858E+02  0.00000000000E+00 0.  1.
         11    1    1    2    0    0 -0.53356447508E+02 -0.54869782574E+02 -0.45809788038E+02  0.89197198445E+02  0.00000000000E+00 0. -1.
</event>
<event>
 7    1  0.4080014E-009  0.2112338E+03  0.7561462E-02  0.1140593E+00
          1   -1    0    0  501    0  0.00000000000E+00  0.00000000000E+00  0.10335275953E+04  0.10335275953E+04  0.00000000000E+00 0. -1.
         -1   -1    0    0    0  501 -0.00000000000E+00 -0.00000000000E+00 -0.49324179822E+02  0.49324179822E+02  0.00000000000E+00 0.  1.
         25    2    1    2    0    0 -0.17020784197E+03 -0.92319461212E+02  0.41513478199E+03  0.47484855099E+03  0.12510262495E+03 0.  0.
          5    1    3    3  502    0  0.14782145586E+02 -0.21432969088E+02  0.92848856774E+02  0.96520809136E+02  0.41800000000E+01 0. -1.
         -5    1    3    3    0  502 -0.18498998756E+03 -0.70886492123E+02  0.32228592522E+03  0.37832774185E+03  0.41800000000E+01 0. -1.
        -11    1    1    2    0    0  0.69035826468E+02  0.60763996391E+02  0.38283199063E+03  0.39372394091E+03  0.00000000000E+00 0. -1.
         11    1    1    2    0    0  0.10117201550E+03  0.31555464820E+02  0.18623664290E+03  0.21427928327E+03  0.00000000000E+00 0.  1.
</event>
<event>
 7    1  0.2810263E-009  0.1238647E+03  0.7561462E-02  0.1236854E+00
         -1   -1    0    0    0  501 -0.00000000000E+00  0.00000000000E+00  0.26306570014E+03  0.26306570014E+03  0.00000000000E+00 0.  1.
          1   -1    0    0  501    0  0.00000000000E+00 -0.00000000000E+00 -0.12352685552E+03  0.12352685552E+03  0.00000000000E+00 0. -1.
         25    2    1    2    0    0  0.41998051765E+02  0.10338170938E+03  0.17063598156E+03  0.23920870527E+03  0.12511016062E+03 0.  0.
          5    1    3    3  502    0 -0.71505070934E+01  0.60362916148E+02  0.50268449817E+01  0.61135529506E+02  0.41800000000E+01 0. -1.
         -5    1    3    3    0  502  0.49148558858E+02  0.43018793228E+02  0.16560913658E+03  0.17807317577E+03  0.41800000000E+01 0. -1.
        -11    1    1    2    0    0 -0.44299577090E+02 -0.45783368225E+02  0.23582073781E+02  0.67931462079E+02  0.00000000000E+00 0.  1.
         11    1    1    2    0    0  0.23015253257E+01 -0.57598341151E+02 -0.54679210727E+02  0.79452388308E+02  0.00000000000E+00 0. -1.
</event>
<event>
 7    1  0.2810263E-009  0.1010794E+03  0.7561462E-02  0.1278042E+00
          2   -1    0    0  501    0  0.00000000000E+00  0.00000000000E+00  0.12984737879E+04  0.12984737879E+04  0.00000000000E+00 0. -1.
         -2   -1    0    0    0  501 -0.00000000000E+00 -0.00000000000E+00 -0.99271209126E+01  0.99271209126E+01  0.00000000000E+00 0.  1.
         25    2    1    2    0    0  0.19814840034E+02  0.15096043807E+02  0.82361383672E+03  0.83343226706E+03  0.12509625625E+03 0.  0.
          5    1    3    3  502    0  0.20208360621E+02  0.58929535630E+02  0.68846992314E+03  0.69129543284E+03  0.41800000000E+01 0.  1.
         -5    1    3    3    0  502 -0.39352058637E+00 -0.43833491823E+02  0.13514391358E+03  0.14213683422E+03  0.41800000000E+01 0.  1.
        -11    1    1    2    0    0  0.83694463219E+01  0.36201328615E+02  0.14237853068E+03  0.14714696675E+03  0.00000000000E+00 0.  1.
         11    1    1    2    0    0 -0.28184286356E+02 -0.51297372422E+02  0.32255429961E+03  0.32782167502E+03  0.00000000000E+00 0. -1.
</event>
<event>
 7    1  0.2810263E-009  0.1797334E+03  0.7561462E-02  0.1168061E+00
          1   -1    0    0  501    0  0.00000000000E+00  0.00000000000E+00  0.31045019192E+02  0.31045019192E+02  0.00000000000E+00 0. -1.
         -1   -1    0    0    0  501 -0.00000000000E+00 -0.00000000000E+00 -0.12141490129E+04  0.12141490129E+04  0.00000000000E+00 0.  1.
         25    2    1    2    0    0 -0.15549297146E+03 -0.31421731849E+02 -0.71779774877E+03  0.74568482549E+03  0.12508741514E+03 0.  0.
          5    1    3    3  502    0 -0.72395558379E+02 -0.55609746873E+02 -0.19014115930E+03  0.21096135589E+03  0.41800000000E+01 0. -1.
         -5    1    3    3    0  502 -0.83097413084E+02  0.24188015024E+02 -0.52765658947E+03  0.53472346960E+03  0.41800000000E+01 0. -1.
        -11    1    1    2    0    0  0.15430325340E+02 -0.25859023880E+02 -0.86800129315E+02  0.91875168056E+02  0.00000000000E+00 0. -1.
         11    1    1    2    0    0  0.14006264612E+03  0.57280755730E+02 -0.37850611567E+03  0.40763403859E+03  0.00000000000E+00 0.  1.
</event>
<event>
 7    1  0.2810263E-009  0.1023011E+03  0.7561462E-02  0.1275530E+00
          3   -1    0    0  501    0  0.00000000000E+00  0.00000000000E+00  0.13445622674E+03  0.13445622674E+03  0.00000000000E+00 0. -1.
         -3   -1    0    0    0  501 -0.00000000000E+00 -0.00000000000E+00 -0.13892589843E+03  0.13892589843E+03  0.00000000000E+00 0.  1.
         25    2    1    2    0    0  0.61098964012E+02  0.34172418318E+02  0.39807751550E+02  0.14877139741E+03  0.12508970392E+03 0.  0.
          5    1    3    3  502    0  0.76410984942E+02  0.89474199603E+01 -0.22023357838E+02  0.80132363214E+02  0.41800000000E+01 0.  1.
         -5    1    3    3    0  502 -0.15312020930E+02  0.25224998357E+02  0.61831109388E+02  0.68639034196E+02  0.41800000000E+01 0.  1.
        -11    1    1    2    0    0 -0.42619962220E+02  0.15031522054E+02 -0.54776157257E+02  0.71012923040E+02  0.00000000000E+00 0.  1.
         11    1    1    2    0    0 -0.18479001792E+02 -0.49203940371E+02  0.10498734014E+02  0.53597804724E+02  0.00000000000E+00 0. -1.
</event>
<event>
 7    1  0.2810263E-009  0.9463691E+02  0.7561462E-02  0.1291996E+00
         -1   -1    0    0    0  501 -0.00000000000E+00  0.00000000000E+00  0.27061042964E+02  0.27061042964E+02  0.00000000000E+00 0.  1.
          1   -1    0    0  501    0  0.00000000000E+00 -0.00000000000E+00 -0.61797469113E+03  0.61797469113E+03  0.00000000000E+00 0. -1.
         25    2    1    2    0    0 -0.15676921065E+02 -0.60226301947E+02 -0.23408829429E+03  0.27260698155E+03  0.12507703053E+03 0.  0.
          5    1    3    3  502    0  0.19533188318E+02 -0.50492954261E+02 -0.24073454678E+02  0.59397706151E+02  0.41800000000E+01 0. -1.
         -5    1    3    3    0  502 -0.35210109383E+02 -0.97333476864E+01 -0.21001483961E+03  0.21320927540E+03  0.41800000000E+01 0. -1.
        -11    1    1    2    0    0 -0.24410929342E+02 -0.16613082530E+01 -0.38060328789E+02  0.45246458911E+02  0.00000000000E+00 0. -1.
         11    1    1    2    0    0  0.40087850407E+02  0.61887610200E+02 -0.31876502509E+03  0.32718229363E+03  0.00000000000E+00 0.  1.
</event>
<event>
 7    1  0.2810263E-009  0.2263488E+03  0.7561462E-02  0.1129236E+00
          2   -1    0    0  501    0  0.00000000000E+00  0.00000000000E+00  0.15313873886E+04  0.15313873886E+04  0.00000000000E+00 0. -1.
         -2   -1    0    0    0  501 -0.00000000000E+00 -0.00000000000E+00 -0.40050949927E+02  0.40050949927E+02  0.00000000000E+00 0.  1.
         25    2    1    2    0    0 -0.16023179373E+03 -0.13283272417E+03  0.10020167708E+04  0.10310207497E+04  0.12508963582E+03 0.  0.
          5    1    3    3  502    0 -0.24619081824E+00  0.16667523893E+02  0.29420514268E+02  0.34072071003E+02  0.41800000000E+01 0.  1.
         -5    1    3    3    0  502 -0.15998560291E+03 -0.14950024807E+03  0.97259625655E+03  0.99694867870E+03  0.41800000000E+01 0.  1.
        -11    1    1    2    0    0  0.56142068379E+02  0.85205571167E+02  0.32127800083E+03  0.33709268016E+03  0.00000000000E+00 0. -1.
         11    1    1    2    0    0  0.10408972535E+03  0.47627153007E+02  0.16804166705E+03  0.20332490868E+03  0.00000000000E+00 0.  1.
</event>
<event>
 7    1  0.2810263E-009  0.1392061E+03  0.7561462E-02  0.1214401E+00
         -3   -1    0    0    0  501 -0.00000000000E+00  0.00000000000E+00  0.16458463150E+03  0.16458463150E+03  0.00000000000E+00 0.  1.
          3   -1    0    0  501    0  0.00000000000E+00 -0.00000000000E+00 -0.14533524039E+03  0.14533524039E+03  0.00000000000E+00 0. -1.
         25    2    1    2    0    0  0.10472837433E+03  0.32901034226E+02  0.18535799786E+02  0.16745652689E+03  0.12509037566E+03 0.  0.
          5    1    3    3  502    0  0.10203195781E+03 -0.21026468351E+01  0.55551849108E+02  0.11626874850E+03  0.41800000000E+01 0. -1.
         -5    1    3    3    0  502  0.26964165182E+01  0.35003681061E+02 -0.37016049322E+02  0.51187778398E+02  0.41800000000E+01 0. -1.
        -11    1    1    2    0    0 -0.42921161517E+02 -0.59718930126E+02  0.10821006446E+02  0.74334856574E+02  0.00000000000E+00 0.  1.
         11    1    1    2    0    0 -0.61807212808E+02  0.26817895900E+02 -0.10107415121E+02  0.68128488432E+02  0.00000000000E+00 0. -1.
</event>
<event>
 7    1  0.2810263E-009  0.7553546E+02  0.7561462E-02  0.1342221E+00
         -1   -1    0    0    0  501 -0.00000000000E+00  0.00000000000E+00  0.32410787831E+03  0.32410787831E+03  0.00000000000E+00 0.  1.
          1   -1    0    0  501    0  0.00000000000E+00 -0.00000000000E+00 -0.45810395556E+02  0.45810395556E+02  0.00000000000E+00 0. -1.
         25    2    1    2    0    0  0.41288287557E+02  0.12789782699E+02  0.20917768710E+03  0.24752589013E+03  0.12508181431E+03 0.  0.
          5    1    3    3  502    0  0.54967012608E+01  0.13728742599E+02  0.21087945648E+03  0.21143866643E+03  0.41800000000E+01 0.  1.
         -5    1    3    3    0  502  0.35791586297E+02 -0.93895989956E+00 -0.17017693725E+01  0.36087223699E+02  0.41800000000E+01 0.  1.
        -11    1    1    2    0    0 -0.42337342686E+02 -0.48243862627E+02  0.34692188873E+02  0.72962105478E+02  0.00000000000E+00 0. -1.
         11    1    1    2    0    0  0.10490551281E+01  0.35454079928E+02  0.34427606773E+02  0.49430278255E+02  0.00000000000E+00 0.  1.
</event>
<event>
 7    1  0.2810263E-009  0.1166804E+03  0.7561462E-02  0.1248676E+00
          1   -1    0    0  501    0  0.00000000000E+00  0.00000000000E+00  0.25956796303E+03  0.25956796303E+03  0.00000000000E+00 0. -1.
         -1   -1    0    0    0  501 -0.00000000000E+00 -0.00000000000E+00 -0.96349006692E+02  0.96349006692E+02  0.00000000000E+00 0.  1.
         25    2    1    2    0    0 -0.98622658925E+02 -0.31468922330E+02  0.30487792012E+02  0.16520797045E+03  0.12508975222E+03 0.  0.
          5    1    3    3  502    0 -0.45256250274E+02 -0.36693992806E+02 -0.44142732322E+02  0.73216326825E+02  0.41800000000E+01 0. -1.
         -5    1    3    3    0  502 -0.53366408651E+02  0.52250704761E+01  0.74630524334E+02  0.91991643622E+02  0.41800000000E+01 0. -1.
        -11    1    1    2    0    0  0.42846538853E+02 -0.18129967882E+02  0.97795853648E+02  0.10829843313E+03  0.00000000000E+00 0. -1.
         11    1    1    2    0    0  0.55776120073E+02  0.49598890213E+02  0.34935310678E+02  0.82410566148E+02  0.00000000000E+00 0.  1.
</event>
<event>
 7    1  0.2810263E-009  0.3064883E+03  0.7561462E-02  0.1082041E+00
          1   -1    0    0  501    0  0.00000000000E+00  0.00000000000E+00  0.43554722219E+03  0.43554722219E+03  0.00000000000E+00 0. -1.
         -1   -1    0    0    0  501 -0.00000000000E+00 -0.00000000000E+00 -0.28141989971E+03  0.28141989971E+03  0.00000000000E+00 0.  1.
         25    2    1    2    0    0  0.18859220493E+02  0.29155696971E+03  0.24116987024E+03  0.39896453852E+03  0.12509460378E+03 0.  0.
          5    1    3    3  502    0  0.29161662082E+02  0.12381606560E+02  0.34857222141E+01  0.32145440979E+02  0.41800000000E+01 0.  1.
         -5    1    3    3    0  502 -0.10302441589E+02  0.27917536315E+03  0.23768414803E+03  0.36681909754E+03  0.41800000000E+01 0.  1.
        -11    1    1    2    0    0 -0.47543136718E+02 -0.20489075632E+03 -0.84512043143E+02  0.22667787124E+03  0.00000000000E+00 0.  1.
         11    1    1    2    0    0  0.28683916225E+02 -0.86666213392E+02 -0.25305046176E+01  0.91324712139E+02  0.00000000000E+00 0. -1.
</event>
<event>
 7    1  0.2810263E-009  0.1068930E+03  0.7561462E-02  0.1266434E+00
          1   -1    0    0  501    0  0.00000000000E+00  0.00000000000E+00  0.59141818525E+02  0.59141818525E+02  0.00000000000E+00 0. -1.
         -1   -1    0    0    0  501 -0.00000000000E+00 -0.00000000000E+00 -0.24032798562E+03  0.24032798562E+03  0.00000000000E+00 0.  1.
         25    2    1    2    0    0 -0.24151720134E+02  0.13437407958E+02 -0.15662090768E+03  0.20234119073E+03  0.12509188314E+03 0.  0.
          5    1    3    3  502    0  0.50167841323E+02 -0.72241130458E+01 -0.62247656477E+02  0.80381858956E+02  0.41800000000E+01 0.  1.
         -5    1    3    3    0  502 -0.74319561457E+02  0.20661521004E+02 -0.94373251201E+02  0.12195933178E+03  0.41800000000E+01 0.  1.
        -11    1    1    2    0    0  0.53937652606E+02 -0.14566843271E+02  0.37770129037E+01  0.55997581359E+02  0.00000000000E+00 0.  1.
         11    1    1    2    0    0 -0.29785932472E+02  0.11294353131E+01 -0.28342272315E+02  0.41131032048E+02  0.00000000000E+00 0. -1.
</event>
<event>
 7    1  0.2810263E-009  0.1008679E+03  0.7561462E-02  0.1278481E+00
         -1   -1    0    0    0  501 -0.00000000000E+00  0.00000000000E+00  0.59812447972E+03  0.59812447972E+03  0.00000000000E+00 0.  1.
          1   -1    0    0  501    0  0.00000000000E+00 -0.00000000000E+00 -0.20154038053E+02  0.20154038053E+02  0.00000000000E+00 0. -1.
         25    2    1    2    0    0  0.11833817423E+01 -0.28921188190E+02  0.26274725062E+03  0.29243926655E+03  0.12508705526E+03 0.  0.
          5    1    3    3  502    0 -0.50997686016E+02  0.15912828461E+02  0.72958131183E+02  0.90522612613E+02  0.41800000000E+01 0.  1.
         -5    1    3    3    0  502  0.52181067758E+02 -0.44834016651E+02  0.18978911943E+03  0.20191665394E+03  0.41800000000E+01 0.  1.
        -11    1    1    2    0    0  0.23301814898E+02 -0.15860910885E+02  0.72050032697E+02  0.77367630720E+02  0.00000000000E+00 0. -1.
         11    1    1    2    0    0 -0.24485196640E+02  0.44782099075E+02  0.24317315836E+03  0.24847162051E+03  0.00000000000E+00 0.  1.
</event>
<event>
 7    1  0.2810263E-009  0.1326180E+03  0.7561462E-02  0.1223622E+00
         -3   -1    0    0    0  501 -0.00000000000E+00  0.00000000000E+00  0.74422388774E+02  0.74422388774E+02  0.00000000000E+00 0.  1.
          3   -1    0    0  501    0  0.00000000000E+00 -0.00000000000E+00 -0.30268695325E+03  0.30268695325E+03  0.00000000000E+00 0. -1.
         25    2    1    2    0    0 -0.98095099614E+02  0.25448135365E+02 -0.10339700825E+03  0.19133438308E+03  0.12509056189E+03 0.  0.
          5    1    3    3  502    0 -0.92731703772E+02 -0.35447721435E+02 -0.70048142364E+02  0.12157271276E+03  0.41800000000E+01 0.  1.
         -5    1    3    3    0  502 -0.53633958414E+01  0.60895856800E+02 -0.33348865887E+02  0.69761670323E+02  0.41800000000E+01 0.  1.
        -11    1    1    2    0    0  0.42285515030E+02  0.21443343404E+01 -0.11524657600E+03  0.12277799571E+03  0.00000000000E+00 0. -1.
         11    1    1    2    0    0  0.55809584583E+02 -0.27592469705E+02 -0.96209802272E+01  0.62996963231E+02  0.00000000000E+00 0.  1.
</event>
<event>
 7    1  0.2810263E-009  0.1133955E+03  0.7561462E-02  0.1254408E+00
          2   -1    0    0  501    0  0.00000000000E+00  0.00000000000E+00  0.71056017943E+03  0.71056017943E+03  0.00000000000E+00 0. -1.
         -2   -1    0    0    0  501 -0.00000000000E+00 -0.00000000000E+00 -0.20116491776E+02  0.20116491776E+02  0.00000000000E+00 0.  1.
         25    2    1    2    0    0 -0.11485015711E+02 -0.43939745549E+02  0.33305821616E+03  0.35866417265E+03  0.12509838756E+03 0.  0.
          5    1    3    3  502    0  0.42941024503E+02  0.12772016329E+02  0.63340311390E+02  0.77695066983E+02  0.41800000000E+01 0. -1.
         -5    1    3    3    0  502 -0.54426040215E+02 -0.56711761878E+02  0.26971790477E+03  0.28096910567E+03  0.41800000000E+01 0. -1.
        -11    1    1    2    0    0  0.52365367366E+02  0.24298970405E+02  0.18833595958E+03  0.19698478452E+03  0.00000000000E+00 0.  1.
         11    1    1    2    0    0 -0.40880351655E+02  0.19640775144E+02  0.16904951192E+03  0.17502771403E+03  0.00000000000E+00 0. -1.
</event>
<event>
 7    1  0.2810263E-009  0.1566784E+03  0.7561462E-02  0.1192499E+00
          2   -1    0    0  501    0  0.00000000000E+00  0.00000000000E+00  0.87270969980E+02  0.87270969980E+02  0.00000000000E+00 0. -1.
         -2   -1    0    0    0  501 -0.00000000000E+00 -0.00000000000E+00 -0.29598042010E+03  0.29598042010E+03  0.00000000000E+00 0.  1.
         25    2    1    2    0    0 -0.61353420102E+02 -0.10171189837E+03 -0.11341834606E+03  0.20645069691E+03  0.12509443074E+03 0.  0.
          5    1    3    3  502    0 -0.61294528420E+02  0.21777136814E+01 -0.14988901910E+02  0.63276387631E+02  0.41800000000E+01 0. -1.
         -5    1    3    3    0  502 -0.58891681078E-01 -0.10388961205E+03 -0.98429444154E+02  0.14317430928E+03  0.41800000000E+01 0. -1.
        -11    1    1    2    0    0  0.84351890907E+02  0.78380292228E+02 -0.65238558393E+02  0.13234342149E+03  0.00000000000E+00 0. -1.
         11    1    1    2    0    0 -0.22998470806E+02  0.23331606144E+02 -0.30052545661E+02  0.44457271681E+02  0.00000000000E+00 0.  1.
</event>
<event>
 7    1  0.2810263E-009  0.9151106E+02  0.7561462E-02  0.1299233E+00
          1   -1    0    0  501    0  0.00000000000E+00  0.00000000000E+00  0.11988481367E+03  0.11988481367E+03  0.00000000000E+00 0. -1.
         -1   -1    0    0    0  501 -0.00000000000E+00 -0.00000000000E+00 -0.14770901718E+03  0.14770901718E+03  0.00000000000E+00 0.  1.
         25    2    1    2    0    0  0.18580579639E+02  0.21991547798E+02  0.57113953112E+02  0.14049178091E+03  0.12508825184E+03 0.  0.
          5    1    3    3  502    0  0.17972345709E+02  0.55165043984E+02 -0.15798222224E+02  0.60276392671E+02  0.41800000000E+01 0.  1.
         -5    1    3    3    0  502  0.60823392998E+00 -0.33173496186E+02  0.72912175336E+02  0.80215388237E+02  0.41800000000E+01 0.  1.
        -11    1    1    2    0    0  0.26664896720E+02 -0.35309435849E+02 -0.57441772677E+02  0.72507449447E+02  0.00000000000E+00 0.  1.
         11    1    1    2    0    0 -0.45245476358E+02  0.13317888050E+02 -0.27496383945E+02  0.54594600494E+02  0.00000000000E+00 0. -1.
</event>
<event>
 7    1  0.2810263E-009  0.1146225E+03  0.7561462E-02  0.1252241E+00
         -1   -1    0    0    0  501 -0.00000000000E+00  0.00000000000E+00  0.76374460579E+02  0.76374460579E+02  0.00000000000E+00 0.  1.
          1   -1    0    0  501    0  0.00000000000E+00 -0.00000000000E+00 -0.29595632555E+03  0.29595632555E+03  0.00000000000E+00 0. -1.
         25    2    1    2    0    0  0.53765548911E+02  0.42832404666E+02 -0.26882664913E+02  0.14524394838E+03  0.12509107773E+03 0.  0.
          5    1    3    3  502    0 -0.31800225451E+02 -0.77302375075E+01 -0.31561533509E+02  0.45657570107E+02  0.41800000000E+01 0.  1.
         -5    1    3    3    0  502  0.85565774362E+02  0.50562642173E+02  0.46788685964E+01  0.99586378270E+02  0.41800000000E+01 0.  1.
        -11    1    1    2    0    0 -0.60657980629E+02 -0.78996493359E+01 -0.17861004236E+03  0.18879444458E+03  0.00000000000E+00 0. -1.
         11    1    1    2    0    0  0.68924317181E+01 -0.34932755330E+02 -0.14089157700E+02  0.38292393169E+02  0.00000000000E+00 0.  1.
</event>
<event>
 7    1  0.2810263E-009  0.1255616E+03  0.7561462E-02  0.1234194E+00
         -1   -1    0    0    0  501 -0.00000000000E+00  0.00000000000E+00  0.98151491929E+03  0.98151491929E+03  0.00000000000E+00 0.  1.
          1   -1    0    0  501    0  0.00000000000E+00 -0.00000000000E+00 -0.21292748230E+02  0.21292748230E+02  0.00000000000E+00 0. -1.
         25    2    1    2    0    0 -0.65658244259E+01  0.92180722942E+02  0.43115161884E+03  0.45834806511E+03  0.12510329584E+03 0.  0.
          5    1    3    3  502    0  0.31424558120E+02 -0.16159008013E+01  0.23935521627E+03  0.24145083546E+03  0.41800000000E+01 0. -1.
         -5    1    3    3    0  502 -0.37990382546E+02  0.93796623744E+02  0.19179640257E+03  0.21689722965E+03  0.41800000000E+01 0. -1.
        -11    1    1    2    0    0  0.37646980496E+02 -0.28441875982E+02  0.11405548998E+03  0.12342969758E+03  0.00000000000E+00 0. -1.
         11    1    1    2    0    0 -0.31081156070E+02 -0.63738846960E+02  0.41501506225E+03  0.42102990484E+03  0.00000000000E+00 0.  1.
</event>
<event>
 7    1  0.2810263E-009  0.1103372E+03  0.7561462E-02  0.1259947E+00
          1   -1    0    0  501    0  0.00000000000E+00  0.00000000000E+00  0.16612855081E+03  0.16612855081E+03  0.00000000000E+00 0. -1.
         -1   -1    0    0    0  501 -0.00000000000E+00 -0.00000000000E+00 -0.11876012591E+03  0.11876012591E+03  0.00000000000E+00 0.  1.
         25    2    1    2    0    0 -0.16026045016E+02  0.48252418861E+02  0.10041697417E+03  0.16827428750E+03  0.12509011586E+03 0.  0.
          5    1    3    3  502    0  0.23218402131E+02  0.74427705489E+02  0.30488680952E+02  0.83818909609E+02  0.41800000000E+01 0. -1.
         -5    1    3    3    0  502 -0.39244447148E+02 -0.26175286628E+02  0.69928293216E+02  0.84455377888E+02  0.41800000000E+01 0. -1.
        -11    1    1    2    0    0 -0.65463906451E+01  0.21212315758E+02 -0.34885280870E+02  0.41349732668E+02  0.00000000000E+00 0.  1.
         11    1    1    2    0    0  0.22572435661E+02 -0.69464734619E+02 -0.18163268396E+02  0.75264656554E+02  0.00000000000E+00 0. -1.
</event>
<event>
 7    1  0.2810263E-009  0.1223453E+03  0.7561462E-02  0.1239277E+00
         -2   -1    0    0    0  501 -0.00000000000E+00  0.00000000000E+00  0.92057531656E+02  0.92057531656E+02  0.00000000000E+00 0.  1.
          2   -1    0    0  501    0  0.00000000000E+00 -0.00000000000E+00 -0.21015365053E+03  0.21015365053E+03  0.00000000000E+00 0. -1.
         25    2    1    2    0    0 -0.81512930804E+02 -0.24924864206E+02 -0.78894692638E+02  0.17069734286E+03  0.12509038168E+03 0.  0.
          5    1    3    3  502    0  0.25375241877E+02 -0.28787852000E+02 -0.15411188668E+01  0.38632768092E+02  0.41800000000E+01 0. -1.
         -5    1    3    3    0  502 -0.10688817268E+03  0.38629877938E+01 -0.77353573771E+02  0.13206457477E+03  0.41800000000E+01 0. -1.
        -11    1    1    2    0    0  0.82320032435E+02  0.86713924181E+01 -0.62058480383E+02  0.10345547726E+03  0.00000000000E+00 0. -1.
         11    1    1    2    0    0 -0.80710163182E+00  0.16253471788E+02  0.22857054143E+02  0.28058362075E+02  0.00000000000E+00 0.  1.
</event>
<event>
 7    1  0.2810263E-009  0.1063959E+03  0.7561462E-02  0.1267394E+00
          1   -1    0    0  501    0  0.00000000000E+00  0.00000000000E+00  0.26557499551E+03  0.26557499551E+03  0.00000000000E+00 0. -1.
         -1   -1    0    0    0  501 -0.00000000000E+00 -0.00000000000E+00 -0.47369291388E+02  0.47369291388E+02  0.00000000000E+00 0.  1.
         25    2    1    2    0    0  0.15113305879E+02  0.22829028540E+02  0.14622804423E+03  0.19437051570E+03  0.12509068668E+03 0.  0.
          5    1    3    3  502    0 -0.49746754288E+02  0.31672882833E+02  0.47502948405E+02  0.75841371139E+02  0.41800000000E+01 0.  1.
         -5    1    3    3    0  502  0.64860060166E+02 -0.88438542925E+01  0.98725095827E+02  0.11852914456E+03  0.41800000000E+01 0.  1.
        -11    1    1    2    0    0 -0.15026650736E+02  0.30893318283E+02  0.84536441688E+01  0.35378827660E+02  0.00000000000E+00 0.  1.
         11    1    1    2    0    0 -0.86655142483E-01 -0.53722346823E+02  0.63524015722E+02  0.83194943541E+02  0.00000000000E+00 0. -1.
</event>
<event>
 7    1  0.2810263E-009  0.9517746E+02  0.7561462E-02  0.1290777E+00
          1   -1    0    0  501    0  0.00000000000E+00  0.00000000000E+00  0.41906305182E+03  0.41906305182E+03  0.00000000000E+00 0. -1.
         -1   -1    0    0    0  501 -0.00000000000E+00 -0.00000000000E+00 -0.30568689298E+02  0.30568689298E+02  0.00000000000E+00 0.  1.
         25    2    1    2    0    0 -0.29068111801E+02  0.67583671893E+01  0.22590990572E+03  0.25994719479E+03  0.12508648178E+03 0.  0.
          5    1    3    3  502    0  0.32203437136E+02  0.20445914417E+02  0.17370929989E+02  0.42122658847E+02  0.41800000000E+01 0. -1.
         -5    1    3    3    0  502 -0.61271548937E+02 -0.13687547227E+02  0.20853897573E+03  0.21782453594E+03  0.41800000000E+01 0. -1.
        -11    1    1    2    0    0  0.58484116040E+02  0.15117098142E+01  0.65109621582E+02  0.87532507779E+02  0.00000000000E+00 0.  1.
         11    1    1    2    0    0 -0.29416004239E+02 -0.82700770035E+01  0.97474835220E+02  0.10215203855E+03  0.00000000000E+00 0. -1.
</event>
<event>
 7    1  0.2810263E-009  0.9345135E+02  0.7561462E-02  0.1294703E+00
         -2   -1    0    0    0  501 -0.00000000000E+00  0.00000000000E+00  0.32574274869E+02  0.32574274869E+02  0.00000000000E+00 0.  1.
          2   -1    0    0  501    0  0.00000000000E+00 -0.00000000000E+00 -0.50504332333E+03  0.50504332333E+03  0.00000000000E+00 0. -1.
         25    2    1    2    0    0  0.30477618086E+02 -0.47032836674E+02 -0.32422108639E+03  0.35200724971E+03  0.12509523595E+03 0.  0.
          5    1    3    3  502    0 -0.37296079494E+02 -0.45179354811E+02 -0.84922853866E+02  0.10325471009E+03  0.41800000000E+01 0. -1.
         -5    1    3    3    0  502  0.67773697580E+02 -0.18534818633E+01 -0.23929823252E+03  0.24875253962E+03  0.41800000000E+01 0. -1.
        -11    1    1    2    0    0 -0.15511840991E+00  0.18829455265E+02  0.10493298031E+02  0.21556478165E+02  0.00000000000E+00 0.  1.
         11    1    1    2    0    0 -0.30322499676E+02  0.28203381409E+02 -0.15874126011E+03  0.16405387033E+03  0.00000000000E+00 0. -1.
</event>
<event>
 7    1  0.2810263E-009  0.1020827E+03  0.7561462E-02  0.1275976E+00
          1   -1    0    0  501    0  0.00000000000E+00  0.00000000000E+00  0.36560570713E+03  0.36560570713E+03  0.00000000000E+00 0.  1.
         -1   -1    0    0    0  501 -0.00000000000E+00 -0.00000000000E+00 -0.37135747220E+02  0.37135747220E+02  0.00000000000E+00 0. -1.
         25    2    1    2    0    0 -0.38289923743E+02 -0.17072594802E+02  0.20214519709E+03  0.24138756091E+03  0.12509069550E+03 0.  0.
          5    1    3    3  502    0  0.34415591033E+02  0.95927297453E+00  0.11544596360E+02  0.36552745669E+02  0.41800000000E+01 0.  1.
         -5    1    3    3    0  502 -0.72705514776E+02 -0.18031867777E+02  0.19060060073E+03  0.20483481524E+03  0.41800000000E+01 0.  1.
        -11    1    1    2    0    0  0.47600673605E+02 -0.23320716305E+02  0.42875472124E+02  0.68176139862E+02  0.00000000000E+00 0. -1.
         11    1    1    2    0    0 -0.93107498621E+01  0.40393311107E+02  0.83449290693E+02  0.93177753581E+02  0.00000000000E+00 0.  1.
</event>
<event>
 7    1  0.2810263E-009  0.6973622E+02  0.7561462E-02  0.1360992E+00
          2   -1    0    0  501    0  0.00000000000E+00  0.00000000000E+00  0.48450642576E+03  0.48450642576E+03  0.00000000000E+00 0. -1.
         -2   -1    0    0    0  501 -0.00000000000E+00 -0.00000000000E+00 -0.30333714189E+02  0.30333714189E+02  0.00000000000E+00 0.  1.
         25    2    1    2    0    0 -0.50972458427E+02 -0.80621492613E+01  0.23053928568E+03  0.26731381768E+03  0.12508047454E+03 0.  0.
          5    1    3    3  502    0 -0.24858005885E+02  0.31324622168E+02  0.21295546151E+03  0.21671791204E+03  0.41800000000E+01 0.  1.
         -5    1    3    3    0  502 -0.26114452542E+02 -0.39386771429E+02  0.17583824168E+02  0.50595905640E+02  0.41800000000E+01 0.  1.
        -11    1    1    2    0    0  0.39621899350E+02  0.82465903420E+01  0.23065473246E+03  0.23417836529E+03  0.00000000000E+00 0. -1.
         11    1    1    2    0    0  0.11350559077E+02 -0.18444108066E+00 -0.70213065674E+01  0.13347956989E+02  0.00000000000E+00 0.  1.
</event>
<event>
 7    1  0.2810263E-009  0.1382579E+03  0.7561462E-02  0.1215692E+00
          2   -1    0    0  501    0  0.00000000000E+00  0.00000000000E+00  0.29336193212E+03  0.29336193212E+03  0.00000000000E+00 0. -1.
         -2   -1    0    0    0  501 -0.00000000000E+00 -0.00000000000E+00 -0.76534709760E+02  0.76534709760E+02  0.00000000000E+00 0.  1.
         25    2    1    2    0    0  0.39262969582E+01  0.88059770648E+02  0.49967206516E+02  0.16097847269E+03  0.12508959960E+03 0.  0.
          5    1    3    3  502    0  0.46049736996E+02  0.98042315609E+02  0.26633716281E+02  0.11162303154E+03  0.41800000000E+01 0.  1.
         -5    1    3    3    0  502 -0.42123440038E+02 -0.99825449606E+01  0.23333490236E+02  0.49355441150E+02  0.41800000000E+01 0.  1.
        -11    1    1    2    0    0  0.42030263881E+02 -0.37881179511E+02  0.62216795981E+02  0.84097898577E+02  0.00000000000E+00 0. -1.
         11    1    1    2    0    0 -0.45956560839E+02 -0.50178591137E+02  0.10464321987E+03  0.12482027062E+03  0.00000000000E+00 0.  1.
</event>
<event>
 7    1  0.2810263E-009  0.9759372E+02  0.7561462E-02  0.1285439E+00
          1   -1    0    0  501    0  0.00000000000E+00  0.00000000000E+00  0.26079505171E+03  0.26079505171E+03  0.00000000000E+00 0. -1.
         -1   -1    0    0    0  501 -0.00000000000E+00 -0.00000000000E+00 -0.60640694487E+02  0.60640694487E+02  0.00000000000E+00 0.  1.
         25    2    1    2    0    0 -0.39420856437E+01 -0.34466760425E+01  0.33959770021E+02  0.12972444358E+03  0.12509094959E+03 0.  0.
          5    1    3    3  502    0  0.37383888612E+02 -0.35794816465E+02 -0.18767662498E+02  0.55213418379E+02  0.41800000000E+01 0.  1.
         -5    1    3    3    0  502 -0.41325974256E+02  0.32348140422E+02  0.52727432519E+02  0.74511025205E+02  0.41800000000E+01 0.  1.
        -11    1    1    2    0    0  0.23199127885E+02  0.41738861152E+02  0.56719739412E+02  0.74144864312E+02  0.00000000000E+00 0.  1.
         11    1    1    2    0    0 -0.19257042241E+02 -0.38292185109E+02  0.10947484779E+03  0.11756643830E+03  0.00000000000E+00 0. -1.
</event>
<event>
 7    1  0.2810263E-009  0.1102780E+03  0.7561462E-02  0.1260056E+00
         -2   -1    0    0    0  501 -0.00000000000E+00  0.00000000000E+00  0.40439315531E+03  0.40439315531E+03  0.00000000000E+00 0.  1.
          2   -1    0    0  501    0  0.00000000000E+00 -0.00000000000E+00 -0.77620797141E+02  0.77620797141E+02  0.00000000000E+00 0. -1.
         25    2    1    2    0    0  0.65445628832E+02 -0.31157453311E+02  0.33860622418E+03  0.36817891707E+03  0.12509045803E+03 0.  0.
          5    1    3    3  502    0 -0.19098211079E+02 -0.51185720364E+01  0.21594201571E+03  0.21688561040E+03  0.41800000000E+01 0.  1.
         -5    1    3    3    0  502  0.84543839912E+02 -0.26038881275E+02  0.12266420847E+03  0.15129330667E+03  0.41800000000E+01 0.  1.
        -11    1    1    2    0    0  0.20896487628E+02  0.81559847922E+01 -0.97454262120E+01  0.24457240547E+02  0.00000000000E+00 0.  1.
         11    1    1    2    0    0 -0.86342116461E+02  0.23001468519E+02 -0.20884398007E+01  0.89377794836E+02  0.00000000000E+00 0. -1.
</event>
<event>
 7    1  0.2810263E-009  0.1551494E+03  0.7561462E-02  0.1194284E+00
          2   -1    0    0  501    0  0.00000000000E+00  0.00000000000E+00  0.31910465515E+03  0.31910465515E+03  0.00000000000E+00 0. -1.
         -2   -1    0    0    0  501 -0.00000000000E+00 -0.00000000000E+00 -0.98779638548E+02  0.98779638548E+02  0.00000000000E+00 0.  1.
         25    2    1    2    0    0 -0.13197884478E+02 -0.13677314044E+03  0.13124591715E+03  0.22749227416E+03  0.12508464307E+03 0.  0.
          5    1    3    3  502    0 -0.37634389489E+02 -0.11659966478E+03  0.37124402932E+02  0.12809185295E+03  0.41800000000E+01 0.  1.
         -5    1    3    3    0  502  0.24436505011E+02 -0.20173475663E+02  0.94121514220E+02  0.99400421209E+02  0.41800000000E+01 0.  1.
        -11    1    1    2    0    0 -0.29022427637E+02  0.79182200756E+02  0.83639767467E+02  0.11877597789E+03  0.00000000000E+00 0.  1.
         11    1    1    2    0    0  0.42220312115E+02  0.57590939684E+02  0.54393319806E+01  0.71616041647E+02  0.00000000000E+00 0. -1.
</event>
<event>
 7    1  0.2810263E-009  0.1559504E+03  0.7561462E-02  0.1193346E+00
          3   -1    0    0  501    0  0.00000000000E+00  0.00000000000E+00  0.28036293319E+02  0.28036293319E+02  0.00000000000E+00 0. -1.
         -3   -1    0    0    0  501 -0.00000000000E+00 -0.00000000000E+00 -0.11378293738E+04  0.11378293738E+04  0.00000000000E+00 0.  1.
         25    2    1    2    0    0  0.86740830903E+02  0.10906530555E+03 -0.55375330852E+03  0.58455934633E+03  0.12509072733E+03 0.  0.
          5    1    3    3  502    0  0.62184309478E+02  0.96330648697E+02 -0.54234197823E+03  0.55434535803E+03  0.41800000000E+01 0. -1.
         -5    1    3    3    0  502  0.24556521425E+02  0.12734656855E+02 -0.11411330288E+02  0.30213988294E+02  0.41800000000E+01 0. -1.
        -11    1    1    2    0    0 -0.10800609441E+03 -0.93201090114E+02 -0.45492297075E+03  0.47676689162E+03  0.00000000000E+00 0. -1.
         11    1    1    2    0    0  0.21265263512E+02 -0.15864215438E+02 -0.10111680118E+03  0.10453942914E+03  0.00000000000E+00 0.  1.
</event>
<event>
 7    1  0.2810263E-009  0.3374200E+02  0.7561462E-02  0.1560064E+00
         -2   -1    0    0    0  501 -0.00000000000E+00  0.00000000000E+00  0.10905616403E+03  0.10905616403E+03  0.00000000000E+00 0. -1.
          2   -1    0    0  501    0  0.00000000000E+00 -0.00000000000E+00 -0.12005806886E+03  0.12005806886E+03  0.00000000000E+00 0.  1.
         25    2    1    2    0    0 -0.43334848071E+00 -0.12221395447E+02 -0.37115577598E+02  0.13104729579E+03  0.12508508039E+03 0.  0.
          5    1    3    3  502    0 -0.60491346608E+01  0.71830608314E+01 -0.81477663725E+02  0.82123507469E+02  0.41800000000E+01 0. -1.
         -5    1    3    3    0  502  0.56157861801E+01 -0.19404456278E+02  0.44362086126E+02  0.48923788318E+02  0.41800000000E+01 0. -1.
        -11    1    1    2    0    0  0.17428220920E+02  0.51942860716E+01 -0.32167945564E+02  0.36952675330E+02  0.00000000000E+00 0.  1.
         11    1    1    2    0    0 -0.16994872440E+02  0.70271093750E+01  0.58281618339E+02  0.61114261769E+02  0.00000000000E+00 0. -1.
</event>
<event>
 7    1  0.2810263E-009  0.2883780E+03  0.7561462E-02  0.1091199E+00
          1   -1    0    0  501    0  0.00000000000E+00  0.00000000000E+00  0.12719859558E+03  0.12719859558E+03  0.00000000000E+00 0. -1.
         -1   -1    0    0    0  501 -0.00000000000E+00 -0.00000000000E+00 -0.94439535143E+03  0.94439535143E+03  0.00000000000E+00 0.  1.
         25    2    1    2    0    0  0.37095266541E+02  0.27103850537E+03 -0.13386439194E+03  0.32924952206E+03  0.12509053582E+03 0.  0.
          5    1    3    3  502    0  0.82612276477E+02  0.16485275495E+03 -0.93601339866E+02  0.20683302992E+03  0.41800000000E+01 0. -1.
         -5    1    3    3    0  502 -0.45517009936E+02  0.10618575042E+03 -0.40263052069E+02  0.12241649214E+03  0.41800000000E+01 0. -1.
        -11    1    1    2    0    0 -0.13052644709E+01 -0.16081255971E+03 -0.50210575812E+03  0.52723104557E+03  0.00000000000E+00 0.  1.
         11    1    1    2    0    0 -0.35790002070E+02 -0.11022594566E+03 -0.18122660579E+03  0.21511337939E+03  0.00000000000E+00 0. -1.
</event>
<event>
 7    1  0.2810263E-009  0.1119032E+03  0.7561462E-02  0.1257085E+00
         -1   -1    0    0    0  501 -0.00000000000E+00  0.00000000000E+00  0.58507936466E+02  0.58507936466E+02  0.00000000000E+00 0.  1.
          1   -1    0    0  501    0  0.00000000000E+00 -0.00000000000E+00 -0.29708053800E+03  0.29708053800E+03  0.00000000000E+00 0. -1.
         25    2    1    2    0    0 -0.64694702691E+02 -0.15706826540E+02 -0.17533052619E+03  0.22543369891E+03  0.12508976871E+03 0.  0.
          5    1    3    3  502    0 -0.64540633975E+02  0.32952719471E+02 -0.42974339587E+02  0.84354261406E+02  0.41800000000E+01 0.  1.
         -5    1    3    3    0  502 -0.15406871573E+00 -0.48659546010E+02 -0.13235618660E+03  0.14107943751E+03  0.41800000000E+01 0.  1.
        -11    1    1    2    0    0  0.50291514857E+01 -0.27981825260E+02 -0.46230585130E+02  0.54272846904E+02  0.00000000000E+00 0. -1.
         11    1    1    2    0    0  0.59665551205E+02  0.43688651800E+02 -0.17011490217E+02  0.75881928653E+02  0.00000000000E+00 0.  1.
</event>
<event>
 7    1  0.2810263E-009  0.1100243E+03  0.7561462E-02  0.1260525E+00
          2   -1    0    0  501    0  0.00000000000E+00  0.00000000000E+00  0.42908195700E+03  0.42908195700E+03  0.00000000000E+00 0. -1.
         -2   -1    0    0    0  501 -0.00000000000E+00 -0.00000000000E+00 -0.41092418951E+02  0.41092418951E+02  0.00000000000E+00 0.  1.
         25    2    1    2    0    0 -0.51692496975E+02  0.47784940430E+02  0.22633696304E+03  0.26801354784E+03  0.12508927296E+03 0.  0.
          5    1    3    3  502    0 -0.71855245291E+02  0.36399115875E+02  0.23042299143E+03  0.24413172528E+03  0.41800000000E+01 0.  1.
         -5    1    3    3    0  502  0.20162748315E+02  0.11385824555E+02 -0.40860283882E+01  0.23881822552E+02  0.41800000000E+01 0.  1.
        -11    1    1    2    0    0  0.41080118962E+02 -0.75628006901E+02  0.14332001558E+03  0.16717595063E+03  0.00000000000E+00 0. -1.
         11    1    1    2    0    0  0.10612378013E+02  0.27843066471E+02  0.18332559425E+02  0.34984877486E+02  0.00000000000E+00 0.  1.
</event>
<event>
 7    1  0.2810263E-009  0.9782954E+02  0.7561462E-02  0.1284927E+00
         -2   -1    0    0    0  501 -0.00000000000E+00  0.00000000000E+00  0.41247208928E+02  0.41247208928E+02  0.00000000000E+00 0. -1.
          2   -1    0    0  501    0  0.00000000000E+00 -0.00000000000E+00 -0.31774882524E+03  0.31774882524E+03  0.00000000000E+00 0.  1.
         25    2    1    2    0    0  0.37296763496E+02  0.20871753489E+01 -0.14877506876E+03  0.19792598120E+03  0.12508104605E+03 0.  0.
          5    1    3    3  502    0 -0.42706427497E+02  0.10553474759E+02 -0.26584538838E+02  0.51569612024E+02  0.41800000000E+01 0.  1.
         -5    1    3    3    0  502  0.80003190993E+02 -0.84662994106E+01 -0.12219052992E+03  0.14635636917E+03  0.41800000000E+01 0.  1.
        -11    1    1    2    0    0 -0.33518302894E+02 -0.28642068587E+02 -0.12678387809E+03  0.13423113077E+03  0.00000000000E+00 0.  1.
         11    1    1    2    0    0 -0.37784606020E+01  0.26554893239E+02 -0.94266945681E+00  0.26838922205E+02  0.00000000000E+00 0. -1.
</event>
<event>
 7    1  0.2846070E-009  0.2064175E+03  0.7561462E-02  0.1144435E+00
          1   -1    0    0  501    0  0.00000000000E+00  0.00000000000E+00  0.16293006875E+04  0.16293006875E+04  0.00000000000E+00 0. -1.
         -1   -1    0    0    0  501 -0.00000000000E+00 -0.00000000000E+00 -0.31040549959E+02  0.31040549959E+02  0.00000000000E+00 0.  1.
         25    2    1    2    0    0 -0.19386183297E+03 -0.28080342625E+02  0.76684473240E+03  0.80129313082E+03  0.12509565125E+03 0.  0.
          5    1    3    3  502    0 -0.15363142816E+03 -0.48902788669E+02  0.39472320560E+03  0.42640119594E+03  0.41800000000E+01 0. -1.
         -5    1    3    3    0  502 -0.40230404809E+02  0.20822446044E+02  0.37212152680E+03  0.37489193488E+03  0.41800000000E+01 0. -1.
        -11    1    1    2    0    0  0.13183676385E+03 -0.11733829294E+02  0.39856325314E+03  0.41996581028E+03  0.00000000000E+00 0.  1.
         11    1    1    2    0    0  0.62025069119E+02  0.39814171919E+02  0.43285215204E+03  0.43908229640E+03  0.00000000000E+00 0. -1.
</event>
<event>
 7    1  0.2810263E-009  0.9669232E+02  0.7561462E-02  0.1287409E+00
          1   -1    0    0  501    0  0.00000000000E+00  0.00000000000E+00  0.18626372350E+03  0.18626372350E+03  0.00000000000E+00 0. -1.
         -1   -1    0    0    0  501 -0.00000000000E+00 -0.00000000000E+00 -0.72295331009E+02  0.72295331009E+02  0.00000000000E+00 0.  1.
         25    2    1    2    0    0 -0.37675288363E+02 -0.61075189264E+01  0.47154917109E+02  0.13902308049E+03  0.12508837501E+03 0.  0.
          5    1    3    3  502    0  0.42455645982E+02 -0.11269101284E+02 -0.30518206474E+01  0.44229634056E+02  0.41800000000E+01 0. -1.
         -5    1    3    3    0  502 -0.80130934345E+02  0.51615823576E+01  0.50206737756E+02  0.94793446438E+02  0.41800000000E+01 0. -1.
        -11    1    1    2    0    0  0.47461756009E+02 -0.11387255597E+02 -0.10028214826E+01  0.48818987335E+02  0.00000000000E+00 0.  1.
         11    1    1    2    0    0 -0.97864676461E+01  0.17494774524E+02  0.67816296862E+02  0.70716986677E+02  0.00000000000E+00 0. -1.
</event>
<event>
 7    1  0.2810263E-009  0.1067013E+03  0.7561462E-02  0.1266803E+00
          2   -1    0    0  501    0  0.00000000000E+00  0.00000000000E+00  0.92211541954E+02  0.92211541954E+02  0.00000000000E+00 0.  1.
         -2   -1    0    0    0  501 -0.00000000000E+00 -0.00000000000E+00 -0.19393965786E+03  0.19393965786E+03  0.00000000000E+00 0. -1.
         25    2    1    2    0    0 -0.48373014144E+02 -0.53477667200E+02 -0.31871876757E+02  0.14786133009E+03  0.12508935615E+03 0.  0.
          5    1    3    3  502    0 -0.76290848858E+02 -0.62833782575E+02 -0.52187641274E+02  0.11184542974E+03  0.41800000000E+01 0.  1.
         -5    1    3    3    0  502  0.27917834714E+02  0.93561153746E+01  0.20315764517E+02  0.36015900349E+02  0.41800000000E+01 0.  1.
        -11    1    1    2    0    0  0.52428178128E+02  0.28971132746E+02  0.43289948366E+01  0.60056478341E+02  0.00000000000E+00 0.  1.
         11    1    1    2    0    0 -0.40551639842E+01  0.24506534454E+02 -0.74185233981E+02  0.78233391379E+02  0.00000000000E+00 0. -1.
</event>
<event>
 7    1  0.2810263E-009  0.1016131E+03  0.7561462E-02  0.1276940E+00
          2   -1    0    0  501    0  0.00000000000E+00  0.00000000000E+00  0.81803744105E+03  0.81803744105E+03  0.00000000000E+00 0. -1.
         -2   -1    0    0    0  501 -0.00000000000E+00 -0.00000000000E+00 -0.18239518551E+02  0.18239518551E+02  0.00000000000E+00 0.  1.
         25    2    1    2    0    0  0.99397934354E+01  0.46349328678E+02  0.56209539752E+03  0.57779419223E+03  0.12509129827E+03 0.  0.
          5    1    3    3  502    0  0.45527004587E+02  0.64122021800E+02  0.22601317567E+03  0.23934028036E+03  0.41800000000E+01 0. -1.
         -5    1    3    3    0  502 -0.35587211152E+02 -0.17772693123E+02  0.33608222185E+03  0.33845391188E+03  0.41800000000E+01 0. -1.
        -11    1    1    2    0    0  0.31212477857E+01 -0.63133087577E+02  0.22500148159E+03  0.23371177902E+03  0.00000000000E+00 0. -1.
         11    1    1    2    0    0 -0.13061041221E+02  0.16783758899E+02  0.12701043385E+02  0.24770988346E+02  0.00000000000E+00 0.  1.
</event>
<event>
 7    1  0.2810263E-009  0.1564472E+03  0.7561462E-02  0.1192767E+00
         -1   -1    0    0    0  501 -0.00000000000E+00  0.00000000000E+00  0.80863910904E+02  0.80863910904E+02  0.00000000000E+00 0.  1.
          1   -1    0    0  501    0  0.00000000000E+00 -0.00000000000E+00 -0.30473319306E+03  0.30473319306E+03  0.00000000000E+00 0. -1.
         25    2    1    2    0    0 -0.10982424647E+03  0.27715615256E+02 -0.11670588507E+03  0.20517568984E+03  0.12508908686E+03 0.  0.
          5    1    3    3  502    0 -0.97109404962E+02  0.72551480273E+02 -0.92201082238E+02  0.15235637758E+03  0.41800000000E+01 0.  1.
         -5    1    3    3    0  502 -0.12714841506E+02 -0.44835865018E+02 -0.24504802831E+02  0.52819312266E+02  0.41800000000E+01 0.  1.
        -11    1    1    2    0    0  0.62658776636E+02  0.30665184610E+02 -0.57754381693E+02  0.90565139217E+02  0.00000000000E+00 0. -1.
         11    1    1    2    0    0  0.47165469832E+02 -0.58380799866E+02 -0.49409015392E+02  0.89856274903E+02  0.00000000000E+00 0.  1.
</event>
<event>
 7    1  0.2810263E-009  0.1014983E+03  0.7561462E-02  0.1277176E+00
          1   -1    0    0  501    0  0.00000000000E+00  0.00000000000E+00  0.16078585499E+03  0.16078585499E+03  0.00000000000E+00 0. -1.
         -1   -1    0    0    0  501 -0.00000000000E+00 -0.00000000000E+00 -0.10730055399E+03  0.10730055399E+03  0.00000000000E+00 0.  1.
         25    2    1    2    0    0 -0.56467279584E+02  0.26837143523E+02 -0.91615284447E+01  0.14014549982E+03  0.12509213237E+03 0.  0.
          5    1    3    3  502    0  0.18581058742E+02 -0.33935963937E+02 -0.18399145469E+02  0.43045398666E+02  0.41800000000E+01 0.  1.
         -5    1    3    3    0  502 -0.75048338326E+02  0.60773107460E+02  0.92376170242E+01  0.97100101154E+02  0.41800000000E+01 0.  1.
        -11    1    1    2    0    0  0.17514316789E+02 -0.22074842922E+02  0.80159044186E+02  0.84967772405E+02  0.00000000000E+00 0. -1.
         11    1    1    2    0    0  0.38952962795E+02 -0.47623006011E+01 -0.17512214746E+02  0.42973136758E+02  0.00000000000E+00 0.  1.
</event>
<event>
 7    1  0.2810263E-009  0.1047739E+03  0.7561462E-02  0.1270566E+00
         -2   -1    0    0    0  501 -0.00000000000E+00  0.00000000000E+00  0.25609966250E+02  0.25609966250E+02  0.00000000000E+00 0.  1.
          2   -1    0    0  501    0  0.00000000000E+00 -0.00000000000E+00 -0.49956506988E+03  0.49956506988E+03  0.00000000000E+00 0. -1.
         25    2    1    2    0    0 -0.12362051457E+02 -0.20693198210E+02 -0.32548492183E+03  0.34952530623E+03  0.12508587685E+03 0.  0.
          5    1    3    3  502    0  0.39626677473E+02 -0.43369238038E+02 -0.92178121809E+02  0.10938666699E+03  0.41800000000E+01 0. -1.
         -5    1    3    3    0  502 -0.51988728929E+02  0.22676039828E+02 -0.23330680002E+03  0.24013863924E+03  0.41800000000E+01 0. -1.
        -11    1    1    2    0    0  0.30016388941E+02 -0.28575755178E+02 -0.69198004334E+02  0.80659290803E+02  0.00000000000E+00 0.  1.
         11    1    1    2    0    0 -0.17654337484E+02  0.49268953387E+02 -0.79272177463E+02  0.94990439096E+02  0.00000000000E+00 0. -1.
</event>
<event>
 7    1  0.2810263E-009  0.1159865E+03  0.7561462E-02  0.1249869E+00
          1   -1    0    0  501    0  0.00000000000E+00  0.00000000000E+00  0.56401025949E+03  0.56401025949E+03  0.00000000000E+00 0. -1.
         -1   -1    0    0    0  501 -0.00000000000E+00 -0.00000000000E+00 -0.44532270714E+02  0.44532270714E+02  0.00000000000E+00 0.  1.
         25    2    1    2    0    0  0.62226974248E+02 -0.92660404519E+02  0.34562474035E+03  0.38413784815E+03  0.12508908164E+03 0.  0.
          5    1    3    3  502    0  0.10847672322E+02 -0.50545099844E+02  0.29752671399E+03  0.30201340541E+03  0.41800000000E+01 0.  1.
         -5    1    3    3    0  502  0.51379301926E+02 -0.42115304675E+02  0.48098026363E+02  0.82124442734E+02  0.41800000000E+01 0.  1.
        -11    1    1    2    0    0 -0.30455938656E+02  0.63463965936E+02  0.16631959350E+03  0.18060300760E+03  0.00000000000E+00 0. -1.
         11    1    1    2    0    0 -0.31771035593E+02  0.29196438584E+02  0.75336549206E+01  0.43801674455E+02  0.00000000000E+00 0.  1.
</event>
<event>
 7    1  0.2810263E-009  0.1484228E+03  0.7561462E-02  0.1202424E+00
         -3   -1    0    0    0  501 -0.00000000000E+00  0.00000000000E+00  0.54044236246E+02  0.54044236246E+02  0.00000000000E+00 0.  1.
          3   -1    0    0  501    0  0.00000000000E+00 -0.00000000000E+00 -0.47184057291E+03  0.47184057291E+03  0.00000000000E+00 0. -1.
         25    2    1    2    0    0  0.67937146603E+02  0.89979217708E+02 -0.25102571426E+03  0.30227979862E+03  0.12508977547E+03 0.  0.
          5    1    3    3  502    0 -0.18061454864E+02  0.56306820283E+02 -0.16751992694E+03  0.17769938797E+03  0.41800000000E+01 0.  1.
         -5    1    3    3    0  502  0.85998601467E+02  0.33672397425E+02 -0.83505787323E+02  0.12458041066E+03  0.41800000000E+01 0.  1.
        -11    1    1    2    0    0  0.20140180586E+02 -0.13831286813E+01 -0.83341082086E+01  0.21840267366E+02  0.00000000000E+00 0.  1.
         11    1    1    2    0    0 -0.88077327189E+02 -0.88596089027E+02 -0.15843651419E+03  0.20176474317E+03  0.00000000000E+00 0. -1.
</event>
<event>
 7    1  0.2810263E-009  0.9787284E+02  0.7561462E-02  0.1284834E+00
         -3   -1    0    0    0  501 -0.00000000000E+00  0.00000000000E+00  0.13424416493E+03  0.13424416493E+03  0.00000000000E+00 0.  1.
          3   -1    0    0  501    0  0.00000000000E+00 -0.00000000000E+00 -0.15399553607E+03  0.15399553607E+03  0.00000000000E+00 0. -1.
         25    2    1    2    0    0 -0.22936192867E+02 -0.60782610097E+02 -0.78517160441E+02  0.16134752055E+03  0.12508990076E+03 0.  0.
          5    1    3    3  502    0  0.36260806458E+02  0.48113233475E+00 -0.65611914620E+02  0.75083109375E+02  0.41800000000E+01 0. -1.
         -5    1    3    3    0  502 -0.59196999326E+02 -0.61263742432E+02 -0.12905245822E+02  0.86264411177E+02  0.41800000000E+01 0. -1.
        -11    1    1    2    0    0 -0.32862481099E+01  0.40920794135E+02 -0.16892322389E+02  0.44392131904E+02  0.00000000000E+00 0. -1.
         11    1    1    2    0    0  0.26222440977E+02  0.19861815962E+02  0.75658111694E+02  0.82500048540E+02  0.00000000000E+00 0.  1.
</event>
<event>
 7    1  0.2810263E-009  0.1077143E+03  0.7561462E-02  0.1264862E+00
          1   -1    0    0  501    0  0.00000000000E+00  0.00000000000E+00  0.13200723232E+04  0.13200723232E+04  0.00000000000E+00 0. -1.
         -1   -1    0    0    0  501 -0.00000000000E+00 -0.00000000000E+00 -0.10906651195E+02  0.10906651195E+02  0.00000000000E+00 0.  1.
         25    2    1    2    0    0  0.33040631730E+02  0.39802401661E+01  0.10019177302E+04  0.10102449072E+04  0.12509240069E+03 0.  0.
          5    1    3    3  502    0  0.23524229661E+01 -0.57770935763E+02  0.55502410651E+03  0.55804322962E+03  0.41800000000E+01 0.  1.
         -5    1    3    3    0  502  0.30688208764E+02  0.61751175929E+02  0.44689362373E+03  0.45220167759E+03  0.41800000000E+01 0.  1.
        -11    1    1    2    0    0 -0.20165150078E+02  0.38785375018E+02  0.19682720361E+03  0.20162313030E+03  0.00000000000E+00 0. -1.
         11    1    1    2    0    0 -0.12875481652E+02 -0.42765615184E+02  0.11042073810E+03  0.11911093683E+03  0.00000000000E+00 0.  1.
</event>
<event>
 7    1  0.2810263E-009  0.1030583E+03  0.7561462E-02  0.1273993E+00
          3   -1    0    0  501    0  0.00000000000E+00  0.00000000000E+00  0.48460258160E+02  0.48460258160E+02  0.00000000000E+00 0. -1.
         -3   -1    0    0    0  501 -0.00000000000E+00 -0.00000000000E+00 -0.32864299350E+03  0.32864299350E+03  0.00000000000E+00 0.  1.
         25    2    1    2    0    0  0.29222331861E+02  0.55844065261E+02 -0.18276625817E+03  0.23027031146E+03  0.12509359261E+03 0.  0.
          5    1    3    3  502    0 -0.24615568165E+02  0.16963269190E+01  0.67391415374E+01  0.25917024323E+02  0.41800000000E+01 0. -1.
         -5    1    3    3    0  502  0.53837900027E+02  0.54147738342E+02 -0.18950539970E+03  0.20435328714E+03  0.41800000000E+01 0. -1.
        -11    1    1    2    0    0 -0.31219189067E+02  0.14376353946E+02 -0.54743631232E+02  0.64638861989E+02  0.00000000000E+00 0.  1.
         11    1    1    2    0    0  0.19968572059E+01 -0.70220419207E+02 -0.42672845943E+02  0.82194078212E+02  0.00000000000E+00 0. -1.
</event>
<event>
 7    1  0.2810263E-009  0.1124119E+03  0.7561462E-02  0.1256167E+00
          2   -1    0    0  501    0  0.00000000000E+00  0.00000000000E+00  0.13485484354E+03  0.13485484354E+03  0.00000000000E+00 0. -1.
         -2   -1    0    0    0  501 -0.00000000000E+00 -0.00000000000E+00 -0.19083457953E+03  0.19083457953E+03  0.00000000000E+00 0.  1.
         25    2    1    2    0    0 -0.16188309423E+02  0.55352212533E+02 -0.13416828022E+03  0.19228705265E+03  0.12508898595E+03 0.  0.
          5    1    3    3  502    0  0.47287608640E+01  0.83388486700E+02 -0.41929157265E+02  0.93549599264E+02  0.41800000000E+01 0. -1.
         -5    1    3    3    0  502 -0.20917070287E+02 -0.28036274167E+02 -0.92239122952E+02  0.98737453388E+02  0.41800000000E+01 0. -1.
        -11    1    1    2    0    0  0.42794380397E+02  0.18996552010E+01  0.18990893586E+02  0.46857461761E+02  0.00000000000E+00 0.  1.
         11    1    1    2    0    0 -0.26606070974E+02 -0.57251867734E+02  0.59197650648E+02  0.86544908654E+02  0.00000000000E+00 0. -1.
</event>
<event>
 7    1  0.2810263E-009  0.9513036E+02  0.7561462E-02  0.1290883E+00
         -2   -1    0    0    0  501 -0.00000000000E+00  0.00000000000E+00  0.19844857452E+03  0.19844857452E+03  0.00000000000E+00 0.  1.
          2   -1    0    0  501    0  0.00000000000E+00 -0.00000000000E+00 -0.64008408923E+02  0.64008408923E+02  0.00000000000E+00 0. -1.
         25    2    1    2    0    0  0.18615431428E+02  0.23841359219E+02  0.86207511648E+02  0.15490028598E+03  0.12508964320E+03 0.  0.
          5    1    3    3  502    0 -0.21407812381E+02 -0.28146771988E+02  0.81558745252E+02  0.88993463420E+02  0.41800000000E+01 0.  1.
         -5    1    3    3    0  502  0.40023243809E+02  0.51988131207E+02  0.46487663962E+01  0.65906822563E+02  0.41800000000E+01 0.  1.
        -11    1    1    2    0    0  0.18311496967E+02 -0.43412412457E+02  0.45776454855E+02  0.65691950006E+02  0.00000000000E+00 0.  1.
         11    1    1    2    0    0 -0.36926928395E+02  0.19571053238E+02  0.24561990960E+01  0.41864747456E+02  0.00000000000E+00 0. -1.
</event>
<event>
 7    1  0.2810263E-009  0.1120585E+03  0.7561462E-02  0.1256805E+00
         -2   -1    0    0    0  501 -0.00000000000E+00  0.00000000000E+00  0.12267196234E+02  0.12267196234E+02  0.00000000000E+00 0.  1.
          2   -1    0    0  501    0  0.00000000000E+00 -0.00000000000E+00 -0.10981909650E+04  0.10981909650E+04  0.00000000000E+00 0. -1.
         25    2    1    2    0    0  0.41971532561E+02 -0.75110242409E+01 -0.59090204370E+03  0.60550072607E+03  0.12509148247E+03 0.  0.
          5    1    3    3  502    0 -0.36469847470E+01  0.50830240008E+02 -0.15187445199E+03  0.16025085137E+03  0.41800000000E+01 0.  1.
         -5    1    3    3    0  502  0.45618517308E+02 -0.58341264249E+02 -0.43902759172E+03  0.44524987470E+03  0.41800000000E+01 0.  1.
        -11    1    1    2    0    0 -0.61581412662E+00 -0.37602351296E+02 -0.22175779310E+03  0.22492406463E+03  0.00000000000E+00 0.  1.
         11    1    1    2    0    0 -0.41355718434E+02  0.45113375536E+02 -0.27326393194E+03  0.28003337051E+03  0.00000000000E+00 0. -1.
</event>
<event>
 7    1  0.2810263E-009  0.9641777E+02  0.7561462E-02  0.1288014E+00
          1   -1    0    0  501    0  0.00000000000E+00  0.00000000000E+00  0.30294066328E+03  0.30294066328E+03  0.00000000000E+00 0.  1.
         -1   -1    0    0    0  501 -0.00000000000E+00 -0.00000000000E+00 -0.50312943086E+02  0.50312943086E+02  0.00000000000E+00 0. -1.
         25    2    1    2    0    0 -0.32688869352E+02  0.45297520425E+02  0.15167692641E+03  0.20438137553E+03  0.12508168979E+03 0.  0.
          5    1    3    3  502    0 -0.59490243841E+02  0.37529711126E+01  0.14168381531E+03  0.15376914458E+03  0.41800000000E+01 0. -1.
         -5    1    3    3    0  502  0.26801374489E+02  0.41544549312E+02  0.99931111063E+01  0.50612230949E+02  0.41800000000E+01 0. -1.
        -11    1    1    2    0    0 -0.18186089284E+02 -0.18587777234E+02 -0.66931916523E+01  0.26852152994E+02  0.00000000000E+00 0. -1.
         11    1    1    2    0    0  0.50874958635E+02 -0.26709743191E+02  0.10764398543E+03  0.12202007784E+03  0.00000000000E+00 0.  1.
</event>
<event>
 7    1  0.2810263E-009  0.1563504E+03  0.7561462E-02  0.1192880E+00
          4   -1    0    0  501    0  0.00000000000E+00  0.00000000000E+00  0.10752847022E+04  0.10752847022E+04  0.00000000000E+00 0. -1.
         -4   -1    0    0    0  501 -0.00000000000E+00 -0.00000000000E+00 -0.35491365206E+02  0.35491365206E+02  0.00000000000E+00 0.  1.
         25    2    1    2    0    0  0.85383188027E+02  0.12147667170E+03  0.72968082024E+03  0.75506861889E+03  0.12509056419E+03 0.  0.
          5    1    3    3  502    0  0.11391746553E+02  0.25610422109E+02  0.44203579329E+03  0.44294331529E+03  0.41800000000E+01 0.  1.
         -5    1    3    3    0  502  0.73991441474E+02  0.95866249593E+02  0.28764502695E+03  0.31212530361E+03  0.41800000000E+01 0.  1.
        -11    1    1    2    0    0 -0.72936643322E+02 -0.44988941124E+02  0.22414204076E+03  0.23996544168E+03  0.00000000000E+00 0. -1.
         11    1    1    2    0    0 -0.12446544705E+02 -0.76487730578E+02  0.85970476008E+02  0.11574200685E+03  0.00000000000E+00 0.  1.
</event>
<event>
 7    1  0.2810263E-009  0.1552038E+03  0.7561462E-02  0.1194221E+00
         -4   -1    0    0    0  501 -0.00000000000E+00  0.00000000000E+00  0.45990737005E+03  0.45990737005E+03  0.00000000000E+00 0.  1.
          4   -1    0    0  501    0  0.00000000000E+00 -0.00000000000E+00 -0.72048059553E+02  0.72048059553E+02  0.00000000000E+00 0. -1.
         25    2    1    2    0    0  0.12295665389E+03  0.33535733493E+01  0.31901924038E+03  0.36407461365E+03  0.12508982127E+03 0.  0.
          5    1    3    3  502    0  0.29345510756E+01 -0.32477683817E+02  0.16843467968E+02  0.36940307922E+02  0.41800000000E+01 0.  1.
         -5    1    3    3    0  502  0.12002210281E+03  0.35831257167E+02  0.30217577241E+03  0.32713430573E+03  0.41800000000E+01 0.  1.
        -11    1    1    2    0    0 -0.33460258445E+02  0.40506096214E+02  0.15180891772E+02  0.54688135831E+02  0.00000000000E+00 0. -1.
         11    1    1    2    0    0 -0.89496395446E+02 -0.43859669564E+02  0.53659178349E+02  0.11319268012E+03  0.00000000000E+00 0.  1.
</event>
<event>
 7    1  0.2810263E-009  0.9937380E+02  0.7561462E-02  0.1281618E+00
         -1   -1    0    0    0  501 -0.00000000000E+00  0.00000000000E+00  0.32677344625E+02  0.32677344625E+02  0.00000000000E+00 0.  1.
          1   -1    0    0  501    0  0.00000000000E+00 -0.00000000000E+00 -0.37159635200E+03  0.37159635200E+03  0.00000000000E+00 0. -1.
         25    2    1    2    0    0 -0.12106883428E+02 -0.17764524007E+02 -0.19145166227E+03  0.22970248644E+03  0.12508932149E+03 0.  0.
          5    1    3    3  502    0  0.35638058339E+02 -0.54673834163E+02 -0.84778137489E+02  0.10707055777E+03  0.41800000000E+01 0. -1.
         -5    1    3    3    0  502 -0.47744941767E+02  0.36909310156E+02 -0.10667352478E+03  0.12263192867E+03  0.41800000000E+01 0. -1.
        -11    1    1    2    0    0  0.38205664569E+02  0.25142536291E+02 -0.31647493511E+02  0.55618196499E+02  0.00000000000E+00 0.  1.
         11    1    1    2    0    0 -0.26098781141E+02 -0.73780122838E+01 -0.11581985160E+03  0.11895301369E+03  0.00000000000E+00 0. -1.
</event>
<event>
 7    1  0.2810263E-009  0.9198188E+02  0.7561462E-02  0.1298122E+00
          2   -1    0    0  501    0  0.00000000000E+00  0.00000000000E+00  0.11116843978E+03  0.11116843978E+03  0.00000000000E+00 0. -1.
         -2   -1    0    0    0  501 -0.00000000000E+00 -0.00000000000E+00 -0.26529633149E+03  0.26529633149E+03  0.00000000000E+00 0.  1.
         25    2    1    2    0    0  0.67930056088E+02 -0.26397968436E+02 -0.20348836981E+03  0.24973444738E+03  0.12509369408E+03 0.  0.
          5    1    3    3  502    0  0.75336728362E+02 -0.23837802120E+02 -0.45063334377E+02  0.91060638892E+02  0.41800000000E+01 0.  1.
         -5    1    3    3    0  502 -0.74066722743E+01 -0.25601663166E+01 -0.15842503544E+03  0.15867380848E+03  0.41800000000E+01 0.  1.
        -11    1    1    2    0    0 -0.69540879453E+02  0.41355982795E+02  0.63420780260E+01  0.81157089534E+02  0.00000000000E+00 0.  1.
         11    1    1    2    0    0  0.16108233646E+01 -0.14958014358E+02  0.43018400079E+02  0.45573234368E+02  0.00000000000E+00 0. -1.
</event>
<event>
 7    1  0.2810263E-009  0.1009017E+03  0.7561462E-02  0.1278411E+00
          1   -1    0    0  501    0  0.00000000000E+00  0.00000000000E+00  0.20170386650E+03  0.20170386650E+03  0.00000000000E+00 0. -1.
         -1   -1    0    0    0  501 -0.00000000000E+00 -0.00000000000E+00 -0.68095989409E+02  0.68095989409E+02  0.00000000000E+00 0.  1.
         25    2    1    2    0    0  0.56284412295E+00 -0.23447026552E+02  0.11413209307E+03  0.17093806343E+03  0.12507440591E+03 0.  0.
          5    1    3    3  502    0 -0.55461560428E+02 -0.82500161221E+01  0.93663056164E+02  0.10924416662E+03  0.41800000000E+01 0.  1.
         -5    1    3    3    0  502  0.56024404551E+02 -0.15197010429E+02  0.20469036903E+02  0.61693896805E+02  0.41800000000E+01 0.  1.
        -11    1    1    2    0    0 -0.40101021217E+02  0.25940796362E+02  0.31793154335E+02  0.57374397435E+02  0.00000000000E+00 0. -1.
         11    1    1    2    0    0  0.39538177094E+02 -0.24937698105E+01 -0.12317370315E+02  0.41487395041E+02  0.00000000000E+00 0.  1.
</event>
<event>
 7    1  0.2810263E-009  0.1910186E+03  0.7561462E-02  0.1157546E+00
         -4   -1    0    0    0  501 -0.00000000000E+00  0.00000000000E+00  0.11899663073E+03  0.11899663073E+03  0.00000000000E+00 0.  1.
          4   -1    0    0  501    0  0.00000000000E+00 -0.00000000000E+00 -0.42511326355E+03  0.42511326355E+03  0.00000000000E+00 0. -1.
         25    2    1    2    0    0  0.15295036027E+02  0.16992926581E+03 -0.27987498194E+03  0.35083982562E+03  0.12509470102E+03 0.  0.
          5    1    3    3  502    0  0.65394693761E+02  0.65453680961E+02 -0.15399511684E+03  0.17970147115E+03  0.41800000000E+01 0.  1.
         -5    1    3    3    0  502 -0.50099657734E+02  0.10447558485E+03 -0.12587986510E+03  0.17113835448E+03  0.41800000000E+01 0.  1.
        -11    1    1    2    0    0 -0.22869944659E+02 -0.79309181977E+02  0.28269035605E+02  0.87247458924E+02  0.00000000000E+00 0. -1.
         11    1    1    2    0    0  0.75749086326E+01 -0.90620083831E+02 -0.54510686486E+02  0.10602260974E+03  0.00000000000E+00 0.  1.
</event>
<event>
 7    1  0.2810263E-009  0.1418246E+03  0.7561462E-02  0.1210895E+00
          2   -1    0    0  501    0  0.00000000000E+00  0.00000000000E+00  0.10340551937E+04  0.10340551937E+04  0.00000000000E+00 0. -1.
         -2   -1    0    0    0  501 -0.00000000000E+00 -0.00000000000E+00 -0.33434045247E+02  0.33434045247E+02  0.00000000000E+00 0.  1.
         25    2    1    2    0    0  0.39273468698E+02 -0.11245249277E+03  0.79399761364E+03  0.81256892152E+03  0.12509225909E+03 0.  0.
          5    1    3    3  502    0  0.40135127403E+02 -0.17849643775E+02  0.53473903469E+03  0.53655637715E+03  0.41800000000E+01 0. -1.
         -5    1    3    3    0  502 -0.86165870534E+00 -0.94602848998E+02  0.25925857895E+03  0.27601254438E+03  0.41800000000E+01 0. -1.
        -11    1    1    2    0    0  0.25657495575E+02  0.40148246424E+02  0.99283843089E+02  0.11012479407E+03  0.00000000000E+00 0. -1.
         11    1    1    2    0    0 -0.64930964273E+02  0.72304246349E+02  0.10733969168E+03  0.14479552331E+03  0.00000000000E+00 0.  1.
</event>
<event>
 7    1  0.2810263E-009  0.1917979E+03  0.7561462E-02  0.1156850E+00
         -1   -1    0    0    0  501 -0.00000000000E+00  0.00000000000E+00  0.20061251441E+03  0.20061251441E+03  0.00000000000E+00 0.  1.
          1   -1    0    0  501    0  0.00000000000E+00 -0.00000000000E+00 -0.23275722878E+03  0.23275722878E+03  0.00000000000E+00 0. -1.
         25    2    1    2    0    0  0.32165570791E+02  0.17868395399E+03 -0.61833192190E+02  0.22898409247E+03  0.12509113314E+03 0.  0.
          5    1    3    3  502    0  0.45495059518E+02  0.17852307325E+03 -0.84208838671E+02  0.20260525421E+03  0.41800000000E+01 0. -1.
         -5    1    3    3    0  502 -0.13329488726E+02  0.16088073489E+00  0.22375646481E+02  0.26378838256E+02  0.41800000000E+01 0. -1.
        -11    1    1    2    0    0  0.71805633601E+01 -0.57281353499E+02  0.48485508729E+02  0.75389379263E+02  0.00000000000E+00 0.  1.
         11    1    1    2    0    0 -0.39346134151E+02 -0.12140260049E+03 -0.18797030913E+02  0.12899627146E+03  0.00000000000E+00 0. -1.
</event>
<event>
 7    1  0.2810263E-009  0.1212692E+03  0.7561462E-02  0.1241018E+00
          1   -1    0    0  501    0  0.00000000000E+00  0.00000000000E+00  0.31074892211E+03  0.31074892211E+03  0.00000000000E+00 0.  1.
         -1   -1    0    0    0  501 -0.00000000000E+00 -0.00000000000E+00 -0.52918151183E+02  0.52918151183E+02  0.00000000000E+00 0. -1.
         25    2    1    2    0    0  0.36861481398E+02  0.39798837893E+02  0.19589067246E+03  0.23866282474E+03  0.12507626492E+03 0.  0.
          5    1    3    3  502    0  0.10636360814E+02 -0.44315311847E+02  0.88997933537E+02  0.10007538963E+03  0.41800000000E+01 0.  1.
         -5    1    3    3    0  502  0.26225120584E+02  0.84114149740E+02  0.10689273892E+03  0.13858743511E+03  0.41800000000E+01 0.  1.
        -11    1    1    2    0    0  0.31880666142E+02 -0.17078919861E+02  0.19733131415E+02  0.41200277338E+02  0.00000000000E+00 0. -1.
         11    1    1    2    0    0 -0.68742147540E+02 -0.22719918033E+02  0.42206967052E+02  0.83803971216E+02  0.00000000000E+00 0.  1.
</event>
<event>
 7    1  0.2810263E-009  0.4761685E+03  0.7561462E-02  0.1020194E+00
         -2   -1    0    0    0  501 -0.00000000000E+00  0.00000000000E+00  0.27620881405E+03  0.27620881405E+03  0.00000000000E+00 0.  1.
          2   -1    0    0  501    0  0.00000000000E+00 -0.00000000000E+00 -0.95421657710E+03  0.95421657710E+03  0.00000000000E+00 0. -1.
         25    2    1    2    0    0 -0.46037322965E+03 -0.61351264375E+02 -0.56787492864E+03  0.74420251249E+03  0.12509179350E+03 0.  0.
          5    1    3    3  502    0  0.57470289022E+01  0.68750995075E+01 -0.11464363812E+02  0.15139331956E+02  0.41800000000E+01 0. -1.
         -5    1    3    3    0  502 -0.46612025855E+03 -0.68226363883E+02 -0.55641056482E+03  0.72906318053E+03  0.41800000000E+01 0. -1.
        -11    1    1    2    0    0  0.35909231408E+03  0.81145547785E+02 -0.10531231434E+03  0.38291327152E+03  0.00000000000E+00 0.  1.
         11    1    1    2    0    0  0.10128091557E+03 -0.19794283410E+02 -0.48205200742E+01  0.10330960714E+03  0.00000000000E+00 0. -1.
</event>
<event>
 7    1  0.2810263E-009  0.1004575E+03  0.7561462E-02  0.1279337E+00
          1   -1    0    0  501    0  0.00000000000E+00  0.00000000000E+00  0.20152178346E+03  0.20152178346E+03  0.00000000000E+00 0. -1.
         -1   -1    0    0    0  501 -0.00000000000E+00 -0.00000000000E+00 -0.77553646904E+02  0.77553646904E+02  0.00000000000E+00 0.  1.
         25    2    1    2    0    0 -0.15063835312E+02 -0.29818653150E+02  0.11584872439E+02  0.12999087870E+03  0.12508936032E+03 0.  0.
          5    1    3    3  502    0 -0.65161523243E+00 -0.77796713199E+02  0.15964363099E+02  0.79530412272E+02  0.41800000000E+01 0. -1.
         -5    1    3    3    0  502 -0.14412220080E+02  0.47978060049E+02 -0.43794906608E+01  0.50460466428E+02  0.41800000000E+01 0. -1.
        -11    1    1    2    0    0  0.11327604861E+02 -0.19887283627E+02 -0.32957412119E+01  0.23123161377E+02  0.00000000000E+00 0.  1.
         11    1    1    2    0    0  0.37362304514E+01  0.49705936777E+02  0.11567900533E+03  0.12596139029E+03  0.00000000000E+00 0. -1.
</event>
<event>
 7    1  0.2810263E-009  0.1147870E+03  0.7561462E-02  0.1251953E+00
          1   -1    0    0  501    0  0.00000000000E+00  0.00000000000E+00  0.35455061566E+02  0.35455061566E+02  0.00000000000E+00 0. -1.
         -1   -1    0    0    0  501 -0.00000000000E+00 -0.00000000000E+00 -0.50696586453E+03  0.50696586453E+03  0.00000000000E+00 0.  1.
         25    2    1    2    0    0 -0.72418337658E+02  0.15164387640E+02 -0.30846594633E+03  0.34098840185E+03  0.12508987119E+03 0.  0.
          5    1    3    3  502    0  0.34285227232E+02 -0.86250813621E+01 -0.85990023930E+02  0.93067854011E+02  0.41800000000E+01 0. -1.
         -5    1    3    3    0  502 -0.10670356489E+03  0.23789469002E+02 -0.22247592240E+03  0.24792054784E+03  0.41800000000E+01 0. -1.
        -11    1    1    2    0    0  0.22719127862E+02 -0.25135427885E+02 -0.14294136908E+03  0.14690195199E+03  0.00000000000E+00 0.  1.
         11    1    1    2    0    0  0.49699209796E+02  0.99710402448E+01 -0.20103487560E+02  0.54530572251E+02  0.00000000000E+00 0. -1.
</event>
<event>
 7    1  0.2810263E-009  0.1471625E+03  0.7561462E-02  0.1204004E+00
          1   -1    0    0  501    0  0.00000000000E+00  0.00000000000E+00  0.40431188845E+03  0.40431188845E+03  0.00000000000E+00 0. -1.
         -1   -1    0    0    0  501 -0.00000000000E+00 -0.00000000000E+00 -0.90903752460E+02  0.90903752460E+02  0.00000000000E+00 0.  1.
         25    2    1    2    0    0  0.60916364294E+02  0.93308438442E+02  0.31658082580E+03  0.35817376157E+03  0.12509099124E+03 0.  0.
          5    1    3    3  502    0 -0.34042033360E+02  0.11752328392E+02  0.36899587109E+02  0.51730350731E+02  0.41800000000E+01 0.  1.
         -5    1    3    3    0  502  0.94958397653E+02  0.81556110050E+02  0.27968123869E+03  0.30644341084E+03  0.41800000000E+01 0.  1.
        -11    1    1    2    0    0 -0.47464803638E+02 -0.10485542882E+03 -0.14494462081E+02  0.11600714620E+03  0.00000000000E+00 0.  1.
         11    1    1    2    0    0 -0.13451560656E+02  0.11546990382E+02  0.11321772270E+02  0.21034733141E+02  0.00000000000E+00 0. -1.
</event>
<event>
 7    1  0.2810263E-009  0.1209542E+03  0.7561462E-02  0.1241531E+00
          2   -1    0    0  501    0  0.00000000000E+00  0.00000000000E+00  0.41108811804E+03  0.41108811804E+03  0.00000000000E+00 0. -1.
         -2   -1    0    0    0  501 -0.00000000000E+00 -0.00000000000E+00 -0.44508179919E+02  0.44508179919E+02  0.00000000000E+00 0.  1.
         25    2    1    2    0    0 -0.11362619987E+02  0.62535130322E+02  0.28683262597E+03  0.31931193849E+03  0.12508959622E+03 0.  0.
          5    1    3    3  502    0  0.50269748593E+01 -0.37820771909E+02  0.85453109367E+02  0.93677038620E+02  0.41800000000E+01 0. -1.
         -5    1    3    3    0  502 -0.16389594846E+02  0.10035590223E+03  0.20137951660E+03  0.22563489987E+03  0.41800000000E+01 0. -1.
        -11    1    1    2    0    0 -0.34160458610E+02 -0.20788431062E+02  0.58706704611E+02  0.71032196677E+02  0.00000000000E+00 0. -1.
         11    1    1    2    0    0  0.45523078597E+02 -0.41746699260E+02  0.21040607545E+02  0.65252162799E+02  0.00000000000E+00 0.  1.
</event>
<event>
 7    1  0.2810263E-009  0.3116482E+03  0.7561462E-02  0.1079559E+00
          1   -1    0    0  501    0  0.00000000000E+00  0.00000000000E+00  0.56342782830E+03  0.56342782830E+03  0.00000000000E+00 0. -1.
         -1   -1    0    0    0  501 -0.00000000000E+00 -0.00000000000E+00 -0.18444531813E+03  0.18444531813E+03  0.00000000000E+00 0.  1.
         25    2    1    2    0    0  0.28605580567E+03 -0.83017541227E+02  0.12670585632E+03  0.34701676484E+03  0.12508567044E+03 0.  0.
          5    1    3    3  502    0  0.77596046607E+02  0.22385432858E+02 -0.77031985772E+00  0.80872243978E+02  0.41800000000E+01 0. -1.
         -5    1    3    3    0  502  0.20845975906E+03 -0.10540297409E+03  0.12747617618E+03  0.26614452087E+03  0.41800000000E+01 0. -1.
        -11    1    1    2    0    0 -0.11425395413E+03 -0.77059585147E+01  0.68582886447E+02  0.13348018634E+03  0.00000000000E+00 0.  1.
         11    1    1    2    0    0 -0.17180185154E+03  0.90723499742E+02  0.18369376740E+03  0.26737619524E+03  0.00000000000E+00 0. -1.
</event>
<event>
 7    1  0.2810263E-009  0.1367484E+03  0.7561462E-02  0.1217772E+00
         -1   -1    0    0    0  501 -0.00000000000E+00  0.00000000000E+00  0.36393036463E+02  0.36393036463E+02  0.00000000000E+00 0.  1.
          1   -1    0    0  501    0  0.00000000000E+00 -0.00000000000E+00 -0.65408579434E+03  0.65408579434E+03  0.00000000000E+00 0. -1.
         25    2    1    2    0    0 -0.45792089422E+02  0.10096541148E+03 -0.33978377157E+03  0.37867593161E+03  0.12510603500E+03 0.  0.
          5    1    3    3  502    0 -0.35804943238E+02  0.12824092825E+03 -0.30712265329E+03  0.33476786913E+03  0.41800000000E+01 0.  1.
         -5    1    3    3    0  502 -0.99871461840E+01 -0.27275516766E+02 -0.32661118274E+02  0.43908062479E+02  0.41800000000E+01 0.  1.
        -11    1    1    2    0    0  0.20662025672E+02 -0.50512213008E+02 -0.40943122985E+02  0.68225671764E+02  0.00000000000E+00 0.  1.
         11    1    1    2    0    0  0.25130063749E+02 -0.50453198472E+02 -0.23696586333E+03  0.24357722743E+03  0.00000000000E+00 0. -1.
</event>
<event>
 7    1  0.2810263E-009  0.8232786E+02  0.7561462E-02  0.1322572E+00
          2   -1    0    0  501    0  0.00000000000E+00  0.00000000000E+00  0.89104409747E+02  0.89104409747E+02  0.00000000000E+00 0. -1.
         -2   -1    0    0    0  501 -0.00000000000E+00 -0.00000000000E+00 -0.15207888778E+03  0.15207888778E+03  0.00000000000E+00 0.  1.
         25    2    1    2    0    0  0.97946238845E+01 -0.35671702682E+02 -0.35861260954E+02  0.13528603003E+03  0.12509146596E+03 0.  0.
          5    1    3    3  502    0  0.68562345051E+01  0.11963293114E+02  0.41701433332E+02  0.44120406567E+02  0.41800000000E+01 0. -1.
         -5    1    3    3    0  502  0.29383893794E+01 -0.47634995796E+02 -0.77562694286E+02  0.91165623464E+02  0.41800000000E+01 0. -1.
        -11    1    1    2    0    0  0.22389472659E+02 -0.25061041846E+02 -0.77352087168E+01  0.34484456763E+02  0.00000000000E+00 0.  1.
         11    1    1    2    0    0 -0.32184096543E+02  0.60732744529E+02 -0.19378008358E+02  0.71412810729E+02  0.00000000000E+00 0. -1.
</event>
<event>
 7    1  0.2810263E-009  0.8544133E+02  0.7561462E-02  0.1314282E+00
         -3   -1    0    0    0  501 -0.00000000000E+00  0.00000000000E+00  0.66811809541E+03  0.66811809541E+03  0.00000000000E+00 0.  1.
          3   -1    0    0  501    0  0.00000000000E+00 -0.00000000000E+00 -0.17965224206E+02  0.17965224206E+02  0.00000000000E+00 0. -1.
         25    2    1    2    0    0 -0.39067283598E+01 -0.70775459764E+01  0.44480894278E+03  0.46212923488E+03  0.12507229895E+03 0.  0.
          5    1    3    3  502    0  0.34973057254E+02  0.13620540682E+02  0.38938262261E+03  0.39120957689E+03  0.41800000000E+01 0. -1.
         -5    1    3    3    0  502 -0.38879785613E+02 -0.20698086658E+02  0.55426320175E+02  0.70919657986E+02  0.41800000000E+01 0. -1.
        -11    1    1    2    0    0 -0.33738622776E+02  0.29705512742E+02  0.91928028330E+02  0.10233022304E+03  0.00000000000E+00 0. -1.
         11    1    1    2    0    0  0.37645351136E+02 -0.22627966765E+02  0.11341590009E+03  0.12162386170E+03  0.00000000000E+00 0.  1.
</event>
<event>
 7    1  0.2810263E-009  0.1373454E+03  0.7561462E-02  0.1216946E+00
         -2   -1    0    0    0  501 -0.00000000000E+00  0.00000000000E+00  0.29113258212E+03  0.29113258212E+03  0.00000000000E+00 0.  1.
          2   -1    0    0  501    0  0.00000000000E+00 -0.00000000000E+00 -0.78702595721E+02  0.78702595721E+02  0.00000000000E+00 0. -1.
         25    2    1    2    0    0  0.54710149285E+02  0.86457445638E+02  0.12592898831E+03  0.20487761842E+03  0.12509451662E+03 0.  0.
          5    1    3    3  502    0  0.82343723277E+02  0.41258419829E+02  0.12011419389E+03  0.15141875030E+03  0.41800000000E+01 0. -1.
         -5    1    3    3    0  502 -0.27633573992E+02  0.45199025809E+02  0.58147944247E+01  0.53458868112E+02  0.41800000000E+01 0. -1.
        -11    1    1    2    0    0 -0.33652456668E+02  0.62981175566E+01  0.54954397845E+02  0.64746737115E+02  0.00000000000E+00 0.  1.
         11    1    1    2    0    0 -0.21057692617E+02 -0.92755563195E+02  0.31546600244E+02  0.10021082231E+03  0.00000000000E+00 0. -1.
</event>
<event>
 7    1  0.3297444E-009  0.1111916E+03  0.7561462E-02  0.1258379E+00
          2   -1    0    0  501    0  0.00000000000E+00  0.00000000000E+00  0.66409085245E+03  0.66409085245E+03  0.00000000000E+00 0. -1.
         -2   -1    0    0    0  501 -0.00000000000E+00 -0.00000000000E+00 -0.25437460040E+02  0.25437460040E+02  0.00000000000E+00 0.  1.
         25    2    1    2    0    0 -0.20710448369E+02  0.65787996162E+02  0.39986724540E+03  0.42461506730E+03  0.12508860190E+03 0.  0.
          5    1    3    3  502    0  0.49127463675E+02  0.13815598722E+02  0.20227488122E+03  0.20865516631E+03  0.41800000000E+01 0.  1.
         -5    1    3    3    0  502 -0.69837912044E+02  0.51972397440E+02  0.19759236419E+03  0.21595990100E+03  0.41800000000E+01 0.  1.
        -11    1    1    2    0    0  0.11769246033E+02  0.49179543099E+01 -0.27785728558E+01  0.13054573677E+02  0.00000000000E+00 0.  1.
         11    1    1    2    0    0  0.89412023362E+01 -0.70705950472E+02  0.24156471987E+03  0.25185867151E+03  0.00000000000E+00 0. -1.
</event>
<event>
 7    1  0.2810263E-009  0.7543326E+02  0.7561462E-02  0.1342535E+00
         -1   -1    0    0    0  501 -0.00000000000E+00  0.00000000000E+00  0.72349903320E+02  0.72349903320E+02  0.00000000000E+00 0.  1.
          1   -1    0    0  501    0  0.00000000000E+00 -0.00000000000E+00 -0.22585592131E+03  0.22585592131E+03  0.00000000000E+00 0. -1.
         25    2    1    2    0    0 -0.46329984791E+02  0.15063637115E+02 -0.31596484331E+02  0.13791411880E+03  0.12509430718E+03 0.  0.
          5    1    3    3  502    0 -0.59136790248E+01 -0.22846589272E+02 -0.67584207067E+02  0.71707988996E+02  0.41800000000E+01 0. -1.
         -5    1    3    3    0  502 -0.40416305766E+02  0.37910226387E+02  0.35987722736E+02  0.66206129809E+02  0.41800000000E+01 0. -1.
        -11    1    1    2    0    0  0.28342618275E+02  0.18080234113E+02 -0.11762960527E+03  0.12233937597E+03  0.00000000000E+00 0. -1.
         11    1    1    2    0    0  0.17987366516E+02 -0.33143871229E+02 -0.42799283818E+01  0.37952329851E+02  0.00000000000E+00 0.  1.
</event>
<event>
 7    1  0.2810263E-009  0.2070236E+03  0.7561462E-02  0.1143945E+00
          2   -1    0    0  501    0  0.00000000000E+00  0.00000000000E+00  0.24700585651E+03  0.24700585651E+03  0.00000000000E+00 0. -1.
         -2   -1    0    0    0  501 -0.00000000000E+00 -0.00000000000E+00 -0.19676953046E+03  0.19676953046E+03  0.00000000000E+00 0.  1.
         25    2    1    2    0    0  0.95962789696E+02 -0.15842732920E+03 -0.23007282230E+02  0.22468637248E+03  0.12508619147E+03 0.  0.
          5    1    3    3  502    0  0.50792265192E+01 -0.10868192939E+03  0.22939661376E+02  0.11127111387E+03  0.41800000000E+01 0. -1.
         -5    1    3    3    0  502  0.90883563176E+02 -0.49745399816E+02 -0.45946943607E+02  0.11341525861E+03  0.41800000000E+01 0. -1.
        -11    1    1    2    0    0 -0.86913337206E+02  0.67363248031E+02  0.63699277719E+02  0.12708002735E+03  0.00000000000E+00 0.  1.
         11    1    1    2    0    0 -0.90494524895E+01  0.91064081172E+02  0.95443305581E+01  0.92008987147E+02  0.00000000000E+00 0. -1.
</event>
<event>
 7    1  0.2810263E-009  0.2801105E+03  0.7561462E-02  0.1095629E+00
          2   -1    0    0  501    0  0.00000000000E+00  0.00000000000E+00  0.17511624378E+04  0.17511624378E+04  0.00000000000E+00 0. -1.
         -2   -1    0    0    0  501 -0.00000000000E+00 -0.00000000000E+00 -0.54206551862E+02  0.54206551862E+02  0.00000000000E+00 0.  1.
         25    2    1    2    0    0  0.21890981903E+03  0.13339687324E+03  0.49968095969E+03  0.57536494530E+03  0.12509006413E+03 0.  0.
          5    1    3    3  502    0  0.92967343652E+02 -0.10867545569E+02  0.16444236163E+03  0.18926117730E+03  0.41800000000E+01 0.  1.
         -5    1    3    3    0  502  0.12594247538E+03  0.14426441881E+03  0.33523859806E+03  0.38610376800E+03  0.41800000000E+01 0.  1.
        -11    1    1    2    0    0 -0.19487906421E+03 -0.69816369090E+02  0.10041950338E+04  0.10253096317E+04  0.00000000000E+00 0.  1.
         11    1    1    2    0    0 -0.24030754819E+02 -0.63580504148E+02  0.19307989248E+03  0.20469441263E+03  0.00000000000E+00 0. -1.
</event>
<event>
 7    1  0.2810263E-009  0.1148536E+03  0.7561462E-02  0.1251837E+00
          2   -1    0    0  501    0  0.00000000000E+00  0.00000000000E+00  0.28336252154E+02  0.28336252154E+02  0.00000000000E+00 0.  1.
         -2   -1    0    0    0  501 -0.00000000000E+00 -0.00000000000E+00 -0.60151482157E+03  0.60151482157E+03  0.00000000000E+00 0. -1.
         25    2    1    2    0    0  0.37057545508E+02  0.59537450749E+02 -0.36291710473E+03  0.39022356812E+03  0.12509052119E+03 0.  0.
          5    1    3    3  502    0 -0.33722137858E+02  0.33462117512E+02 -0.53290330082E+02  0.71513827826E+02  0.41800000000E+01 0. -1.
         -5    1    3    3    0  502  0.70779683366E+02  0.26075333237E+02 -0.30962677465E+03  0.31870974030E+03  0.41800000000E+01 0. -1.
        -11    1    1    2    0    0  0.25000311068E+02 -0.25417883574E+02 -0.11831212736E+03  0.12356716328E+03  0.00000000000E+00 0. -1.
         11    1    1    2    0    0 -0.62057856576E+02 -0.34119567174E+02 -0.91949337325E+02  0.11606034233E+03  0.00000000000E+00 0.  1.
</event>
<event>
 7    1  0.2810263E-009  0.1768010E+03  0.7561462E-02  0.1170935E+00
         -1   -1    0    0    0  501 -0.00000000000E+00  0.00000000000E+00  0.21248391561E+03  0.21248391561E+03  0.00000000000E+00 0.  1.
          1   -1    0    0  501    0  0.00000000000E+00 -0.00000000000E+00 -0.18089280722E+03  0.18089280722E+03  0.00000000000E+00 0. -1.
         25    2    1    2    0    0  0.13385483450E+03 -0.66676982029E+02 -0.46173996615E+02  0.20035485437E+03  0.12508834100E+03 0.  0.
          5    1    3    3  502    0  0.13724523053E+03 -0.19630361197E+02 -0.59849295549E+02  0.15106626017E+03  0.41800000000E+01 0. -1.
         -5    1    3    3    0  502 -0.33903960299E+01 -0.47046620832E+02  0.13675298934E+02  0.49288594196E+02  0.41800000000E+01 0. -1.
        -11    1    1    2    0    0 -0.11040638177E+03  0.15810752325E+02  0.79529176967E+02  0.13698335306E+03  0.00000000000E+00 0.  1.
         11    1    1    2    0    0 -0.23448452727E+02  0.50866229704E+02 -0.17640719605E+01  0.56038515411E+02  0.00000000000E+00 0. -1.
</event>
<event>
 7    1  0.2810263E-009  0.1669721E+03  0.7561462E-02  0.1181043E+00
         -2   -1    0    0    0  501 -0.00000000000E+00  0.00000000000E+00  0.45027387079E+02  0.45027387079E+02  0.00000000000E+00 0.  1.
          2   -1    0    0  501    0  0.00000000000E+00 -0.00000000000E+00 -0.68488343750E+03  0.68488343750E+03  0.00000000000E+00 0. -1.
         25    2    1    2    0    0 -0.13341535320E+03  0.28778566190E+02 -0.30401667830E+03  0.35594805311E+03  0.12508002832E+03 0.  0.
          5    1    3    3  502    0 -0.91104415791E+02 -0.31158141072E+02 -0.99021265669E+02  0.13817933198E+03  0.41800000000E+01 0.  1.
         -5    1    3    3    0  502 -0.42310937408E+02  0.59936707262E+02 -0.20499541263E+03  0.21776872113E+03  0.41800000000E+01 0.  1.
        -11    1    1    2    0    0  0.13111626932E+03 -0.51777425198E+02 -0.29719860305E+03  0.32893675303E+03  0.00000000000E+00 0. -1.
         11    1    1    2    0    0  0.22990838836E+01  0.22998859008E+02 -0.38640769071E+02  0.45026018443E+02  0.00000000000E+00 0.  1.
</event>
<event>
 7    1  0.2810263E-009  0.8762225E+02  0.7561462E-02  0.1308714E+00
         -1   -1    0    0    0  501 -0.00000000000E+00  0.00000000000E+00  0.44709439173E+02  0.44709439173E+02  0.00000000000E+00 0.  1.
          1   -1    0    0  501    0  0.00000000000E+00 -0.00000000000E+00 -0.34054133862E+03  0.34054133862E+03  0.00000000000E+00 0. -1.
         25    2    1    2    0    0 -0.45926512206E+01  0.30529859799E+02 -0.23644840797E+03  0.26927397856E+03  0.12508981218E+03 0.  0.
          5    1    3    3  502    0 -0.39331260417E+02 -0.27201645200E+02 -0.16113820086E+03  0.16813646161E+03  0.41800000000E+01 0.  1.
         -5    1    3    3    0  502  0.34738609196E+02  0.57731504999E+02 -0.75310207115E+02  0.10113751695E+03  0.41800000000E+01 0.  1.
        -11    1    1    2    0    0 -0.14487497315E+02 -0.36881141019E+02 -0.78687625783E+02  0.88101354091E+02  0.00000000000E+00 0. -1.
         11    1    1    2    0    0  0.19080148535E+02  0.63512812204E+01  0.19304134302E+02  0.27875445152E+02  0.00000000000E+00 0.  1.
</event>
<event>
 7    1  0.2810263E-009  0.9326486E+02  0.7561462E-02  0.1295133E+00
          1   -1    0    0  501    0  0.00000000000E+00  0.00000000000E+00  0.85689248698E+03  0.85689248698E+03  0.00000000000E+00 0. -1.
         -1   -1    0    0    0  501 -0.00000000000E+00 -0.00000000000E+00 -0.50322119152E+02  0.50322119152E+02  0.00000000000E+00 0.  1.
         25    2    1    2    0    0 -0.12824882730E+02 -0.39581067101E+02  0.79083461290E+03  0.80174656350E+03  0.12508808351E+03 0.  0.
          5    1    3    3  502    0 -0.79885088468E+01  0.45558045680E+02  0.28225337372E+03  0.28604858184E+03  0.41800000000E+01 0. -1.
         -5    1    3    3    0  502 -0.48363738834E+01 -0.85139112781E+02  0.50858123918E+03  0.51569798165E+03  0.41800000000E+01 0. -1.
        -11    1    1    2    0    0 -0.10498283823E+02  0.25223924655E+02 -0.37029765676E+02  0.46018082144E+02  0.00000000000E+00 0.  1.
         11    1    1    2    0    0  0.23323166554E+02  0.14357142446E+02  0.52765520608E+02  0.59449960490E+02  0.00000000000E+00 0. -1.
</event>
<event>
 7    1  0.2810263E-009  0.1130228E+03  0.7561462E-02  0.1255072E+00
          2   -1    0    0  501    0  0.00000000000E+00  0.00000000000E+00  0.67950604314E+02  0.67950604314E+02  0.00000000000E+00 0. -1.
         -2   -1    0    0    0  501 -0.00000000000E+00 -0.00000000000E+00 -0.24111592546E+03  0.24111592546E+03  0.00000000000E+00 0.  1.
         25    2    1    2    0    0  0.54498293532E+02 -0.16889961924E+02 -0.13349362941E+03  0.19163471222E+03  0.12509188231E+03 0.  0.
          5    1    3    3  502    0 -0.35744361276E+02 -0.23058895913E+02 -0.66276241183E+02  0.78863074941E+02  0.41800000000E+01 0.  1.
         -5    1    3    3    0  502  0.90242654808E+02  0.61689339886E+01 -0.67217388227E+02  0.11277163727E+03  0.41800000000E+01 0.  1.
        -11    1    1    2    0    0 -0.70066215385E+02  0.25978910677E+02 -0.55785024323E+02  0.93253135481E+02  0.00000000000E+00 0.  1.
         11    1    1    2    0    0  0.15567921853E+02 -0.90889487530E+01  0.16113332584E+02  0.24178682082E+02  0.00000000000E+00 0. -1.
</event>
<event>
 7    1  0.2810263E-009  0.6586637E+02  0.7561462E-02  0.1374742E+00
          1   -1    0    0  501    0  0.00000000000E+00  0.00000000000E+00  0.34989445862E+03  0.34989445862E+03  0.00000000000E+00 0. -1.
         -1   -1    0    0    0  501 -0.00000000000E+00 -0.00000000000E+00 -0.28023631794E+02  0.28023631794E+02  0.00000000000E+00 0.  1.
         25    2    1    2    0    0  0.19511167330E+02  0.12593109170E+01  0.17983062689E+03  0.21992741955E+03  0.12508694572E+03 0.  0.
          5    1    3    3  502    0  0.12604767163E+02  0.38828498570E+02  0.54900890323E+01  0.41402245519E+02  0.41800000000E+01 0. -1.
         -5    1    3    3    0  502  0.69064001665E+01 -0.37569187653E+02  0.17434053786E+03  0.17852517403E+03  0.41800000000E+01 0. -1.
        -11    1    1    2    0    0 -0.24744389095E+02 -0.20622554271E+02  0.13138946055E+03  0.13528031963E+03  0.00000000000E+00 0. -1.
         11    1    1    2    0    0  0.52332217655E+01  0.19363243354E+02  0.10650739383E+02  0.22710351223E+02  0.00000000000E+00 0.  1.
</event>
<event>
 7    1  0.2810263E-009  0.8725223E+02  0.7561462E-02  0.1309646E+00
          3   -1    0    0  501    0  0.00000000000E+00  0.00000000000E+00  0.10398278277E+03  0.10398278277E+03  0.00000000000E+00 0. -1.
         -3   -1    0    0    0  501 -0.00000000000E+00 -0.00000000000E+00 -0.12998010505E+03  0.12998010505E+03  0.00000000000E+00 0.  1.
         25    2    1    2    0    0 -0.48711979619E+02  0.99141811062E+00  0.16911152779E+01  0.13425476483E+03  0.12509053578E+03 0.  0.
          5    1    3    3  502    0 -0.76767467438E+02 -0.35518268050E+01  0.39709633882E+02  0.86603619748E+02  0.41800000000E+01 0. -1.
         -5    1    3    3    0  502  0.28055487818E+02  0.45432449156E+01 -0.38018518604E+02  0.47651145085E+02  0.41800000000E+01 0. -1.
        -11    1    1    2    0    0  0.52573023331E+02  0.13119233392E+02  0.13632590143E+02  0.55873827334E+02  0.00000000000E+00 0. -1.
         11    1    1    2    0    0 -0.38610437117E+01 -0.14110651502E+02 -0.41321027707E+02  0.43834295650E+02  0.00000000000E+00 0.  1.
</event>
<event>
 7    1  0.2810263E-009  0.1289267E+03  0.7561462E-02  0.1229057E+00
         -1   -1    0    0    0  501 -0.00000000000E+00  0.00000000000E+00  0.10849748222E+03  0.10849748222E+03  0.00000000000E+00 0.  1.
          1   -1    0    0  501    0  0.00000000000E+00 -0.00000000000E+00 -0.23906396232E+03  0.23906396232E+03  0.00000000000E+00 0. -1.
         25    2    1    2    0    0 -0.10916071512E+03  0.10326887494E+02 -0.11838700414E+03  0.20417159446E+03  0.12509137022E+03 0.  0.
          5    1    3    3  502    0  0.88256016258E+01 -0.67284676115E+01  0.18892953542E+02  0.22306492642E+02  0.41800000000E+01 0.  1.
         -5    1    3    3    0  502 -0.11798631674E+03  0.17055355106E+02 -0.13727995768E+03  0.18186510181E+03  0.41800000000E+01 0.  1.
        -11    1    1    2    0    0  0.23548479790E+02  0.24773777004E+02  0.26352191659E+02  0.43159111815E+02  0.00000000000E+00 0.  1.
         11    1    1    2    0    0  0.85612235326E+02 -0.35100664499E+02 -0.38531667612E+02  0.10023073827E+03  0.00000000000E+00 0. -1.
</event>
<event>
 7    1  0.2810263E-009  0.9643219E+02  0.7561462E-02  0.1287983E+00
         -2   -1    0    0    0  501 -0.00000000000E+00  0.00000000000E+00  0.10789203222E+03  0.10789203222E+03  0.00000000000E+00 0.  1.
          2   -1    0    0  501    0  0.00000000000E+00 -0.00000000000E+00 -0.19889543976E+03  0.19889543976E+03  0.00000000000E+00 0. -1.
         25    2    1    2    0    0 -0.31588300954E+01 -0.16571978913E+02 -0.15021033248E+03  0.19619968023E+03  0.12508621766E+03 0.  0.
          5    1    3    3  502    0  0.60838856393E+02 -0.74122873964E+01 -0.72457728742E+02  0.94994227751E+02  0.41800000000E+01 0. -1.
         -5    1    3    3    0  502 -0.63997686488E+02 -0.91596915168E+01 -0.77752603737E+02  0.10120545248E+03  0.41800000000E+01 0. -1.
        -11    1    1    2    0    0 -0.22974914776E+02 -0.13626513640E+02  0.64961311063E+02  0.70238881811E+02  0.00000000000E+00 0.  1.
         11    1    1    2    0    0  0.26133744872E+02  0.30198492554E+02 -0.57543861225E+01  0.40348909938E+02  0.00000000000E+00 0. -1.
</event>
<event>
 7    1  0.2810263E-009  0.1913308E+03  0.7561462E-02  0.1157266E+00
          2   -1    0    0  501    0  0.00000000000E+00  0.00000000000E+00  0.64373901662E+03  0.64373901662E+03  0.00000000000E+00 0.  1.
         -2   -1    0    0    0  501 -0.00000000000E+00 -0.00000000000E+00 -0.72832535877E+02  0.72832535877E+02  0.00000000000E+00 0. -1.
         25    2    1    2    0    0  0.16604346590E+03 -0.72999251956E+02  0.21044553446E+03  0.30468370180E+03  0.12508202035E+03 0.  0.
          5    1    3    3  502    0  0.16380925126E+03 -0.69861299186E+02  0.22620871661E+03  0.28792694871E+03  0.41800000000E+01 0. -1.
         -5    1    3    3    0  502  0.22342146354E+01 -0.31379527697E+01 -0.15763182151E+02  0.16756753091E+02  0.41800000000E+01 0. -1.
        -11    1    1    2    0    0 -0.50367811071E+02 -0.16048932247E+02  0.83933605737E+02  0.99193421104E+02  0.00000000000E+00 0.  1.
         11    1    1    2    0    0 -0.11567565482E+03  0.89048184202E+02  0.27652734055E+03  0.31269442959E+03  0.00000000000E+00 0. -1.
</event>
<event>
 7    1  0.2810263E-009  0.2679589E+03  0.7561462E-02  0.1102453E+00
         -1   -1    0    0    0  501 -0.00000000000E+00  0.00000000000E+00  0.78465300642E+02  0.78465300642E+02  0.00000000000E+00 0.  1.
          1   -1    0    0  501    0  0.00000000000E+00 -0.00000000000E+00 -0.10047599330E+04  0.10047599330E+04  0.00000000000E+00 0. -1.
         25    2    1    2    0    0  0.24588882379E+03  0.66609003083E+02 -0.55863247997E+03  0.62659225989E+03  0.12509811960E+03 0.  0.
          5    1    3    3  502    0  0.19621545668E+03  0.10075020020E+03 -0.39931741426E+03  0.45620497369E+03  0.41800000000E+01 0. -1.
         -5    1    3    3    0  502  0.49673367112E+02 -0.34141197121E+02 -0.15931506570E+03  0.17038728621E+03  0.41800000000E+01 0. -1.
        -11    1    1    2    0    0 -0.45813078456E+02 -0.15813700939E+02 -0.20258275668E+02  0.52529125522E+02  0.00000000000E+00 0.  1.
         11    1    1    2    0    0 -0.20007574534E+03 -0.50795302144E+02 -0.34740387676E+03  0.40410384826E+03  0.00000000000E+00 0. -1.
</event>
<event>
 7    1  0.2810263E-009  0.8779611E+02  0.7561462E-02  0.1308278E+00
         -2   -1    0    0    0  501 -0.00000000000E+00  0.00000000000E+00  0.83007403077E+02  0.83007403077E+02  0.00000000000E+00 0.  1.
          2   -1    0    0  501    0  0.00000000000E+00 -0.00000000000E+00 -0.17247954597E+03  0.17247954597E+03  0.00000000000E+00 0. -1.
         25    2    1    2    0    0 -0.20720623135E+02 -0.33561167520E+02 -0.25697681381E+02  0.13365624771E+03  0.12509166853E+03 0.  0.
          5    1    3    3  502    0 -0.31927597890E+02 -0.47879747236E+02 -0.66948617027E+02  0.88382302665E+02  0.41800000000E+01 0. -1.
         -5    1    3    3    0  502  0.11206974755E+02  0.14318579716E+02  0.41250935646E+02  0.45273945045E+02  0.41800000000E+01 0. -1.
        -11    1    1    2    0    0 -0.22857875743E+02 -0.19869157074E+02 -0.39436251128E+01  0.30542070417E+02  0.00000000000E+00 0.  1.
         11    1    1    2    0    0  0.43578498878E+02  0.53430324594E+02 -0.59830836396E+02  0.91288630916E+02  0.00000000000E+00 0. -1.
</event>
<event>
 7    1  0.2810263E-009  0.1015906E+03  0.7561462E-02  0.1276986E+00
         -2   -1    0    0    0  501 -0.00000000000E+00  0.00000000000E+00  0.11937649083E+03  0.11937649083E+03  0.00000000000E+00 0.  1.
          2   -1    0    0  501    0  0.00000000000E+00 -0.00000000000E+00 -0.10878635262E+03  0.10878635262E+03  0.00000000000E+00 0. -1.
         25    2    1    2    0    0 -0.16779168360E+02  0.11211162646E+02 -0.17578755909E+02  0.12791367724E+03  0.12508263472E+03 0.  0.
          5    1    3    3  502    0 -0.43566427680E+02 -0.33354013134E+02 -0.43046980104E+02  0.69864430929E+02  0.41800000000E+01 0. -1.
         -5    1    3    3    0  502  0.26787259320E+02  0.44565175779E+02  0.25468224194E+02  0.58049246315E+02  0.41800000000E+01 0. -1.
        -11    1    1    2    0    0  0.50714241468E+02  0.15250096243E+02  0.12162024666E+02  0.54336125801E+02  0.00000000000E+00 0. -1.
         11    1    1    2    0    0 -0.33935073108E+02 -0.26461258888E+02  0.16006869454E+02  0.45913040397E+02  0.00000000000E+00 0.  1.
</event>
<event>
 7    1  0.2810263E-009  0.3581184E+03  0.7561462E-02  0.1059331E+00
         -2   -1    0    0    0  501 -0.00000000000E+00  0.00000000000E+00  0.19789224554E+03  0.19789224554E+03  0.00000000000E+00 0.  1.
          2   -1    0    0  501    0  0.00000000000E+00 -0.00000000000E+00 -0.75329924439E+03  0.75329924439E+03  0.00000000000E+00 0. -1.
         25    2    1    2    0    0  0.24421697086E+03 -0.24234064205E+03 -0.44755870205E+03  0.57820994276E+03  0.12508809090E+03 0.  0.
          5    1    3    3  502    0  0.25006582072E+03 -0.21031603073E+03 -0.43257618770E+03  0.54213040686E+03  0.41800000000E+01 0. -1.
         -5    1    3    3    0  502 -0.58488498560E+01 -0.32024611323E+02 -0.14982514343E+02  0.36079535904E+02  0.41800000000E+01 0. -1.
        -11    1    1    2    0    0 -0.15966425111E+03  0.21494620698E+03 -0.88648859443E+02  0.28205170671E+03  0.00000000000E+00 0. -1.
         11    1    1    2    0    0 -0.84552719750E+02  0.27394435072E+02 -0.19199437369E+02  0.90929840456E+02  0.00000000000E+00 0.  1.
</event>
<event>
 7    1  0.2810263E-009  0.1011945E+03  0.7561462E-02  0.1277804E+00
         -1   -1    0    0    0  501 -0.00000000000E+00  0.00000000000E+00  0.69142934775E+02  0.69142934775E+02  0.00000000000E+00 0.  1.
          1   -1    0    0  501    0  0.00000000000E+00 -0.00000000000E+00 -0.27039238582E+03  0.27039238582E+03  0.00000000000E+00 0. -1.
         25    2    1    2    0    0  0.33698922043E+02 -0.15876740879E+02 -0.17967542609E+02  0.13175704188E+03  0.12509755093E+03 0.  0.
          5    1    3    3  502    0  0.70253367801E+02 -0.32934594291E+02 -0.38031554575E+02  0.86510662533E+02  0.41800000000E+01 0.  1.
         -5    1    3    3    0  502 -0.36554445758E+02  0.17057853411E+02  0.20064011966E+02  0.45246379345E+02  0.41800000000E+01 0.  1.
        -11    1    1    2    0    0 -0.52951174381E+01 -0.29842022682E+02 -0.21182894031E+02  0.36977014292E+02  0.00000000000E+00 0.  1.
         11    1    1    2    0    0 -0.28403804605E+02  0.45718763561E+02 -0.16209901440E+03  0.17080126442E+03  0.00000000000E+00 0. -1.
</event>
<event>
 7    1  0.2810263E-009  0.8264823E+02  0.7561462E-02  0.1321700E+00
         -2   -1    0    0    0  501 -0.00000000000E+00  0.00000000000E+00  0.35230375372E+02  0.35230375372E+02  0.00000000000E+00 0.  1.
          2   -1    0    0  501    0  0.00000000000E+00 -0.00000000000E+00 -0.50079733389E+03  0.50079733389E+03  0.00000000000E+00 0. -1.
         25    2    1    2    0    0 -0.65345330139E+00 -0.56883061686E+02 -0.36408834406E+03  0.38915313334E+03  0.12507489435E+03 0.  0.
          5    1    3    3  502    0 -0.34403921612E+02 -0.25621274754E+02 -0.32723130586E+03  0.33005738816E+03  0.41800000000E+01 0. -1.
         -5    1    3    3    0  502  0.33750468311E+02 -0.31261786932E+02 -0.36857038199E+02  0.59095745178E+02  0.41800000000E+01 0. -1.
        -11    1    1    2    0    0  0.25276509919E+02  0.23430517282E+02 -0.99488508607E+02  0.10528938426E+03  0.00000000000E+00 0. -1.
         11    1    1    2    0    0 -0.24623056617E+02  0.33452544404E+02 -0.19901058523E+01  0.41585191662E+02  0.00000000000E+00 0.  1.
</event>
<event>
 7    1  0.2810263E-009  0.9383233E+02  0.7561462E-02  0.1293828E+00
          1   -1    0    0  501    0  0.00000000000E+00  0.00000000000E+00  0.41542564337E+03  0.41542564337E+03  0.00000000000E+00 0. -1.
         -1   -1    0    0    0  501 -0.00000000000E+00 -0.00000000000E+00 -0.47123608618E+02  0.47123608618E+02  0.00000000000E+00 0.  1.
         25    2    1    2    0    0 -0.31737007309E+02 -0.35989374852E+02  0.31822610358E+03  0.34527908393E+03  0.12508924840E+03 0.  0.
          5    1    3    3  502    0 -0.44847883775E+02 -0.77073069404E+02  0.18989562600E+03  0.20983186574E+03  0.41800000000E+01 0. -1.
         -5    1    3    3    0  502  0.13110876466E+02  0.41083694551E+02  0.12833047758E+03  0.13544721819E+03  0.41800000000E+01 0. -1.
        -11    1    1    2    0    0  0.23485865239E+02  0.63894197517E+01 -0.25763184509E+02  0.35442237893E+02  0.00000000000E+00 0.  1.
         11    1    1    2    0    0  0.82511420700E+01  0.29599955101E+02  0.75839115686E+02  0.81827930168E+02  0.00000000000E+00 0. -1.
</event>
<event>
 7    1  0.2810263E-009  0.9793530E+02  0.7561462E-02  0.1284699E+00
          1   -1    0    0  501    0  0.00000000000E+00  0.00000000000E+00  0.10426997171E+03  0.10426997171E+03  0.00000000000E+00 0. -1.
         -1   -1    0    0    0  501 -0.00000000000E+00 -0.00000000000E+00 -0.14151407349E+03  0.14151407349E+03  0.00000000000E+00 0.  1.
         25    2    1    2    0    0 -0.20491352047E+02  0.50786156160E+02 -0.32612593386E+02  0.14037635930E+03  0.12507122705E+03 0.  0.
          5    1    3    3  502    0  0.50452198569E+02  0.38304615561E+02 -0.72580714816E+01  0.63896947622E+02  0.41800000000E+01 0.  1.
         -5    1    3    3    0  502 -0.70943550616E+02  0.12481540598E+02 -0.25354521904E+02  0.76479411678E+02  0.41800000000E+01 0.  1.
        -11    1    1    2    0    0  0.26430253055E+02 -0.40731518466E+02 -0.43273306353E+02  0.65039940927E+02  0.00000000000E+00 0.  1.
         11    1    1    2    0    0 -0.59389010088E+01 -0.10054637694E+02  0.38641797963E+02  0.40367744973E+02  0.00000000000E+00 0. -1.
</event>
<event>
 7    1  0.2810263E-009  0.1044713E+03  0.7561462E-02  0.1271165E+00
          1   -1    0    0  501    0  0.00000000000E+00  0.00000000000E+00  0.98960140881E+02  0.98960140881E+02  0.00000000000E+00 0. -1.
         -1   -1    0    0    0  501 -0.00000000000E+00 -0.00000000000E+00 -0.13195578581E+03  0.13195578581E+03  0.00000000000E+00 0.  1.
         25    2    1    2    0    0  0.35875706473E+02  0.10732223173E+02 -0.70497941548E+01  0.13076592751E+03  0.12509109190E+03 0.  0.
          5    1    3    3  502    0  0.41337740676E+02 -0.42187622510E+02  0.29431263055E+02  0.66123187629E+02  0.41800000000E+01 0.  1.
         -5    1    3    3    0  502 -0.54620342021E+01  0.52919845683E+02 -0.36481057209E+02  0.64642739885E+02  0.41800000000E+01 0.  1.
        -11    1    1    2    0    0 -0.48556947295E+02  0.27695003356E+02 -0.19327139098E+02  0.59146670635E+02  0.00000000000E+00 0.  1.
         11    1    1    2    0    0  0.12681240821E+02 -0.38427226528E+02 -0.66187116773E+01  0.41003328544E+02  0.00000000000E+00 0. -1.
</event>
<event>
 7    1  0.2810263E-009  0.2208085E+03  0.7561462E-02  0.1133282E+00
          2   -1    0    0  501    0  0.00000000000E+00  0.00000000000E+00  0.76575280138E+03  0.76575280138E+03  0.00000000000E+00 0. -1.
         -2   -1    0    0    0  501 -0.00000000000E+00 -0.00000000000E+00 -0.10471173942E+03  0.10471173942E+03  0.00000000000E+00 0.  1.
         25    2    1    2    0    0  0.13555783247E+03 -0.15895747905E+03  0.96803409141E+02  0.26203531112E+03  0.12509275822E+03 0.  0.
          5    1    3    3  502    0  0.10642680949E+03 -0.16479059279E+03  0.11452373432E+03  0.22719102837E+03  0.41800000000E+01 0.  1.
         -5    1    3    3    0  502  0.29131022979E+02  0.58331137350E+01 -0.17720325177E+02  0.34844282745E+02  0.41800000000E+01 0.  1.
        -11    1    1    2    0    0 -0.10325426915E+03  0.81719225546E+02  0.24214108081E+03  0.27562978602E+03  0.00000000000E+00 0.  1.
         11    1    1    2    0    0 -0.32303563317E+02  0.77238253506E+02  0.32209657200E+03  0.33279944366E+03  0.00000000000E+00 0. -1.
</event>
<event>
 7    1  0.4476667E-009  0.1444807E+03  0.7561462E-02  0.1207424E+00
          2   -1    0    0  501    0  0.00000000000E+00  0.00000000000E+00  0.11238602104E+04  0.11238602104E+04  0.00000000000E+00 0. -1.
         -2   -1    0    0    0  501 -0.00000000000E+00 -0.00000000000E+00 -0.26856299628E+02  0.26856299628E+02  0.00000000000E+00 0.  1.
         25    2    1    2    0    0 -0.31477887794E+02 -0.10588862964E+03  0.84124295104E+03  0.85763644795E+03  0.12508922765E+03 0.  0.
          5    1    3    3  502    0 -0.27437648658E+02 -0.13467662904E+03  0.69657109134E+03  0.71001364541E+03  0.41800000000E+01 0.  1.
         -5    1    3    3    0  502 -0.40402391357E+01  0.28787999403E+02  0.14467185970E+03  0.14762280255E+03  0.41800000000E+01 0.  1.
        -11    1    1    2    0    0 -0.11616640671E+02  0.50971095037E+02  0.38626204195E+02  0.64999865540E+02  0.00000000000E+00 0.  1.
         11    1    1    2    0    0  0.43094528465E+02  0.54917534602E+02  0.21713475556E+03  0.22808019656E+03  0.00000000000E+00 0. -1.
</event>
<event>
 7    1  0.2810263E-009  0.2123884E+03  0.7561462E-02  0.1139688E+00
         -1   -1    0    0    0  501 -0.00000000000E+00  0.00000000000E+00  0.39250171916E+02  0.39250171916E+02  0.00000000000E+00 0.  1.
          1   -1    0    0  501    0  0.00000000000E+00 -0.00000000000E+00 -0.11936037088E+04  0.11936037088E+04  0.00000000000E+00 0. -1.
         25    2    1    2    0    0  0.52897668189E+02  0.17974617059E+03 -0.62796221145E+03  0.66715115082E+03  0.12508904783E+03 0.  0.
          5    1    3    3  502    0  0.84207263888E+02  0.79374406844E+02 -0.26389546584E+03  0.28818301311E+03  0.41800000000E+01 0. -1.
         -5    1    3    3    0  502 -0.31309595699E+02  0.10037176375E+03 -0.36406674561E+03  0.37896813771E+03  0.41800000000E+01 0. -1.
        -11    1    1    2    0    0  0.19891155126E+02 -0.19994297898E+02 -0.11523786949E+03  0.11863893360E+03  0.00000000000E+00 0. -1.
         11    1    1    2    0    0 -0.72788823315E+02 -0.15975187269E+03 -0.41115345596E+03  0.44706379631E+03  0.00000000000E+00 0.  1.
</event>
<event>
 7    1  0.2810263E-009  0.1356861E+03  0.7561462E-02  0.1219254E+00
         -2   -1    0    0    0  501 -0.00000000000E+00  0.00000000000E+00  0.10067400945E+03  0.10067400945E+03  0.00000000000E+00 0.  1.
          2   -1    0    0  501    0  0.00000000000E+00 -0.00000000000E+00 -0.29606216209E+03  0.29606216209E+03  0.00000000000E+00 0. -1.
         25    2    1    2    0    0  0.11715113743E+03 -0.46537764569E+02 -0.15460883724E+03  0.23546141433E+03  0.12509209630E+03 0.  0.
          5    1    3    3  502    0  0.84981112676E+02 -0.75051350541E+01 -0.14750214372E+02  0.86678473612E+02  0.41800000000E+01 0. -1.
         -5    1    3    3    0  502  0.32170024752E+02 -0.39032629515E+02 -0.13985862287E+03  0.14878294072E+03  0.41800000000E+01 0. -1.
        -11    1    1    2    0    0 -0.88261003608E+02  0.56324363891E+02  0.66179403888E+01  0.10491060890E+03  0.00000000000E+00 0.  1.
         11    1    1    2    0    0 -0.28890133820E+02 -0.97865993215E+01 -0.47397255785E+02  0.56364148307E+02  0.00000000000E+00 0. -1.
</event>
<event>
 7    1  0.2810263E-009  0.9452967E+02  0.7561462E-02  0.1292239E+00
          2   -1    0    0  501    0  0.00000000000E+00  0.00000000000E+00  0.80218627717E+03  0.80218627717E+03  0.00000000000E+00 0. -1.
         -2   -1    0    0    0  501 -0.00000000000E+00 -0.00000000000E+00 -0.25570867982E+02  0.25570867982E+02  0.00000000000E+00 0.  1.
         25    2    1    2    0    0  0.50135354176E+02 -0.78143716991E+00  0.19617147872E+03  0.23800122692E+03  0.12508865083E+03 0.  0.
          5    1    3    3  502    0  0.26294757897E+02  0.33597847921E+02  0.19086826527E+03  0.19562309875E+03  0.41800000000E+01 0. -1.
         -5    1    3    3    0  502  0.23840596279E+02 -0.34379285091E+02  0.53032134569E+01  0.42378128171E+02  0.41800000000E+01 0. -1.
        -11    1    1    2    0    0  0.77445215007E+01  0.35712258967E+02  0.18489756445E+03  0.18847400986E+03  0.00000000000E+00 0.  1.
         11    1    1    2    0    0 -0.57879875677E+02 -0.34930821797E+02  0.39554636601E+03  0.40128190837E+03  0.00000000000E+00 0. -1.
</event>
<event>
 7    1  0.2810263E-009  0.1051396E+03  0.7561462E-02  0.1269845E+00
          2   -1    0    0  501    0  0.00000000000E+00  0.00000000000E+00  0.14598459999E+03  0.14598459999E+03  0.00000000000E+00 0. -1.
         -2   -1    0    0    0  501 -0.00000000000E+00 -0.00000000000E+00 -0.12646031981E+03  0.12646031981E+03  0.00000000000E+00 0.  1.
         25    2    1    2    0    0  0.73848757442E+01  0.56134755674E+02 -0.47635604212E+02  0.14533355093E+03  0.12508814114E+03 0.  0.
          5    1    3    3  502    0  0.43219945934E+02  0.28239487125E+00 -0.63546057336E+02  0.76965039312E+02  0.41800000000E+01 0.  1.
         -5    1    3    3    0  502 -0.35835070189E+02  0.55852360803E+02  0.15910453124E+02  0.68368511621E+02  0.41800000000E+01 0.  1.
        -11    1    1    2    0    0 -0.11658570273E+00 -0.77652806367E+02  0.69585954968E+02  0.10426973222E+03  0.00000000000E+00 0. -1.
         11    1    1    2    0    0 -0.72682900414E+01  0.21518050693E+02 -0.24260705766E+01  0.22841636636E+02  0.00000000000E+00 0.  1.
</event>
<event>
 7    1  0.2810263E-009  0.1059504E+03  0.7561462E-02  0.1268258E+00
          2   -1    0    0  501    0  0.00000000000E+00  0.00000000000E+00  0.63657807660E+03  0.63657807660E+03  0.00000000000E+00 0. -1.
         -2   -1    0    0    0  501 -0.00000000000E+00 -0.00000000000E+00 -0.27844315474E+02  0.27844315474E+02  0.00000000000E+00 0.  1.
         25    2    1    2    0    0 -0.67583816967E+02  0.51417328100E+01  0.24420523567E+03  0.28262918752E+03  0.12509616614E+03 0.  0.
          5    1    3    3  502    0 -0.11878010296E+02 -0.37652168918E+02  0.14305236250E+02  0.42200534795E+02  0.41800000000E+01 0.  1.
         -5    1    3    3    0  502 -0.55705806671E+02  0.42793901728E+02  0.22989999942E+03  0.24042865273E+03  0.41800000000E+01 0.  1.
        -11    1    1    2    0    0  0.23242966574E+02 -0.39434412762E+02  0.25146315342E+03  0.25559543410E+03  0.00000000000E+00 0. -1.
         11    1    1    2    0    0  0.44340850393E+02  0.34292679952E+02  0.11306537204E+03  0.12619777045E+03  0.00000000000E+00 0.  1.
</event>
<event>
 7    1  0.2810263E-009  0.1867033E+03  0.7561462E-02  0.1161469E+00
         -1   -1    0    0    0  501 -0.00000000000E+00  0.00000000000E+00  0.98616030111E+02  0.98616030111E+02  0.00000000000E+00 0.  1.
          1   -1    0    0  501    0  0.00000000000E+00 -0.00000000000E+00 -0.37280865397E+03  0.37280865397E+03  0.00000000000E+00 0. -1.
         25    2    1    2    0    0 -0.15703669107E+03  0.44187529472E+01 -0.12407949147E+03  0.23605792241E+03  0.12509026663E+03 0.  0.
          5    1    3    3  502    0 -0.83972993894E+02  0.64291140093E+02 -0.73158737486E+02  0.12866424394E+03  0.41800000000E+01 0. -1.
         -5    1    3    3    0  502 -0.73063697181E+02 -0.59872387146E+02 -0.50920753988E+02  0.10739367847E+03  0.41800000000E+01 0. -1.
        -11    1    1    2    0    0  0.10604661360E+02  0.21807857507E+02 -0.31516573725E+00  0.24251614813E+02  0.00000000000E+00 0.  1.
         11    1    1    2    0    0  0.14643202971E+03 -0.26226610454E+02 -0.14979796665E+03  0.21111514686E+03  0.00000000000E+00 0. -1.
</event>
<event>
 7    1  0.2810263E-009  0.1242369E+03  0.7561462E-02  0.1236267E+00
         -2   -1    0    0    0  501 -0.00000000000E+00  0.00000000000E+00  0.31411906728E+02  0.31411906728E+02  0.00000000000E+00 0.  1.
          2   -1    0    0  501    0  0.00000000000E+00 -0.00000000000E+00 -0.52410214921E+03  0.52410214921E+03  0.00000000000E+00 0. -1.
         25    2    1    2    0    0  0.26389497331E+02 -0.60237583281E+02 -0.23681819077E+03  0.27578817155E+03  0.12510510813E+03 0.  0.
          5    1    3    3  502    0 -0.47673662300E+02 -0.29375103580E+02 -0.13408286853E+03  0.14536630566E+03  0.41800000000E+01 0. -1.
         -5    1    3    3    0  502  0.74063159630E+02 -0.30862479702E+02 -0.10273532224E+03  0.13042186590E+03  0.41800000000E+01 0. -1.
        -11    1    1    2    0    0 -0.55050132450E+02  0.12746114662E+02 -0.11003278951E+03  0.12369395817E+03  0.00000000000E+00 0.  1.
         11    1    1    2    0    0  0.28660635119E+02  0.47491468619E+02 -0.14583926220E+03  0.15603192621E+03  0.00000000000E+00 0. -1.
</event>
<event>
 7    1  0.2810263E-009  0.9011345E+02  0.7561462E-02  0.1302577E+00
         -2   -1    0    0    0  501 -0.00000000000E+00  0.00000000000E+00  0.63736810872E+02  0.63736810872E+02  0.00000000000E+00 0.  1.
          2   -1    0    0  501    0  0.00000000000E+00 -0.00000000000E+00 -0.21761833113E+03  0.21761833113E+03  0.00000000000E+00 0. -1.
         25    2    1    2    0    0  0.42657801051E+02 -0.10789734178E+02 -0.95806973037E+02  0.16360130878E+03  0.12510118224E+03 0.  0.
          5    1    3    3  502    0  0.20185238745E+01 -0.36365541001E+02  0.17385562669E+02  0.40574095187E+02  0.41800000000E+01 0.  1.
         -5    1    3    3    0  502  0.40639277177E+02  0.25575806824E+02 -0.11319253571E+03  0.12302721359E+03  0.41800000000E+01 0.  1.
        -11    1    1    2    0    0 -0.41089422647E+02 -0.32290114575E+02 -0.10044719306E+02  0.53215491529E+02  0.00000000000E+00 0.  1.
         11    1    1    2    0    0 -0.15683784039E+01  0.43079848752E+02 -0.48029827916E+02  0.64538341697E+02  0.00000000000E+00 0. -1.
</event>
<event>
 7    1  0.2810263E-009  0.9725402E+02  0.7561462E-02  0.1286179E+00
          1   -1    0    0  501    0  0.00000000000E+00  0.00000000000E+00  0.46891923722E+02  0.46891923722E+02  0.00000000000E+00 0. -1.
         -1   -1    0    0    0  501 -0.00000000000E+00 -0.00000000000E+00 -0.28022212216E+03  0.28022212216E+03  0.00000000000E+00 0.  1.
         25    2    1    2    0    0  0.27844214324E+02  0.76201704880E+01 -0.97827849995E+02  0.16139897924E+03  0.12508387185E+03 0.  0.
          5    1    3    3  502    0  0.64153882696E+02  0.41442807713E+02 -0.44753503296E+02  0.88620400774E+02  0.41800000000E+01 0. -1.
         -5    1    3    3    0  502 -0.36309668372E+02 -0.33822637225E+02 -0.53074346699E+02  0.72778578467E+02  0.41800000000E+01 0. -1.
        -11    1    1    2    0    0  0.84807887948E+01 -0.26115282302E+02 -0.11834565703E+03  0.12148920234E+03  0.00000000000E+00 0.  1.
         11    1    1    2    0    0 -0.36325003119E+02  0.18495111814E+02 -0.17156691415E+02  0.44225864298E+02  0.00000000000E+00 0. -1.
</event>
<event>
 7    1  0.2810263E-009  0.2721540E+03  0.7561462E-02  0.1100053E+00
          1   -1    0    0  501    0  0.00000000000E+00  0.00000000000E+00  0.11615168888E+04  0.11615168888E+04  0.00000000000E+00 0. -1.
         -1   -1    0    0    0  501 -0.00000000000E+00 -0.00000000000E+00 -0.71909009304E+02  0.71909009304E+02  0.00000000000E+00 0.  1.
         25    2    1    2    0    0  0.16666496041E+03 -0.20459890030E+03  0.47288950401E+03  0.55579633453E+03  0.12508862235E+03 0.  0.
          5    1    3    3  502    0  0.10371706992E+03 -0.15656481621E+03  0.42107428131E+03  0.46107569340E+03  0.41800000000E+01 0.  1.
         -5    1    3    3    0  502  0.62947890493E+02 -0.48034084098E+02  0.51815222706E+02  0.94720641133E+02  0.41800000000E+01 0.  1.
        -11    1    1    2    0    0 -0.12846859149E+03  0.91309935442E+02  0.40332943615E+03  0.43303154316E+03  0.00000000000E+00 0.  1.
         11    1    1    2    0    0 -0.38196368924E+02  0.11328896486E+03  0.21338893934E+03  0.24459802042E+03  0.00000000000E+00 0. -1.
</event>
<event>
 7    1  0.2810263E-009  0.2044011E+03  0.7561462E-02  0.1146078E+00
         -1   -1    0    0    0  501 -0.00000000000E+00  0.00000000000E+00  0.19209029541E+03  0.19209029541E+03  0.00000000000E+00 0.  1.
          1   -1    0    0  501    0  0.00000000000E+00 -0.00000000000E+00 -0.29991335898E+03  0.29991335898E+03  0.00000000000E+00 0. -1.
         25    2    1    2    0    0 -0.16865276402E+03  0.81155905488E+02 -0.16162238090E+03  0.27712638334E+03  0.12508877858E+03 0.  0.
          5    1    3    3  502    0 -0.18597468807E+03  0.82379149192E+02 -0.16067039851E+03  0.25923996255E+03  0.41800000000E+01 0.  1.
         -5    1    3    3    0  502  0.17321924053E+02 -0.12232437044E+01 -0.95198238800E+00  0.17886420786E+02  0.41800000000E+01 0.  1.
        -11    1    1    2    0    0  0.10986467799E+03 -0.46918423176E+02 -0.12209292730E+02  0.12008602222E+03  0.00000000000E+00 0. -1.
         11    1    1    2    0    0  0.58788086028E+02 -0.34237482312E+02  0.66008610060E+02  0.94791248837E+02  0.00000000000E+00 0.  1.
</event>
<event>
 7    1  0.2810263E-009  0.1083086E+03  0.7561462E-02  0.1263735E+00
          2   -1    0    0  501    0  0.00000000000E+00  0.00000000000E+00  0.55310841805E+02  0.55310841805E+02  0.00000000000E+00 0. -1.
         -2   -1    0    0    0  501 -0.00000000000E+00 -0.00000000000E+00 -0.24822121930E+03  0.24822121930E+03  0.00000000000E+00 0.  1.
         25    2    1    2    0    0  0.20612141397E+02 -0.17005932233E+01 -0.15924309520E+03  0.20355331995E+03  0.12509131986E+03 0.  0.
          5    1    3    3  502    0  0.49834614242E+02 -0.46920137671E+02 -0.62623010599E+02  0.92866043052E+02  0.41800000000E+01 0. -1.
         -5    1    3    3    0  502 -0.29222472845E+02  0.45219544448E+02 -0.96620084604E+02  0.11068727690E+03  0.41800000000E+01 0. -1.
        -11    1    1    2    0    0 -0.23221703831E+02  0.45012787727E+02 -0.20416511046E+02  0.54609820646E+02  0.00000000000E+00 0.  1.
         11    1    1    2    0    0  0.26095624331E+01 -0.43312194503E+02 -0.13250771242E+02  0.45368920500E+02  0.00000000000E+00 0. -1.
</event>
<event>
 7    1  0.2810263E-009  0.9227811E+02  0.7561462E-02  0.1297427E+00
          2   -1    0    0  501    0  0.00000000000E+00  0.00000000000E+00  0.33225706614E+03  0.33225706614E+03  0.00000000000E+00 0. -1.
         -2   -1    0    0    0  501 -0.00000000000E+00 -0.00000000000E+00 -0.39962570369E+02  0.39962570369E+02  0.00000000000E+00 0.  1.
         25    2    1    2    0    0 -0.28489446841E+02  0.32779886126E+02  0.14820979465E+03  0.19874452446E+03  0.12508826187E+03 0.  0.
          5    1    3    3  502    0 -0.52083785419E+02  0.61282743729E+02  0.13858184579E+03  0.16028317368E+03  0.41800000000E+01 0.  1.
         -5    1    3    3    0  502  0.23594338578E+02 -0.28502857603E+02  0.96279488529E+01  0.38461350777E+02  0.41800000000E+01 0.  1.
        -11    1    1    2    0    0  0.76891488543E+01 -0.42949187173E+02  0.21349692286E+02  0.48575354344E+02  0.00000000000E+00 0.  1.
         11    1    1    2    0    0  0.20800297986E+02  0.10169301047E+02  0.12273500884E+03  0.12489975771E+03  0.00000000000E+00 0. -1.
</event>
<event>
 7    1  0.2810263E-009  0.7908647E+02  0.7561462E-02  0.1331664E+00
         -1   -1    0    0    0  501 -0.00000000000E+00  0.00000000000E+00  0.16631982234E+02  0.16631982234E+02  0.00000000000E+00 0.  1.
          1   -1    0    0  501    0  0.00000000000E+00 -0.00000000000E+00 -0.76273382438E+03  0.76273382438E+03  0.00000000000E+00 0. -1.
         25    2    1    2    0    0  0.99753455203E+01 -0.83499074166E+01 -0.50841135627E+03  0.52373520655E+03  0.12508889206E+03 0.  0.
          5    1    3    3  502    0 -0.31169926297E+02 -0.29810058788E+01 -0.45440107985E+03  0.45549782049E+03  0.41800000000E+01 0.  1.
         -5    1    3    3    0  502  0.41145271817E+02 -0.53689015379E+01 -0.54010276426E+02  0.68237386060E+02  0.41800000000E+01 0.  1.
        -11    1    1    2    0    0  0.41437539479E+01 -0.37077306863E+02 -0.52358761147E+02  0.64291035532E+02  0.00000000000E+00 0. -1.
         11    1    1    2    0    0 -0.14119099468E+02  0.45427214280E+02 -0.18533172473E+03  0.19133956454E+03  0.00000000000E+00 0.  1.
</event>
<event>
 7    1  0.2810263E-009  0.1300673E+03  0.7561462E-02  0.1227356E+00
          1   -1    0    0  501    0  0.00000000000E+00  0.00000000000E+00  0.42879104572E+02  0.42879104572E+02  0.00000000000E+00 0. -1.
         -1   -1    0    0    0  501 -0.00000000000E+00 -0.00000000000E+00 -0.61007855355E+03  0.61007855355E+03  0.00000000000E+00 0.  1.
         25    2    1    2    0    0  0.42678899056E+02 -0.10410292795E+03 -0.21767796848E+03  0.27512141620E+03  0.12509671323E+03 0.  0.
          5    1    3    3  502    0  0.57506953168E+02 -0.10938478604E+03 -0.22540636321E+03  0.25709450025E+03  0.41800000000E+01 0. -1.
         -5    1    3    3    0  502 -0.14828054111E+02  0.52818580920E+01  0.77283947369E+01  0.18026915955E+02  0.41800000000E+01 0. -1.
        -11    1    1    2    0    0 -0.22039313280E+02  0.10622594489E+02 -0.12484088918E+02  0.27466767550E+02  0.00000000000E+00 0. -1.
         11    1    1    2    0    0 -0.20639585777E+02  0.93480333461E+02 -0.33703739158E+03  0.35036947437E+03  0.00000000000E+00 0.  1.
</event>
<event>
 7    1  0.2810263E-009  0.1087195E+03  0.7561462E-02  0.1262960E+00
         -1   -1    0    0    0  501 -0.00000000000E+00  0.00000000000E+00  0.64199762111E+02  0.64199762111E+02  0.00000000000E+00 0.  1.
          1   -1    0    0  501    0  0.00000000000E+00 -0.00000000000E+00 -0.26012340181E+03  0.26012340181E+03  0.00000000000E+00 0. -1.
         25    2    1    2    0    0  0.48759140870E+02  0.34214293171E+02 -0.15520138031E+03  0.20804046639E+03  0.12508115577E+03 0.  0.
          5    1    3    3  502    0  0.74223276612E+02  0.64571138675E+02 -0.11580427805E+03  0.15200865092E+03  0.41800000000E+01 0.  1.
         -5    1    3    3    0  502 -0.25464135742E+02 -0.30356845504E+02 -0.39397102264E+02  0.56031815470E+02  0.41800000000E+01 0.  1.
        -11    1    1    2    0    0 -0.28095283662E+02 -0.47051571173E+02  0.13858099513E+02  0.56526473762E+02  0.00000000000E+00 0.  1.
         11    1    1    2    0    0 -0.20663857208E+02  0.12837278001E+02 -0.54580358903E+02  0.59756223770E+02  0.00000000000E+00 0. -1.
</event>
<event>
 7    1  0.2810263E-009  0.1000524E+03  0.7561462E-02  0.1280186E+00
          2   -1    0    0  501    0  0.00000000000E+00  0.00000000000E+00  0.31642956729E+03  0.31642956729E+03  0.00000000000E+00 0.  1.
         -2   -1    0    0    0  501 -0.00000000000E+00 -0.00000000000E+00 -0.50843644868E+02  0.50843644868E+02  0.00000000000E+00 0. -1.
         25    2    1    2    0    0  0.47490948812E+02 -0.44093558506E+02  0.15484323062E+03  0.20934112268E+03  0.12509055701E+03 0.  0.
          5    1    3    3  502    0  0.54949156683E+02 -0.77616220328E+01  0.16203906102E+03  0.17132945542E+03  0.41800000000E+01 0.  1.
         -5    1    3    3    0  502 -0.74582078708E+01 -0.36331936473E+02 -0.71958304045E+01  0.38011667258E+02  0.41800000000E+01 0.  1.
        -11    1    1    2    0    0 -0.69835209489E+02  0.47594818803E+02  0.10464137658E+03  0.13450665766E+03  0.00000000000E+00 0.  1.
         11    1    1    2    0    0  0.22344260676E+02 -0.35012602970E+01  0.61013152245E+01  0.23425431828E+02  0.00000000000E+00 0. -1.
</event>
<event>
 7    1  0.2810263E-009  0.1567600E+03  0.7561462E-02  0.1192404E+00
         -1   -1    0    0    0  501 -0.00000000000E+00  0.00000000000E+00  0.17311014139E+03  0.17311014139E+03  0.00000000000E+00 0.  1.
          1   -1    0    0  501    0  0.00000000000E+00 -0.00000000000E+00 -0.25728662809E+03  0.25728662809E+03  0.00000000000E+00 0. -1.
         25    2    1    2    0    0  0.14522637187E+03 -0.21047701845E+02  0.63576216073E+02  0.20303369447E+03  0.12508813294E+03 0.  0.
          5    1    3    3  502    0  0.10640261983E+03 -0.83304409083E+01 -0.21145937119E+02  0.10888313372E+03  0.41800000000E+01 0.  1.
         -5    1    3    3    0  502  0.38823752033E+02 -0.12717260937E+02  0.84722153192E+02  0.94150560748E+02  0.41800000000E+01 0.  1.
        -11    1    1    2    0    0 -0.96976759464E+02  0.50272639812E+02 -0.12636893324E+03  0.16703573713E+03  0.00000000000E+00 0. -1.
         11    1    1    2    0    0 -0.48249612402E+02 -0.29224937967E+02 -0.21383769523E+02  0.60327337875E+02  0.00000000000E+00 0.  1.
</event>
<event>
 7    1  0.2810263E-009  0.7487140E+02  0.7561462E-02  0.1344270E+00
         -1   -1    0    0    0  501 -0.00000000000E+00  0.00000000000E+00  0.39815970593E+03  0.39815970593E+03  0.00000000000E+00 0.  1.
          1   -1    0    0  501    0  0.00000000000E+00 -0.00000000000E+00 -0.31672584419E+02  0.31672584419E+02  0.00000000000E+00 0. -1.
         25    2    1    2    0    0  0.22084594657E+02 -0.12620052939E+02  0.20687338541E+03  0.24308667633E+03  0.12509012575E+03 0.  0.
          5    1    3    3  502    0 -0.63957209776E+01 -0.36875052465E+02  0.20158839690E+03  0.20507566629E+03  0.41800000000E+01 0. -1.
         -5    1    3    3    0  502  0.28480315634E+02  0.24254999526E+02  0.52849885153E+01  0.38011010040E+02  0.41800000000E+01 0. -1.
        -11    1    1    2    0    0  0.24273911960E+02 -0.51161134909E+01  0.12192445640E+03  0.12442254815E+03  0.00000000000E+00 0.  1.
         11    1    1    2    0    0 -0.46358506616E+02  0.17736166430E+02  0.37689279696E+02  0.62323065869E+02  0.00000000000E+00 0. -1.
</event>
<event>
 7    1  0.2810263E-009  0.7462932E+02  0.7561462E-02  0.1345023E+00
          2   -1    0    0  501    0  0.00000000000E+00  0.00000000000E+00  0.41332005144E+03  0.41332005144E+03  0.00000000000E+00 0. -1.
         -2   -1    0    0    0  501 -0.00000000000E+00 -0.00000000000E+00 -0.28587452468E+02  0.28587452468E+02  0.00000000000E+00 0.  1.
         25    2    1    2    0    0  0.68380313671E+00 -0.34261434572E+02  0.18150207721E+03  0.22308083927E+03  0.12509094025E+03 0.  0.
          5    1    3    3  502    0 -0.43820026596E+02 -0.26707805526E+02  0.19831844370E+02  0.55174958613E+02  0.41800000000E+01 0. -1.
         -5    1    3    3    0  502  0.44503829733E+02 -0.75536290463E+01  0.16167023284E+03  0.16790588065E+03  0.41800000000E+01 0. -1.
        -11    1    1    2    0    0  0.17210663941E+02  0.29108714357E+02  0.19592738973E+03  0.19882420941E+03  0.00000000000E+00 0. -1.
         11    1    1    2    0    0 -0.17894467078E+02  0.51527202152E+01  0.73031320465E+01  0.20002455232E+02  0.00000000000E+00 0.  1.
</event>
<event>
 7    1  0.2810263E-009  0.9411432E+02  0.7561462E-02  0.1293183E+00
         -2   -1    0    0    0  501 -0.00000000000E+00  0.00000000000E+00  0.66760618847E+02  0.66760618847E+02  0.00000000000E+00 0. -1.
          2   -1    0    0  501    0  0.00000000000E+00 -0.00000000000E+00 -0.23720020484E+03  0.23720020484E+03  0.00000000000E+00 0.  1.
         25    2    1    2    0    0  0.19478555786E+01 -0.43016241290E+02 -0.15206089570E+03  0.20155183848E+03  0.12508571637E+03 0.  0.
          5    1    3    3  502    0 -0.22303670472E+02 -0.57008854720E+02 -0.16064952838E+03  0.17196862098E+03  0.41800000000E+01 0.  1.
         -5    1    3    3    0  502  0.24251526051E+02  0.13992613430E+02  0.85886326819E+01  0.29583217502E+02  0.41800000000E+01 0.  1.
        -11    1    1    2    0    0 -0.43464201449E+02  0.36039129152E+02  0.28894333887E-01  0.56461991397E+02  0.00000000000E+00 0. -1.
         11    1    1    2    0    0  0.41516345870E+02  0.69771121372E+01 -0.18407584628E+02  0.45946993808E+02  0.00000000000E+00 0.  1.
</event>
<event>
 7    1  0.2810263E-009  0.9378127E+02  0.7561462E-02  0.1293945E+00
         -2   -1    0    0    0  501 -0.00000000000E+00  0.00000000000E+00  0.33189317717E+02  0.33189317717E+02  0.00000000000E+00 0.  1.
          2   -1    0    0  501    0  0.00000000000E+00 -0.00000000000E+00 -0.39828001416E+03  0.39828001416E+03  0.00000000000E+00 0. -1.
         25    2    1    2    0    0  0.17490023411E+02  0.24889786388E+02 -0.16501745450E+03  0.20928369362E+03  0.12507398507E+03 0.  0.
          5    1    3    3  502    0  0.61294350453E+02  0.26897080979E+02 -0.43272581847E+02  0.79815030554E+02  0.41800000000E+01 0. -1.
         -5    1    3    3    0  502 -0.43804327042E+02 -0.20072945911E+01 -0.12174487265E+03  0.12946866307E+03  0.41800000000E+01 0. -1.
        -11    1    1    2    0    0 -0.37368461187E+02 -0.37472683544E+02 -0.18884012199E+03  0.19611526094E+03  0.00000000000E+00 0. -1.
         11    1    1    2    0    0  0.19878437777E+02  0.12582897156E+02 -0.11233119960E+02  0.26070377314E+02  0.00000000000E+00 0.  1.
</event>
<event>
 7    1  0.2810263E-009  0.9328063E+02  0.7561462E-02  0.1295096E+00
         -1   -1    0    0    0  501 -0.00000000000E+00  0.00000000000E+00  0.13754429227E+03  0.13754429227E+03  0.00000000000E+00 0.  1.
          1   -1    0    0  501    0  0.00000000000E+00 -0.00000000000E+00 -0.82765530705E+02  0.82765530705E+02  0.00000000000E+00 0. -1.
         25    2    1    2    0    0 -0.18760677622E+01  0.58057441122E+01  0.11930511192E+02  0.12580675204E+03  0.12509106869E+03 0.  0.
          5    1    3    3  502    0  0.47539324698E+02  0.25364914852E+02 -0.26399335251E+02  0.60147847841E+02  0.41800000000E+01 0. -1.
         -5    1    3    3    0  502 -0.49415392460E+02 -0.19559170740E+02  0.38329846443E+02  0.65658904197E+02  0.41800000000E+01 0. -1.
        -11    1    1    2    0    0  0.40198169598E+02 -0.73000348328E+01  0.38090990459E+02  0.55857917091E+02  0.00000000000E+00 0.  1.
         11    1    1    2    0    0 -0.38322101836E+02  0.14942907206E+01  0.47572599129E+01  0.38645153845E+02  0.00000000000E+00 0. -1.
</event>
<event>
 7    1  0.2810263E-009  0.1818139E+03  0.7561462E-02  0.1166059E+00
         -1   -1    0    0    0  501 -0.00000000000E+00  0.00000000000E+00  0.95871722091E+02  0.95871722091E+02  0.00000000000E+00 0.  1.
          1   -1    0    0  501    0  0.00000000000E+00 -0.00000000000E+00 -0.52008912852E+03  0.52008912852E+03  0.00000000000E+00 0. -1.
         25    2    1    2    0    0  0.16983634462E+03 -0.12411790525E+02 -0.35202008721E+03  0.41056630528E+03  0.12509241677E+03 0.  0.
          5    1    3    3  502    0  0.79053217136E+02 -0.38068433749E+02 -0.67487813517E+02  0.11077316535E+03  0.41800000000E+01 0. -1.
         -5    1    3    3    0  502  0.90783127486E+02  0.25656643224E+02 -0.28453227369E+03  0.29979313993E+03  0.41800000000E+01 0. -1.
        -11    1    1    2    0    0 -0.24620175955E+02  0.25628922204E+02  0.11390129621E+02  0.37319294878E+02  0.00000000000E+00 0.  1.
         11    1    1    2    0    0 -0.14521616867E+03 -0.13217131679E+02 -0.83587448840E+02  0.16807525045E+03  0.00000000000E+00 0. -1.
</event>
<event>
 7    1  0.2810263E-009  0.1446988E+03  0.7561462E-02  0.1207143E+00
         -1   -1    0    0    0  501 -0.00000000000E+00  0.00000000000E+00  0.53639247764E+02  0.53639247764E+02  0.00000000000E+00 0.  1.
          1   -1    0    0  501    0  0.00000000000E+00 -0.00000000000E+00 -0.45238296956E+03  0.45238296956E+03  0.00000000000E+00 0. -1.
         25    2    1    2    0    0 -0.81692654162E+02  0.56259577079E+02 -0.29702300014E+03  0.33720890269E+03  0.12509337186E+03 0.  0.
          5    1    3    3  502    0  0.23166626832E+02  0.49014044469E+02 -0.96184232195E+02  0.11048958357E+03  0.41800000000E+01 0. -1.
         -5    1    3    3    0  502 -0.10485928099E+03  0.72455326102E+01 -0.20083876794E+03  0.22671931912E+03  0.41800000000E+01 0. -1.
        -11    1    1    2    0    0  0.39597730489E+02  0.18753400566E+02 -0.14098294115E+02  0.46026429252E+02  0.00000000000E+00 0.  1.
         11    1    1    2    0    0  0.42094923673E+02 -0.75012977645E+02 -0.87622427545E+02  0.12278688539E+03  0.00000000000E+00 0. -1.
</event>
<event>
 7    1  0.2810263E-009  0.1124613E+03  0.7561462E-02  0.1256079E+00
         -3   -1    0    0    0  501 -0.00000000000E+00  0.00000000000E+00  0.20315525968E+03  0.20315525968E+03  0.00000000000E+00 0.  1.
          3   -1    0    0  501    0  0.00000000000E+00 -0.00000000000E+00 -0.10273053952E+03  0.10273053952E+03  0.00000000000E+00 0. -1.
         25    2    1    2    0    0  0.43740171270E+02  0.26896336758E+01 -0.35154312504E+02  0.13713007187E+03  0.12509354185E+03 0.  0.
          5    1    3    3  502    0  0.59849124717E+02 -0.47586840126E+02 -0.63365800062E+01  0.76837814445E+02  0.41800000000E+01 0. -1.
         -5    1    3    3    0  502 -0.16108953447E+02  0.50276473802E+02 -0.28817732498E+02  0.60292257425E+02  0.41800000000E+01 0. -1.
        -11    1    1    2    0    0  0.99012461432E+01 -0.32530568741E+02  0.75780966808E+02  0.83060384710E+02  0.00000000000E+00 0.  1.
         11    1    1    2    0    0 -0.53641417413E+02  0.29840935065E+02  0.59798065852E+02  0.85695342623E+02  0.00000000000E+00 0. -1.
</event>
<event>
 7    1  0.2810263E-009  0.8480367E+02  0.7561462E-02  0.1315947E+00
         -2   -1    0    0    0  501 -0.00000000000E+00  0.00000000000E+00  0.14285588948E+03  0.14285588948E+03  0.00000000000E+00 0.  1.
          2   -1    0    0  501    0  0.00000000000E+00 -0.00000000000E+00 -0.98292223525E+02  0.98292223525E+02  0.00000000000E+00 0. -1.
         25    2    1    2    0    0 -0.49003898127E+02 -0.90209320244E+01  0.12232864899E+02  0.13520275126E+03  0.12508949483E+03 0.  0.
          5    1    3    3  502    0 -0.77770644567E+02 -0.29671646314E+02  0.37610241567E+02  0.91436767343E+02  0.41800000000E+01 0.  1.
         -5    1    3    3    0  502  0.28766746440E+02  0.20650714289E+02 -0.25377376669E+02  0.43765983914E+02  0.41800000000E+01 0.  1.
        -11    1    1    2    0    0  0.19595418371E+02 -0.77088769481E+00  0.60784612988E+02  0.63869741389E+02  0.00000000000E+00 0.  1.
         11    1    1    2    0    0  0.29408479756E+02  0.97918197192E+01 -0.28453811933E+02  0.42075620358E+02  0.00000000000E+00 0. -1.
</event>
<event>
 7    1  0.2810263E-009  0.1465486E+03  0.7561462E-02  0.1204779E+00
         -1   -1    0    0    0  501 -0.00000000000E+00  0.00000000000E+00  0.83642390723E+03  0.83642390723E+03  0.00000000000E+00 0.  1.
          1   -1    0    0  501    0  0.00000000000E+00 -0.00000000000E+00 -0.38547054390E+02  0.38547054390E+02  0.00000000000E+00 0. -1.
         25    2    1    2    0    0  0.11660707841E+03 -0.27891401286E+02  0.60889023244E+03  0.63306530127E+03  0.12509684055E+03 0.  0.
          5    1    3    3  502    0  0.10656477906E+03  0.31889318760E+02  0.35706575103E+03  0.37401390849E+03  0.41800000000E+01 0.  1.
         -5    1    3    3    0  502  0.10042299359E+02 -0.59780720046E+02  0.25182448141E+03  0.25905139278E+03  0.41800000000E+01 0.  1.
        -11    1    1    2    0    0 -0.14847802614E+02  0.94661809766E+01 -0.80638573645E+01  0.19367282213E+02  0.00000000000E+00 0. -1.
         11    1    1    2    0    0 -0.10175927580E+03  0.18425220309E+02  0.19705047777E+03  0.22253837814E+03  0.00000000000E+00 0.  1.
</event>
<event>
 7    1  0.2810263E-009  0.9899752E+02  0.7561462E-02  0.1282418E+00
          1   -1    0    0  501    0  0.00000000000E+00  0.00000000000E+00  0.15384389555E+02  0.15384389555E+02  0.00000000000E+00 0. -1.
         -1   -1    0    0    0  501 -0.00000000000E+00 -0.00000000000E+00 -0.85603996861E+03  0.85603996861E+03  0.00000000000E+00 0.  1.
         25    2    1    2    0    0 -0.18529544391E+02 -0.28131034254E+01 -0.59189972446E+03  0.60526293990E+03  0.12508671010E+03 0.  0.
          5    1    3    3  502    0  0.50466195733E+02 -0.14850906697E+02 -0.18589322143E+03  0.19323857927E+03  0.41800000000E+01 0.  1.
         -5    1    3    3    0  502 -0.68995740124E+02  0.12037803272E+02 -0.40600650302E+03  0.41202436064E+03  0.41800000000E+01 0.  1.
        -11    1    1    2    0    0 -0.21961220112E+02  0.21259801292E+02 -0.29652326129E+02  0.42585617110E+02  0.00000000000E+00 0. -1.
         11    1    1    2    0    0  0.40490764503E+02 -0.18446697866E+02 -0.21910352848E+03  0.22357580116E+03  0.00000000000E+00 0.  1.
</event>
<event>
 7    1  0.2810263E-009  0.1010487E+03  0.7561462E-02  0.1278106E+00
          1   -1    0    0  501    0  0.00000000000E+00  0.00000000000E+00  0.41524741194E+03  0.41524741194E+03  0.00000000000E+00 0. -1.
         -1   -1    0    0    0  501 -0.00000000000E+00 -0.00000000000E+00 -0.46874197936E+02  0.46874197936E+02  0.00000000000E+00 0.  1.
         25    2    1    2    0    0  0.62722017490E+02  0.60666944645E+02  0.21619993754E+03  0.26458348325E+03  0.12508987557E+03 0.  0.
          5    1    3    3  502    0  0.55853952244E+02  0.32810403925E+02  0.22463663255E+02  0.68689701949E+02  0.41800000000E+01 0.  1.
         -5    1    3    3    0  502  0.68680652460E+01  0.27856540719E+02  0.19373627428E+03  0.19589378130E+03  0.41800000000E+01 0.  1.
        -11    1    1    2    0    0 -0.70291356100E+02 -0.29692772869E+02  0.51812194157E+02  0.92233610828E+02  0.00000000000E+00 0.  1.
         11    1    1    2    0    0  0.75693386098E+01 -0.30974171775E+02  0.10036108231E+03  0.10530451580E+03  0.00000000000E+00 0. -1.
</event>
<event>
 7    1  0.2810263E-009  0.1819770E+03  0.7561462E-02  0.1165903E+00
          4   -1    0    0  501    0  0.00000000000E+00  0.00000000000E+00  0.31995316922E+03  0.31995316922E+03  0.00000000000E+00 0. -1.
         -4   -1    0    0    0  501 -0.00000000000E+00 -0.00000000000E+00 -0.15811118575E+03  0.15811118575E+03  0.00000000000E+00 0.  1.
         25    2    1    2    0    0  0.70450578981E+02 -0.15375677280E+03 -0.23985524192E+02  0.21172321718E+03  0.12508791333E+03 0.  0.
          5    1    3    3  502    0  0.72379034536E+02 -0.11328739774E+03 -0.68875204388E+02  0.15110931575E+03  0.41800000000E+01 0. -1.
         -5    1    3    3    0  502 -0.19284555548E+01 -0.40469375059E+02  0.44889680196E+02  0.60613901431E+02  0.41800000000E+01 0. -1.
        -11    1    1    2    0    0  0.10813230797E+02  0.74256214989E+02  0.93499363740E+02  0.11988762423E+03  0.00000000000E+00 0.  1.
         11    1    1    2    0    0 -0.81263809777E+02  0.79500557807E+02  0.92328143927E+02  0.14645351355E+03  0.00000000000E+00 0. -1.
</event>
<event>
 7    1  0.2810263E-009  0.1415781E+03  0.7561462E-02  0.1211221E+00
          1   -1    0    0  501    0  0.00000000000E+00  0.00000000000E+00  0.13086370803E+04  0.13086370803E+04  0.00000000000E+00 0. -1.
         -1   -1    0    0    0  501 -0.00000000000E+00 -0.00000000000E+00 -0.18409859052E+02  0.18409859052E+02  0.00000000000E+00 0.  1.
         25    2    1    2    0    0  0.90647413749E+02 -0.53635651810E+02  0.83505138675E+03  0.85091224897E+03  0.12508836939E+03 0.  0.
          5    1    3    3  502    0  0.17269855658E+02 -0.66779659269E+02  0.60767028243E+03  0.61158680116E+03  0.41800000000E+01 0.  1.
         -5    1    3    3    0  502  0.73377558091E+02  0.13144007459E+02  0.22738110432E+03  0.23932544780E+03  0.41800000000E+01 0.  1.
        -11    1    1    2    0    0 -0.21314514917E+02  0.65650793431E+02  0.20928636146E+03  0.22037494485E+03  0.00000000000E+00 0.  1.
         11    1    1    2    0    0 -0.69332898832E+02 -0.12015141621E+02  0.24588947307E+03  0.25575974557E+03  0.00000000000E+00 0. -1.
</event>
<event>
 7    1  0.2810263E-009  0.6696699E+02  0.7561462E-02  0.1370722E+00
         -1   -1    0    0    0  501 -0.00000000000E+00  0.00000000000E+00  0.39534490790E+03  0.39534490790E+03  0.00000000000E+00 0.  1.
          1   -1    0    0  501    0  0.00000000000E+00 -0.00000000000E+00 -0.46683171064E+02  0.46683171064E+02  0.00000000000E+00 0. -1.
         25    2    1    2    0    0  0.35784745844E+02 -0.14375901622E+00  0.31124480830E+03  0.33734483973E+03  0.12509053321E+03 0.  0.
          5    1    3    3  502    0  0.43286081628E+02  0.54655812734E+01  0.24102899342E+02  0.50019792064E+02  0.41800000000E+01 0.  1.
         -5    1    3    3    0  502 -0.75013357848E+01 -0.56093402897E+01  0.28714190896E+03  0.28732504767E+03  0.41800000000E+01 0.  1.
        -11    1    1    2    0    0 -0.55107465212E+02 -0.12819709234E+02  0.52311224765E+02  0.77056095823E+02  0.00000000000E+00 0.  1.
         11    1    1    2    0    0  0.19322719369E+02  0.12963468251E+02 -0.14894296229E+02  0.27627143411E+02  0.00000000000E+00 0. -1.
</event>
<event>
 7    1  0.2810263E-009  0.1117096E+03  0.7561462E-02  0.1257436E+00
          1   -1    0    0  501    0  0.00000000000E+00  0.00000000000E+00  0.15914497595E+04  0.15914497595E+04  0.00000000000E+00 0. -1.
         -1   -1    0    0    0  501 -0.00000000000E+00 -0.00000000000E+00 -0.11548089051E+02  0.11548089051E+02  0.00000000000E+00 0.  1.
         25    2    1    2    0    0 -0.55327129630E+01  0.77529791703E+02  0.10115403789E+04  0.10222049932E+04  0.12509048897E+03 0.  0.
          5    1    3    3  502    0  0.76085657777E+00 -0.12858541909E+02  0.10690407368E+02  0.17253353658E+02  0.41800000000E+01 0.  1.
         -5    1    3    3    0  502 -0.62935695408E+01  0.90388333612E+02  0.10008499716E+04  0.10049516395E+04  0.41800000000E+01 0.  1.
        -11    1    1    2    0    0 -0.17012307552E+02 -0.91222974524E+02  0.42317940561E+03  0.43323418496E+03  0.00000000000E+00 0.  1.
         11    1    1    2    0    0  0.22545020515E+02  0.13693182820E+02  0.14518188590E+03  0.14755867037E+03  0.00000000000E+00 0. -1.
</event>
<event>
 7    1  0.2810263E-009  0.1930838E+03  0.7561462E-02  0.1155709E+00
          4   -1    0    0  501    0  0.00000000000E+00  0.00000000000E+00  0.69181119962E+03  0.69181119962E+03  0.00000000000E+00 0.  1.
         -4   -1    0    0    0  501 -0.00000000000E+00 -0.00000000000E+00 -0.61521745513E+02  0.61521745513E+02  0.00000000000E+00 0. -1.
         25    2    1    2    0    0 -0.12375558496E+03 -0.12395755120E+03  0.32434929132E+03  0.38926995484E+03  0.12509082962E+03 0.  0.
          5    1    3    3  502    0 -0.12966977053E+03 -0.97995175204E+02  0.32378085700E+03  0.36231039112E+03  0.41800000000E+01 0. -1.
         -5    1    3    3    0  502  0.59141855750E+01 -0.25962375997E+02  0.56843431649E+00  0.26959563720E+02  0.41800000000E+01 0. -1.
        -11    1    1    2    0    0  0.12934001611E+03  0.79499648660E+02  0.22264104518E+03  0.26947739961E+03  0.00000000000E+00 0. -1.
         11    1    1    2    0    0 -0.55844311484E+01  0.44457902541E+02  0.83299117605E+02  0.94585590675E+02  0.00000000000E+00 0.  1.
</event>
<event>
 7    1  0.2810263E-009  0.2099783E+03  0.7561462E-02  0.1141583E+00
         -2   -1    0    0    0  501 -0.00000000000E+00  0.00000000000E+00  0.37198699581E+02  0.37198699581E+02  0.00000000000E+00 0.  1.
          2   -1    0    0  501    0  0.00000000000E+00 -0.00000000000E+00 -0.15875832849E+04  0.15875832849E+04  0.00000000000E+00 0. -1.
         25    2    1    2    0    0 -0.23867122179E+02 -0.19922471395E+03 -0.10773124264E+04  0.11029542469E+04  0.12508349426E+03 0.  0.
          5    1    3    3  502    0 -0.53715466336E+02 -0.14903993932E+03 -0.94601695381E+03  0.95919956429E+03  0.41800000000E+01 0.  1.
         -5    1    3    3    0  502  0.29848344157E+02 -0.50184774630E+02 -0.13129547260E+03  0.14375468263E+03  0.41800000000E+01 0.  1.
        -11    1    1    2    0    0  0.26780214634E+02  0.95828686441E+02 -0.33400354910E+03  0.34850923640E+03  0.00000000000E+00 0. -1.
         11    1    1    2    0    0 -0.29130924553E+01  0.10339602751E+03 -0.13906860981E+03  0.17331850117E+03  0.00000000000E+00 0.  1.
</event>
<event>
 7    1  0.2810263E-009  0.1654853E+03  0.7561462E-02  0.1182639E+00
          1   -1    0    0  501    0  0.00000000000E+00  0.00000000000E+00  0.46753276818E+02  0.46753276818E+02  0.00000000000E+00 0. -1.
         -1   -1    0    0    0  501 -0.00000000000E+00 -0.00000000000E+00 -0.60966736985E+03  0.60966736985E+03  0.00000000000E+00 0.  1.
         25    2    1    2    0    0  0.95367030605E+02 -0.86648146745E+02 -0.31521968988E+03  0.36278633104E+03  0.12509075602E+03 0.  0.
          5    1    3    3  502    0  0.12265823834E+03 -0.66373763675E+02 -0.28407146320E+03  0.31648789636E+03  0.41800000000E+01 0. -1.
         -5    1    3    3    0  502 -0.27291207738E+02 -0.20274383070E+02 -0.31148226682E+02  0.46298434683E+02  0.41800000000E+01 0. -1.
        -11    1    1    2    0    0  0.17858028117E+02  0.10107179289E+02 -0.40895847514E+02  0.45755159111E+02  0.00000000000E+00 0.  1.
         11    1    1    2    0    0 -0.11322505872E+03  0.76540967456E+02 -0.20679855564E+03  0.24787915652E+03  0.00000000000E+00 0. -1.
</event>
<event>
 7    1  0.2810263E-009  0.7115528E+02  0.7561462E-02  0.1356208E+00
          1   -1    0    0  501    0  0.00000000000E+00  0.00000000000E+00  0.52940765877E+03  0.52940765877E+03  0.00000000000E+00 0. -1.
         -1   -1    0    0    0  501 -0.00000000000E+00 -0.00000000000E+00 -0.25788028679E+02  0.25788028679E+02  0.00000000000E+00 0.  1.
         25    2    1    2    0    0  0.23662371929E+02 -0.35975526037E+02  0.31049388373E+03  0.33750272998E+03  0.12508994602E+03 0.  0.
          5    1    3    3  502    0  0.74138532693E+01 -0.39863790673E+01 -0.10724418210E+02  0.14259803095E+02  0.41800000000E+01 0. -1.
         -5    1    3    3    0  502  0.16248518660E+02 -0.31989146969E+02  0.32121830194E+03  0.32324292689E+03  0.41800000000E+01 0. -1.
        -11    1    1    2    0    0  0.28709455429E+02 -0.64092278460E+01  0.88409268399E+02  0.93174619782E+02  0.00000000000E+00 0. -1.
         11    1    1    2    0    0 -0.52371827359E+02  0.42384753883E+02  0.10471647796E+03  0.12451833768E+03  0.00000000000E+00 0.  1.
</event>
<event>
 7    1  0.2810263E-009  0.1548534E+03  0.7561462E-02  0.1194633E+00
         -1   -1    0    0    0  501 -0.00000000000E+00  0.00000000000E+00  0.44810808064E+02  0.44810808064E+02  0.00000000000E+00 0.  1.
          1   -1    0    0  501    0  0.00000000000E+00 -0.00000000000E+00 -0.62428626113E+03  0.62428626113E+03  0.00000000000E+00 0. -1.
         25    2    1    2    0    0  0.11060163136E+03 -0.59561567680E+01 -0.19718118685E+03  0.25844960968E+03  0.12509030191E+03 0.  0.
          5    1    3    3  502    0 -0.87950448835E+01 -0.38290946549E+02 -0.26332450328E+02  0.47480730222E+02  0.41800000000E+01 0. -1.
         -5    1    3    3    0  502  0.11939667624E+03  0.32334789781E+02 -0.17084873653E+03  0.21096887946E+03  0.41800000000E+01 0. -1.
        -11    1    1    2    0    0 -0.71272945230E+01 -0.34573213501E+02 -0.58628747116E+02  0.68435629663E+02  0.00000000000E+00 0.  1.
         11    1    1    2    0    0 -0.10347433683E+03  0.40529370269E+02 -0.32366551909E+03  0.34221182985E+03  0.00000000000E+00 0. -1.
</event>
<event>
 7    1  0.2810263E-009  0.1308320E+03  0.7561462E-02  0.1226226E+00
         -1   -1    0    0    0  501 -0.00000000000E+00  0.00000000000E+00  0.14124284655E+03  0.14124284655E+03  0.00000000000E+00 0.  1.
          1   -1    0    0  501    0  0.00000000000E+00 -0.00000000000E+00 -0.14725310011E+03  0.14725310011E+03  0.00000000000E+00 0. -1.
         25    2    1    2    0    0  0.43882323389E+02 -0.82894036208E+02 -0.18188794846E+02  0.15740080044E+03  0.12508836947E+03 0.  0.
          5    1    3    3  502    0  0.82950237892E+02 -0.78911037356E+02 -0.25166847464E+02  0.11729678766E+03  0.41800000000E+01 0.  1.
         -5    1    3    3    0  502 -0.39067914503E+02 -0.39829988516E+01  0.69780526177E+01  0.40104012790E+02  0.41800000000E+01 0.  1.
        -11    1    1    2    0    0 -0.64303619342E+01  0.66354008140E+02 -0.29294979482E+02  0.72817578741E+02  0.00000000000E+00 0. -1.
         11    1    1    2    0    0 -0.37451961455E+02  0.16540028067E+02  0.41473520774E+02  0.58277567474E+02  0.00000000000E+00 0.  1.
</event>
<event>
 7    1  0.2810263E-009  0.2079782E+03  0.7561462E-02  0.1143177E+00
         -2   -1    0    0    0  501 -0.00000000000E+00  0.00000000000E+00  0.28239739068E+02  0.28239739068E+02  0.00000000000E+00 0.  1.
          2   -1    0    0  501    0  0.00000000000E+00 -0.00000000000E+00 -0.15737924446E+04  0.15737924446E+04  0.00000000000E+00 0. -1.
         25    2    1    2    0    0 -0.17954526315E+03 -0.18846120092E+02 -0.78270607549E+03  0.81293835462E+03  0.12509312546E+03 0.  0.
          5    1    3    3  502    0 -0.13577854048E+03  0.42065930361E+02 -0.45367780359E+03  0.47544334723E+03  0.41800000000E+01 0. -1.
         -5    1    3    3    0  502 -0.43766722665E+02 -0.60912050453E+02 -0.32902827190E+03  0.33749500738E+03  0.41800000000E+01 0. -1.
        -11    1    1    2    0    0  0.86862596699E+02  0.50757224519E+02 -0.45619273610E+03  0.46715438457E+03  0.00000000000E+00 0. -1.
         11    1    1    2    0    0  0.92682666450E+02 -0.31911104428E+02 -0.30665389392E+03  0.32193944446E+03  0.00000000000E+00 0.  1.
</event>
<event>
 7    1  0.2810263E-009  0.8720206E+02  0.7561462E-02  0.1309772E+00
         -1   -1    0    0    0  501 -0.00000000000E+00  0.00000000000E+00  0.13692026435E+03  0.13692026435E+03  0.00000000000E+00 0.  1.
          1   -1    0    0  501    0  0.00000000000E+00 -0.00000000000E+00 -0.92654882645E+02  0.92654882645E+02  0.00000000000E+00 0. -1.
         25    2    1    2    0    0 -0.22765268807E+02 -0.41857329480E+01  0.47769391772E+02  0.13589064461E+03  0.12509426317E+03 0.  0.
          5    1    3    3  502    0  0.26424964609E+02  0.47743923052E+02  0.13011033815E+02  0.56254069577E+02  0.41800000000E+01 0. -1.
         -5    1    3    3    0  502 -0.49190233415E+02 -0.51929656000E+02  0.34758357958E+02  0.79636575038E+02  0.41800000000E+01 0. -1.
        -11    1    1    2    0    0  0.34208920017E+02  0.93587991060E+01 -0.40959061716E+02  0.54180089204E+02  0.00000000000E+00 0. -1.
         11    1    1    2    0    0 -0.11443651211E+02 -0.51730661580E+01  0.37455051649E+02  0.39504413178E+02  0.00000000000E+00 0.  1.
</event>
<event>
 7    1  0.2810263E-009  0.1321803E+03  0.7561462E-02  0.1224256E+00
         -1   -1    0    0    0  501 -0.00000000000E+00  0.00000000000E+00  0.11065669248E+03  0.11065669248E+03  0.00000000000E+00 0.  1.
          1   -1    0    0  501    0  0.00000000000E+00 -0.00000000000E+00 -0.25721696610E+03  0.25721696610E+03  0.00000000000E+00 0. -1.
         25    2    1    2    0    0 -0.11079837767E+03 -0.14789338980E+02 -0.14685594086E+03  0.22295276199E+03  0.12508501778E+03 0.  0.
          5    1    3    3  502    0 -0.11568701875E+03  0.11656230949E+02 -0.57963011265E+02  0.12998668048E+03  0.41800000000E+01 0.  1.
         -5    1    3    3    0  502  0.48886410775E+01 -0.26445569928E+02 -0.88892929593E+02  0.92966081514E+02  0.41800000000E+01 0.  1.
        -11    1    1    2    0    0  0.10570248026E+03  0.25675765580E+02  0.30033022324E+02  0.11284609741E+03  0.00000000000E+00 0.  1.
         11    1    1    2    0    0  0.50958974073E+01 -0.10886426600E+02 -0.29737355088E+02  0.32074799176E+02  0.00000000000E+00 0. -1.
</event>
<event>
 7    1  0.2810263E-009  0.1492063E+03  0.7561462E-02  0.1201452E+00
         -2   -1    0    0    0  501 -0.00000000000E+00  0.00000000000E+00  0.10009382316E+02  0.10009382316E+02  0.00000000000E+00 0.  1.
          2   -1    0    0  501    0  0.00000000000E+00 -0.00000000000E+00 -0.27586825013E+04  0.27586825013E+04  0.00000000000E+00 0. -1.
         25    2    1    2    0    0  0.14784297252E+02  0.10228749454E+03 -0.20748179755E+04  0.20811531626E+04  0.12509015775E+03 0.  0.
          5    1    3    3  502    0  0.46062865002E+02 -0.85282035938E+01 -0.59173500181E+03  0.59360113086E+03  0.41800000000E+01 0. -1.
         -5    1    3    3    0  502 -0.31278567750E+02  0.11081569813E+03 -0.14830829737E+04  0.14875520317E+04  0.41800000000E+01 0. -1.
        -11    1    1    2    0    0  0.36238802385E+02 -0.26912762834E+02 -0.20152112662E+03  0.20651467763E+03  0.00000000000E+00 0.  1.
         11    1    1    2    0    0 -0.51023099637E+02 -0.75374731704E+02 -0.47233401687E+03  0.48102404344E+03  0.00000000000E+00 0. -1.
</event>
<event>
 7    1  0.2810263E-009  0.8299831E+02  0.7561462E-02  0.1320752E+00
          2   -1    0    0  501    0  0.00000000000E+00  0.00000000000E+00  0.68167326842E+03  0.68167326842E+03  0.00000000000E+00 0. -1.
         -2   -1    0    0    0  501 -0.00000000000E+00 -0.00000000000E+00 -0.18845825195E+02  0.18845825195E+02  0.00000000000E+00 0.  1.
         25    2    1    2    0    0  0.99801694819E+01 -0.31556094817E+02  0.38934057916E+03  0.41028098998E+03  0.12509601614E+03 0.  0.
          5    1    3    3  502    0 -0.10830720192E+02  0.15192628987E+02  0.33491438277E+03  0.33545973925E+03  0.41800000000E+01 0.  1.
         -5    1    3    3    0  502  0.20810889674E+02 -0.46748723804E+02  0.54426196390E+02  0.74821250723E+02  0.41800000000E+01 0.  1.
        -11    1    1    2    0    0 -0.37653263498E+02  0.49767264336E+02  0.20257425451E+03  0.21196904832E+03  0.00000000000E+00 0.  1.
         11    1    1    2    0    0  0.27673094016E+02 -0.18211169519E+02  0.70912609552E+02  0.78269055323E+02  0.00000000000E+00 0. -1.
</event>
<event>
 7    1  0.2810263E-009  0.7607132E+02  0.7561462E-02  0.1340585E+00
          1   -1    0    0  501    0  0.00000000000E+00  0.00000000000E+00  0.12446858526E+03  0.12446858526E+03  0.00000000000E+00 0. -1.
         -1   -1    0    0    0  501 -0.00000000000E+00 -0.00000000000E+00 -0.14493886616E+03  0.14493886616E+03  0.00000000000E+00 0.  1.
         25    2    1    2    0    0  0.62637995167E+02  0.11533264492E+02 -0.57282172370E+02  0.15161178310E+03  0.12509336863E+03 0.  0.
          5    1    3    3  502    0  0.44930627524E+02 -0.22044475698E+02 -0.88851551094E+02  0.10206268040E+03  0.41800000000E+01 0.  1.
         -5    1    3    3    0  502  0.17707367644E+02  0.33577740190E+02  0.31569378725E+02  0.49549102698E+02  0.41800000000E+01 0.  1.
        -11    1    1    2    0    0 -0.28891587001E+02 -0.41743674340E+01 -0.30450971130E+02  0.42183062782E+02  0.00000000000E+00 0.  1.
         11    1    1    2    0    0 -0.33746408166E+02 -0.73588970577E+01  0.67262862609E+02  0.75612605539E+02  0.00000000000E+00 0. -1.
</event>
<event>
 7    1  0.2810263E-009  0.1952575E+03  0.7561462E-02  0.1153803E+00
          2   -1    0    0  501    0  0.00000000000E+00  0.00000000000E+00  0.73489055625E+03  0.73489055625E+03  0.00000000000E+00 0.  1.
         -2   -1    0    0    0  501 -0.00000000000E+00 -0.00000000000E+00 -0.70073536038E+02  0.70073536038E+02  0.00000000000E+00 0. -1.
         25    2    1    2    0    0  0.58397599551E+02  0.18280303310E+03  0.43912859954E+03  0.49528677201E+03  0.12509129084E+03 0.  0.
          5    1    3    3  502    0  0.45036470568E+02  0.62444718776E+02  0.61296162730E+02  0.98500347967E+02  0.41800000000E+01 0.  1.
         -5    1    3    3    0  502  0.13361128983E+02  0.12035831433E+03  0.37783243681E+03  0.39678642404E+03  0.41800000000E+01 0.  1.
        -11    1    1    2    0    0 -0.31193092948E+02 -0.79090549077E+02  0.37147033739E+02  0.92780526602E+02  0.00000000000E+00 0. -1.
         11    1    1    2    0    0 -0.27204506603E+02 -0.10371248402E+03  0.18854138693E+03  0.21689679368E+03  0.00000000000E+00 0.  1.
</event>
<event>
 7    1  0.2810263E-009  0.1602170E+03  0.7561462E-02  0.1188452E+00
          1   -1    0    0  501    0  0.00000000000E+00  0.00000000000E+00  0.82670589309E+03  0.82670589309E+03  0.00000000000E+00 0. -1.
         -1   -1    0    0    0  501 -0.00000000000E+00 -0.00000000000E+00 -0.34573825742E+02  0.34573825742E+02  0.00000000000E+00 0.  1.
         25    2    1    2    0    0  0.74359668100E+02 -0.96830887036E+02  0.31555022375E+03  0.36072526835E+03  0.12508075230E+03 0.  0.
          5    1    3    3  502    0 -0.49329630600E+01  0.26467780602E+02  0.63796027555E+02  0.69370621060E+02  0.41800000000E+01 0. -1.
         -5    1    3    3    0  502  0.79292631160E+02 -0.12329866764E+03  0.25175419619E+03  0.29135464729E+03  0.41800000000E+01 0. -1.
        -11    1    1    2    0    0 -0.66489206158E+02  0.11153886347E+03  0.45563225622E+03  0.47377472021E+03  0.00000000000E+00 0.  1.
         11    1    1    2    0    0 -0.78704619420E+01 -0.14707976436E+02  0.20949587376E+02  0.26779730268E+02  0.00000000000E+00 0. -1.
</event>
<event>
 7    1  0.2810263E-009  0.8605380E+02  0.7561462E-02  0.1312700E+00
         -2   -1    0    0    0  501 -0.00000000000E+00  0.00000000000E+00  0.96874387971E+02  0.96874387971E+02  0.00000000000E+00 0. -1.
          2   -1    0    0  501    0  0.00000000000E+00 -0.00000000000E+00 -0.13374649439E+03  0.13374649439E+03  0.00000000000E+00 0.  1.
         25    2    1    2    0    0 -0.97607077987E-01 -0.31222338730E+02 -0.11233213252E+02  0.12941624825E+03  0.12509011260E+03 0.  0.
          5    1    3    3  502    0  0.54715659045E+02  0.25464154694E+01  0.19054114366E+02  0.58144812759E+02  0.41800000000E+01 0.  1.
         -5    1    3    3    0  502 -0.54813266123E+02 -0.33768754199E+02 -0.30287327618E+02  0.71271435495E+02  0.41800000000E+01 0.  1.
        -11    1    1    2    0    0 -0.18719917563E+02  0.27824728170E+02 -0.56029374430E+02  0.65298863775E+02  0.00000000000E+00 0.  1.
         11    1    1    2    0    0  0.18817524641E+02  0.33976105602E+01  0.30390481268E+02  0.35905770328E+02  0.00000000000E+00 0. -1.
</event>
<event>
 7    1  0.2810263E-009  0.1053940E+03  0.7561462E-02  0.1269345E+00
          1   -1    0    0  501    0  0.00000000000E+00  0.00000000000E+00  0.30179680225E+03  0.30179680225E+03  0.00000000000E+00 0. -1.
         -1   -1    0    0    0  501 -0.00000000000E+00 -0.00000000000E+00 -0.44083163256E+02  0.44083163256E+02  0.00000000000E+00 0.  1.
         25    2    1    2    0    0  0.16772849330E+01 -0.39895181016E+02  0.14675790832E+03  0.19692736307E+03  0.12509222165E+03 0.  0.
          5    1    3    3  502    0 -0.15269623952E+02 -0.79122778507E+02  0.12502958712E+03  0.14880673892E+03  0.41800000000E+01 0. -1.
         -5    1    3    3    0  502  0.16946908885E+02  0.39227597491E+02  0.21728321199E+02  0.48120624142E+02  0.41800000000E+01 0. -1.
        -11    1    1    2    0    0 -0.39546747515E+02  0.22340846892E+02  0.21530285296E+02  0.50265414192E+02  0.00000000000E+00 0.  1.
         11    1    1    2    0    0  0.37869462582E+02  0.17554334124E+02  0.89425445383E+02  0.98687188250E+02  0.00000000000E+00 0. -1.
</event>
<event>
 7    1  0.2810263E-009  0.1252623E+03  0.7561462E-02  0.1234660E+00
         -2   -1    0    0    0  501 -0.00000000000E+00  0.00000000000E+00  0.24877730114E+02  0.24877730114E+02  0.00000000000E+00 0.  1.
          2   -1    0    0  501    0  0.00000000000E+00 -0.00000000000E+00 -0.17288133013E+04  0.17288133013E+04  0.00000000000E+00 0. -1.
         25    2    1    2    0    0 -0.78834402439E+02  0.99941965329E+01 -0.15635446644E+04  0.15705519297E+04  0.12508676751E+03 0.  0.
          5    1    3    3  502    0 -0.67922578832E+02 -0.48106198250E+02 -0.69312214965E+03  0.69811422401E+03  0.41800000000E+01 0.  1.
         -5    1    3    3    0  502 -0.10911823607E+02  0.58100394783E+02 -0.87042251476E+03  0.87243770573E+03  0.41800000000E+01 0.  1.
        -11    1    1    2    0    0  0.31889799249E+02 -0.40791935999E+02 -0.31448914819E+02  0.60580323389E+02  0.00000000000E+00 0.  1.
         11    1    1    2    0    0  0.46944603190E+02  0.30797739466E+02 -0.10894199195E+03  0.12255877829E+03  0.00000000000E+00 0. -1.
</event>
<event>
 7    1  0.2810263E-009  0.1528483E+03  0.7561462E-02  0.1197016E+00
         -1   -1    0    0    0  501 -0.00000000000E+00  0.00000000000E+00  0.84067170355E+02  0.84067170355E+02  0.00000000000E+00 0.  1.
          1   -1    0    0  501    0  0.00000000000E+00 -0.00000000000E+00 -0.30650578075E+03  0.30650578075E+03  0.00000000000E+00 0. -1.
         25    2    1    2    0    0  0.41411179156E+02  0.10236005352E+03 -0.91729666326E+02  0.19040602011E+03  0.12509058516E+03 0.  0.
          5    1    3    3  502    0 -0.32672673853E+02  0.66624382427E+02 -0.11094582251E+02  0.75145685877E+02  0.41800000000E+01 0. -1.
         -5    1    3    3    0  502  0.74083853010E+02  0.35735671089E+02 -0.80635084075E+02  0.11526033424E+03  0.41800000000E+01 0. -1.
        -11    1    1    2    0    0 -0.45259729162E+02  0.13058574416E+01 -0.23610961829E+02  0.51064918153E+02  0.00000000000E+00 0. -1.
         11    1    1    2    0    0  0.38485500059E+01 -0.10366591096E+03 -0.10709798224E+03  0.14910201283E+03  0.00000000000E+00 0.  1.
</event>
<event>
 7    1  0.2810263E-009  0.9801221E+02  0.7561462E-02  0.1284532E+00
          1   -1    0    0  501    0  0.00000000000E+00  0.00000000000E+00  0.55037663862E+03  0.55037663862E+03  0.00000000000E+00 0. -1.
         -1   -1    0    0    0  501 -0.00000000000E+00 -0.00000000000E+00 -0.26319144833E+02  0.26319144833E+02  0.00000000000E+00 0.  1.
         25    2    1    2    0    0  0.30896289023E+02  0.31065640425E+02  0.31405270577E+03  0.34087556345E+03  0.12508954020E+03 0.  0.
          5    1    3    3  502    0  0.50282207491E+02  0.43798642439E+02  0.74123657398E+02  0.99791835616E+02  0.41800000000E+01 0. -1.
         -5    1    3    3    0  502 -0.19385918468E+02 -0.12733002015E+02  0.23992904837E+03  0.24108372784E+03  0.41800000000E+01 0. -1.
        -11    1    1    2    0    0  0.96307167015E+01 -0.56816661790E+02  0.93825623527E+02  0.11010963351E+03  0.00000000000E+00 0. -1.
         11    1    1    2    0    0 -0.40527005725E+02  0.25751021365E+02  0.11617916450E+03  0.12571058650E+03  0.00000000000E+00 0.  1.
</event>
<event>
 7    1  0.2810263E-009  0.8132216E+02  0.7561462E-02  0.1325341E+00
         -2   -1    0    0    0  501 -0.00000000000E+00  0.00000000000E+00  0.27953030097E+03  0.27953030097E+03  0.00000000000E+00 0.  1.
          2   -1    0    0  501    0  0.00000000000E+00 -0.00000000000E+00 -0.45400951697E+02  0.45400951697E+02  0.00000000000E+00 0. -1.
         25    2    1    2    0    0 -0.20578175580E+02  0.16292990362E+02  0.12017757321E+03  0.17545229209E+03  0.12510769302E+03 0.  0.
          5    1    3    3  502    0 -0.10310962552E+02 -0.25938100400E+02  0.12801786996E+03  0.13109213718E+03  0.41800000000E+01 0. -1.
         -5    1    3    3    0  502 -0.10267213028E+02  0.42231090763E+02 -0.78402967530E+01  0.44360154909E+02  0.41800000000E+01 0. -1.
        -11    1    1    2    0    0 -0.34328559711E+02 -0.48047847488E+01  0.19901291267E+02  0.39969955747E+02  0.00000000000E+00 0. -1.
         11    1    1    2    0    0  0.54906735290E+02 -0.11488205613E+02  0.94050484791E+02  0.10950900483E+03  0.00000000000E+00 0.  1.
</event>
<event>
 7    1  0.2810263E-009  0.1062173E+03  0.7561462E-02  0.1267740E+00
         -1   -1    0    0    0  501 -0.00000000000E+00  0.00000000000E+00  0.89115852699E+02  0.89115852699E+02  0.00000000000E+00 0.  1.
          1   -1    0    0  501    0  0.00000000000E+00 -0.00000000000E+00 -0.25563482746E+03  0.25563482746E+03  0.00000000000E+00 0. -1.
         25    2    1    2    0    0  0.23451823039E+02  0.96336732777E+02 -0.78666274063E+02  0.17795432359E+03  0.12509438247E+03 0.  0.
          5    1    3    3  502    0  0.31046197872E+02  0.25265259638E+02  0.28327047788E+02  0.49214772003E+02  0.41800000000E+01 0. -1.
         -5    1    3    3    0  502 -0.75943748337E+01  0.71071473140E+02 -0.10699332185E+03  0.12873955159E+03  0.41800000000E+01 0. -1.
        -11    1    1    2    0    0 -0.10044180331E+01 -0.39060518140E+02  0.19039957192E+02  0.43465536956E+02  0.00000000000E+00 0.  1.
         11    1    1    2    0    0 -0.22447405006E+02 -0.57276214637E+02 -0.10689265789E+03  0.12333081961E+03  0.00000000000E+00 0. -1.
</event>
<event>
 7    1  0.2810263E-009  0.1012818E+03  0.7561462E-02  0.1277623E+00
          2   -1    0    0  501    0  0.00000000000E+00  0.00000000000E+00  0.44857258632E+02  0.44857258632E+02  0.00000000000E+00 0. -1.
         -2   -1    0    0    0  501 -0.00000000000E+00 -0.00000000000E+00 -0.32509246362E+03  0.32509246362E+03  0.00000000000E+00 0.  1.
         25    2    1    2    0    0 -0.55300474918E+02 -0.17579446647E+02 -0.16514664769E+03  0.21514590074E+03  0.12508862415E+03 0.  0.
          5    1    3    3  502    0 -0.12467434265E+01  0.29333986471E+02  0.53983841592E+01  0.30143856471E+02  0.41800000000E+01 0. -1.
         -5    1    3    3    0  502 -0.54053731492E+02 -0.46913433117E+02 -0.17054503184E+03  0.18500204426E+03  0.41800000000E+01 0. -1.
        -11    1    1    2    0    0  0.57708366681E+02  0.45314213327E+02 -0.67653718269E+02  0.99803101705E+02  0.00000000000E+00 0.  1.
         11    1    1    2    0    0 -0.24078917631E+01 -0.27734766680E+02 -0.47434839035E+02  0.55000719812E+02  0.00000000000E+00 0. -1.
</event>
<event>
 7    1  0.2810263E-009  0.1702140E+03  0.7561462E-02  0.1177625E+00
         -3   -1    0    0    0  501 -0.00000000000E+00  0.00000000000E+00  0.10114492270E+03  0.10114492270E+03  0.00000000000E+00 0.  1.
          3   -1    0    0  501    0  0.00000000000E+00 -0.00000000000E+00 -0.33420238174E+03  0.33420238174E+03  0.00000000000E+00 0. -1.
         25    2    1    2    0    0  0.14250234110E+03 -0.29449425637E+01 -0.16869701570E+03  0.25381521868E+03  0.12509153538E+03 0.  0.
          5    1    3    3  502    0  0.70912216004E+02 -0.50472729961E+02 -0.13652452771E+03  0.16196437236E+03  0.41800000000E+01 0. -1.
         -5    1    3    3    0  502  0.71590125094E+02  0.47527787398E+02 -0.32172487985E+02  0.91850846316E+02  0.41800000000E+01 0. -1.
        -11    1    1    2    0    0 -0.61838384517E+02 -0.42154351998E+02 -0.13506399472E+02  0.76048655601E+02  0.00000000000E+00 0.  1.
         11    1    1    2    0    0 -0.80663956581E+02  0.45099294562E+02 -0.50854043869E+02  0.10548343016E+03  0.00000000000E+00 0. -1.
</event>
<event>
 7    1  0.2810263E-009  0.1322376E+03  0.7561462E-02  0.1224173E+00
         -1   -1    0    0    0  501 -0.00000000000E+00  0.00000000000E+00  0.11468822573E+02  0.11468822573E+02  0.00000000000E+00 0.  1.
          1   -1    0    0  501    0  0.00000000000E+00 -0.00000000000E+00 -0.17512387000E+04  0.17512387000E+04  0.00000000000E+00 0. -1.
         25    2    1    2    0    0 -0.72005600352E+02  0.30857729196E+02 -0.12345990260E+04  0.12433902745E+04  0.12509042284E+03 0.  0.
          5    1    3    3  502    0  0.32543300730E+02 -0.56973535277E+01 -0.18675540765E+03  0.18970129400E+03  0.41800000000E+01 0.  1.
         -5    1    3    3    0  502 -0.10454890108E+03  0.36555082724E+02 -0.10478436183E+04  0.10536889805E+04  0.41800000000E+01 0.  1.
        -11    1    1    2    0    0  0.52591364534E+02  0.27137958282E+02 -0.24119795528E+03  0.24835211704E+03  0.00000000000E+00 0. -1.
         11    1    1    2    0    0  0.19414235818E+02 -0.57995687479E+02 -0.26397289621E+03  0.27096513106E+03  0.00000000000E+00 0.  1.
</event>
<event>
 7    1  0.2810263E-009  0.9580142E+02  0.7561462E-02  0.1289381E+00
         -1   -1    0    0    0  501 -0.00000000000E+00  0.00000000000E+00  0.84613560304E+02  0.84613560304E+02  0.00000000000E+00 0.  1.
          1   -1    0    0  501    0  0.00000000000E+00 -0.00000000000E+00 -0.54336949660E+03  0.54336949660E+03  0.00000000000E+00 0. -1.
         25    2    1    2    0    0  0.18018448316E+02  0.29411186625E+02 -0.50223594178E+03  0.51872701682E+03  0.12508834631E+03 0.  0.
          5    1    3    3  502    0 -0.34108372196E+02 -0.10151095741E+02 -0.36364559056E+03  0.36540664161E+03  0.41800000000E+01 0.  1.
         -5    1    3    3    0  502  0.52126820511E+02  0.39562282366E+02 -0.13859035122E+03  0.15332037521E+03  0.41800000000E+01 0.  1.
        -11    1    1    2    0    0  0.14800760753E+00  0.29013666281E+02 -0.71021742538E+01  0.29870648075E+02  0.00000000000E+00 0. -1.
         11    1    1    2    0    0 -0.18166455923E+02 -0.58424852905E+02  0.50582179738E+02  0.79385392012E+02  0.00000000000E+00 0.  1.
</event>
<event>
 7    1  0.2810263E-009  0.6596032E+02  0.7561462E-02  0.1374395E+00
          1   -1    0    0  501    0  0.00000000000E+00  0.00000000000E+00  0.29844732782E+03  0.29844732782E+03  0.00000000000E+00 0. -1.
         -1   -1    0    0    0  501 -0.00000000000E+00 -0.00000000000E+00 -0.43400098939E+02  0.43400098939E+02  0.00000000000E+00 0.  1.
         25    2    1    2    0    0 -0.74967894139E+01 -0.56191895205E+01  0.20190028754E+03  0.23768465606E+03  0.12506995033E+03 0.  0.
          5    1    3    3  502    0 -0.30689794524E+02 -0.11893241489E+02  0.20952297108E+03  0.21213359114E+03  0.41800000000E+01 0.  1.
         -5    1    3    3    0  502  0.23193005110E+02  0.62740519683E+01 -0.76226835387E+01  0.25551064918E+02  0.41800000000E+01 0.  1.
        -11    1    1    2    0    0  0.11141540179E+02 -0.33377731448E+02  0.54614009417E+02  0.64968430017E+02  0.00000000000E+00 0. -1.
         11    1    1    2    0    0 -0.36447507652E+01  0.38996920969E+02 -0.14670680728E+01  0.39194340687E+02  0.00000000000E+00 0.  1.
</event>
<event>
 7    1  0.3682817E-009  0.1846485E+03  0.7561462E-02  0.1163379E+00
          3   -1    0    0  501    0  0.00000000000E+00  0.00000000000E+00  0.28672863646E+03  0.28672863646E+03  0.00000000000E+00 0. -1.
         -3   -1    0    0    0  501 -0.00000000000E+00 -0.00000000000E+00 -0.13650620580E+03  0.13650620580E+03  0.00000000000E+00 0.  1.
         25    2    1    2    0    0  0.12305357137E+03  0.98697472905E+02  0.13059471327E+03  0.23996698085E+03  0.12508317305E+03 0.  0.
          5    1    3    3  502    0 -0.11292930775E+02  0.44524784656E+02  0.19152343101E+01  0.46164133877E+02  0.41800000000E+01 0. -1.
         -5    1    3    3    0  502  0.13434650214E+03  0.54172688249E+02  0.12867947896E+03  0.19380284698E+03  0.41800000000E+01 0. -1.
        -11    1    1    2    0    0 -0.93932428315E+02 -0.22368021582E+02 -0.83372072784E+01  0.96918205224E+02  0.00000000000E+00 0.  1.
         11    1    1    2    0    0 -0.29121143053E+02 -0.76329451323E+02  0.27964924673E+02  0.86349656189E+02  0.00000000000E+00 0. -1.
</event>
<event>
 7    1  0.2810263E-009  0.1250719E+03  0.7561462E-02  0.1234957E+00
         -1   -1    0    0    0  501 -0.00000000000E+00  0.00000000000E+00  0.88398304125E+02  0.88398304125E+02  0.00000000000E+00 0.  1.
          1   -1    0    0  501    0  0.00000000000E+00 -0.00000000000E+00 -0.30791948834E+03  0.30791948834E+03  0.00000000000E+00 0. -1.
         25    2    1    2    0    0  0.82709608222E+02 -0.86113486092E+02 -0.77568008378E+02  0.18952826130E+03  0.12509098341E+03 0.  0.
          5    1    3    3  502    0  0.58478183635E+02 -0.70700205239E+02 -0.11177473230E+03  0.14466955506E+03  0.41800000000E+01 0.  1.
         -5    1    3    3    0  502  0.24231424587E+02 -0.15413280852E+02  0.34206723920E+02  0.44858706240E+02  0.41800000000E+01 0.  1.
        -11    1    1    2    0    0 -0.74864407963E+02  0.44842297307E+02 -0.38980805960E+02  0.95577269477E+02  0.00000000000E+00 0.  1.
         11    1    1    2    0    0 -0.78452002587E+01  0.41271188785E+02 -0.10297236988E+03  0.11121226169E+03  0.00000000000E+00 0. -1.
</event>
<event>
 7    1  0.2810263E-009  0.9397800E+02  0.7561462E-02  0.1293495E+00
         -3   -1    0    0    0  501 -0.00000000000E+00  0.00000000000E+00  0.19514964644E+02  0.19514964644E+02  0.00000000000E+00 0.  1.
          3   -1    0    0  501    0  0.00000000000E+00 -0.00000000000E+00 -0.70284804789E+03  0.70284804789E+03  0.00000000000E+00 0. -1.
         25    2    1    2    0    0 -0.36776709862E+02  0.73860829971E+01 -0.36534039392E+03  0.38797942041E+03  0.12508935457E+03 0.  0.
          5    1    3    3  502    0 -0.88832724035E+00  0.40468676061E+02 -0.33974064201E+02  0.53011435613E+02  0.41800000000E+01 0.  1.
         -5    1    3    3    0  502 -0.35888382622E+02 -0.33082593064E+02 -0.33136632971E+03  0.33496798480E+03  0.41800000000E+01 0.  1.
        -11    1    1    2    0    0  0.62140975797E+02 -0.25432967005E+02 -0.26039015523E+03  0.26890773441E+03  0.00000000000E+00 0. -1.
         11    1    1    2    0    0 -0.25364265935E+02  0.18046884008E+02 -0.57602534100E+02  0.65475857715E+02  0.00000000000E+00 0.  1.
</event>
<event>
 7    1  0.2810263E-009  0.1033291E+03  0.7561462E-02  0.1273447E+00
         -1   -1    0    0    0  501 -0.00000000000E+00  0.00000000000E+00  0.28583834119E+02  0.28583834119E+02  0.00000000000E+00 0.  1.
          1   -1    0    0  501    0  0.00000000000E+00 -0.00000000000E+00 -0.45534949836E+03  0.45534949836E+03  0.00000000000E+00 0. -1.
         25    2    1    2    0    0 -0.22794621263E+02  0.14915343036E+02 -0.18822223502E+03  0.22763252567E+03  0.12508754843E+03 0.  0.
          5    1    3    3  502    0  0.25020859855E+02  0.56901211144E+02 -0.11283332157E+03  0.12888996126E+03  0.41800000000E+01 0.  1.
         -5    1    3    3    0  502 -0.47815481119E+02 -0.41985868108E+02 -0.75388913450E+02  0.98742564411E+02  0.41800000000E+01 0.  1.
        -11    1    1    2    0    0 -0.20887999167E+01 -0.43008752079E+02 -0.59977054911E+02  0.73833345829E+02  0.00000000000E+00 0. -1.
         11    1    1    2    0    0  0.24883421180E+02  0.28093409042E+02 -0.17856637431E+03  0.18246746098E+03  0.00000000000E+00 0.  1.
</event>
<event>
 7    1  0.2810263E-009  0.1185593E+03  0.7561462E-02  0.1245493E+00
         -1   -1    0    0    0  501 -0.00000000000E+00  0.00000000000E+00  0.10552720561E+02  0.10552720561E+02  0.00000000000E+00 0.  1.
          1   -1    0    0  501    0  0.00000000000E+00 -0.00000000000E+00 -0.14491607654E+04  0.14491607654E+04  0.00000000000E+00 0. -1.
         25    2    1    2    0    0 -0.95147868291E+01  0.53735370113E+02 -0.95887593163E+03  0.96853945760E+03  0.12509039729E+03 0.  0.
          5    1    3    3  502    0  0.41564081482E+02 -0.20219149869E+02 -0.34309871264E+03  0.34622331797E+03  0.41800000000E+01 0. -1.
         -5    1    3    3    0  502 -0.51078868311E+02  0.73954519982E+02 -0.61577721899E+03  0.62231613962E+03  0.41800000000E+01 0. -1.
        -11    1    1    2    0    0  0.42473051981E+02 -0.62506670704E+01 -0.13597337773E+03  0.14258958740E+03  0.00000000000E+00 0.  1.
         11    1    1    2    0    0 -0.32958265152E+02 -0.47484703042E+02 -0.34375873551E+03  0.34858444100E+03  0.00000000000E+00 0. -1.
</event>
<event>
 7    1  0.2810263E-009  0.1872733E+03  0.7561462E-02  0.1160944E+00
          1   -1    0    0  501    0  0.00000000000E+00  0.00000000000E+00  0.74608650098E+03  0.74608650098E+03  0.00000000000E+00 0. -1.
         -1   -1    0    0    0  501 -0.00000000000E+00 -0.00000000000E+00 -0.56551198874E+02  0.56551198874E+02  0.00000000000E+00 0.  1.
         25    2    1    2    0    0  0.88181822492E+02  0.13965457537E+03  0.46712665974E+03  0.51101196084E+03  0.12508586506E+03 0.  0.
          5    1    3    3  502    0  0.52434998465E+02  0.15748393755E+03  0.39454886672E+03  0.42806179493E+03  0.41800000000E+01 0. -1.
         -5    1    3    3    0  502  0.35746824027E+02 -0.17829362180E+02  0.72577793022E+02  0.82950165905E+02  0.41800000000E+01 0. -1.
        -11    1    1    2    0    0 -0.72823883084E+02 -0.86789632522E+02  0.20441000185E+03  0.23370752473E+03  0.00000000000E+00 0.  1.
         11    1    1    2    0    0 -0.15357939408E+02 -0.52864942850E+02  0.17998640515E+02  0.57918214283E+02  0.00000000000E+00 0. -1.
</event>
<event>
 7    1  0.2810263E-009  0.1064236E+03  0.7561462E-02  0.1267340E+00
          1   -1    0    0  501    0  0.00000000000E+00  0.00000000000E+00  0.28324104682E+03  0.28324104682E+03  0.00000000000E+00 0. -1.
         -1   -1    0    0    0  501 -0.00000000000E+00 -0.00000000000E+00 -0.72262872426E+02  0.72262872426E+02  0.00000000000E+00 0.  1.
         25    2    1    2    0    0  0.92448200359E+02  0.10863772164E+02  0.12950395799E+03  0.20268931655E+03  0.12508793953E+03 0.  0.
          5    1    3    3  502    0  0.26999199751E+02 -0.15115014388E+02  0.12839846729E+03  0.13214030139E+03  0.41800000000E+01 0.  1.
         -5    1    3    3    0  502  0.65449000608E+02  0.25978786553E+02  0.11054906948E+01  0.70549015167E+02  0.41800000000E+01 0.  1.
        -11    1    1    2    0    0 -0.15843885700E+02 -0.28379159934E+02 -0.82610631401E+01  0.33535810663E+02  0.00000000000E+00 0. -1.
         11    1    1    2    0    0 -0.76604314659E+02  0.17515387770E+02  0.89735279551E+02  0.11927879203E+03  0.00000000000E+00 0.  1.
</event>
<event>
 7    1  0.2810263E-009  0.2314898E+03  0.7561462E-02  0.1125596E+00
          1   -1    0    0  501    0  0.00000000000E+00  0.00000000000E+00  0.12548946389E+04  0.12548946389E+04  0.00000000000E+00 0. -1.
         -1   -1    0    0    0  501 -0.00000000000E+00 -0.00000000000E+00 -0.45111615380E+02  0.45111615380E+02  0.00000000000E+00 0.  1.
         25    2    1    2    0    0 -0.17517655851E+03 -0.10695985955E+03  0.76385016282E+03  0.80077565049E+03  0.12508929995E+03 0.  0.
          5    1    3    3  502    0 -0.18344456016E+03 -0.61089053185E+02  0.60267969849E+03  0.63294871075E+03  0.41800000000E+01 0.  1.
         -5    1    3    3    0  502  0.82680016458E+01 -0.45870806366E+02  0.16117046433E+03  0.16782693974E+03  0.41800000000E+01 0.  1.
        -11    1    1    2    0    0  0.11294525190E+03  0.18224129298E+02  0.25915590627E+03  0.28328524947E+03  0.00000000000E+00 0.  1.
         11    1    1    2    0    0  0.62231306616E+02  0.88735730253E+02  0.18677695444E+03  0.21594535433E+03  0.00000000000E+00 0. -1.
</event>
<event>
 7    1  0.2810263E-009  0.1056725E+03  0.7561462E-02  0.1268800E+00
         -1   -1    0    0    0  501 -0.00000000000E+00  0.00000000000E+00  0.13021058805E+03  0.13021058805E+03  0.00000000000E+00 0.  1.
          1   -1    0    0  501    0  0.00000000000E+00 -0.00000000000E+00 -0.11532621443E+03  0.11532621443E+03  0.00000000000E+00 0. -1.
         25    2    1    2    0    0  0.41819155365E+02 -0.56561380940E+00  0.47656774262E+02  0.14024101801E+03  0.12508882174E+03 0.  0.
          5    1    3    3  502    0  0.18345780208E+02  0.51190891402E+02 -0.13976065303E+02  0.56301667962E+02  0.41800000000E+01 0.  1.
         -5    1    3    3    0  502  0.23473375157E+02 -0.51756505212E+02  0.61632839564E+02  0.83939350044E+02  0.41800000000E+01 0.  1.
        -11    1    1    2    0    0 -0.55558289910E+02  0.32984041187E+02 -0.17673267370E+02  0.66985184409E+02  0.00000000000E+00 0.  1.
         11    1    1    2    0    0  0.13739134546E+02 -0.32418427377E+02 -0.15099133268E+02  0.38310600062E+02  0.00000000000E+00 0. -1.
</event>
<event>
 7    1  0.2810263E-009  0.1220100E+03  0.7561462E-02  0.1239817E+00
          1   -1    0    0  501    0  0.00000000000E+00  0.00000000000E+00  0.43444292608E+03  0.43444292608E+03  0.00000000000E+00 0. -1.
         -1   -1    0    0    0  501 -0.00000000000E+00 -0.00000000000E+00 -0.41429551973E+02  0.41429551973E+02  0.00000000000E+00 0.  1.
         25    2    1    2    0    0 -0.33605840047E+02 -0.55166296622E+02  0.29715807718E+03  0.32881798287E+03  0.12508265371E+03 0.  0.
          5    1    3    3  502    0  0.21589099484E+02 -0.77110567003E+02  0.15038731995E+03  0.17042871578E+03  0.41800000000E+01 0. -1.
         -5    1    3    3    0  502 -0.55194939532E+02  0.21944270381E+02  0.14677075722E+03  0.15838926709E+03  0.41800000000E+01 0. -1.
        -11    1    1    2    0    0  0.60758509392E+02  0.32402412929E+02  0.36517029205E+02  0.77942326429E+02  0.00000000000E+00 0.  1.
         11    1    1    2    0    0 -0.27152669345E+02  0.22763883693E+02  0.59338267721E+02  0.69112168751E+02  0.00000000000E+00 0. -1.
</event>
<event>
 7    1  0.2810263E-009  0.6624436E+02  0.7561462E-02  0.1373351E+00
         -2   -1    0    0    0  501 -0.00000000000E+00  0.00000000000E+00  0.15389303401E+03  0.15389303401E+03  0.00000000000E+00 0.  1.
          2   -1    0    0  501    0  0.00000000000E+00 -0.00000000000E+00 -0.90694754080E+02  0.90694754080E+02  0.00000000000E+00 0. -1.
         25    2    1    2    0    0  0.47291269972E+02 -0.44285222514E+01  0.36078045010E+02  0.13857476004E+03  0.12508102479E+03 0.  0.
          5    1    3    3  502    0  0.46877502546E+02  0.60916711050E+01  0.80108829266E+02  0.93110180046E+02  0.41800000000E+01 0. -1.
         -5    1    3    3    0  502  0.41376742551E+00 -0.10520193356E+02 -0.44030784256E+02  0.45464579993E+02  0.41800000000E+01 0. -1.
        -11    1    1    2    0    0 -0.45183871794E+02  0.25933211478E+02  0.51624245119E+02  0.73342868855E+02  0.00000000000E+00 0.  1.
         11    1    1    2    0    0 -0.21073981780E+01 -0.21504689227E+02 -0.24504010201E+02  0.32670159194E+02  0.00000000000E+00 0. -1.
</event>
<event>
 7    1  0.2810263E-009  0.9142940E+02  0.7561462E-02  0.1299427E+00
          1   -1    0    0  501    0  0.00000000000E+00  0.00000000000E+00  0.31458611899E+02  0.31458611899E+02  0.00000000000E+00 0. -1.
         -1   -1    0    0    0  501 -0.00000000000E+00 -0.00000000000E+00 -0.44247575183E+03  0.44247575183E+03  0.00000000000E+00 0.  1.
         25    2    1    2    0    0 -0.35941005274E+02 -0.12877693295E+01 -0.34324796748E+03  0.36709548963E+03  0.12508603884E+03 0.  0.
          5    1    3    3  502    0  0.43469672461E+02  0.82599058198E+01 -0.17794868998E+03  0.18341495886E+03  0.41800000000E+01 0.  1.
         -5    1    3    3    0  502 -0.79410677735E+02 -0.95476751493E+01 -0.16529927750E+03  0.18368053076E+03  0.41800000000E+01 0.  1.
        -11    1    1    2    0    0 -0.10948058199E+02 -0.26633302359E+01 -0.57607345291E+02  0.58698888727E+02  0.00000000000E+00 0.  1.
         11    1    1    2    0    0  0.46889063473E+02  0.39510995655E+01 -0.10161827159E+02  0.48139985379E+02  0.00000000000E+00 0. -1.
</event>
<event>
 7    1  0.2810263E-009  0.1056812E+03  0.7561462E-02  0.1268783E+00
          2   -1    0    0  501    0  0.00000000000E+00  0.00000000000E+00  0.66873714344E+03  0.66873714344E+03  0.00000000000E+00 0. -1.
         -2   -1    0    0    0  501 -0.00000000000E+00 -0.00000000000E+00 -0.19009211957E+02  0.19009211957E+02  0.00000000000E+00 0.  1.
         25    2    1    2    0    0  0.32768023216E+01 -0.18942986620E+02  0.46311752180E+03  0.48009829741E+03  0.12508781714E+03 0.  0.
          5    1    3    3  502    0  0.24729822080E+02 -0.65242502013E+02  0.19531076378E+03  0.20744135320E+03  0.41800000000E+01 0.  1.
         -5    1    3    3    0  502 -0.21453019758E+02  0.46299515392E+02  0.26780675802E+03  0.27265694420E+03  0.41800000000E+01 0.  1.
        -11    1    1    2    0    0  0.36310514085E+02 -0.13848151618E+02  0.66910563450E+02  0.77377310871E+02  0.00000000000E+00 0.  1.
         11    1    1    2    0    0 -0.39587316407E+02  0.32791138238E+02  0.11969984623E+03  0.13027074712E+03  0.00000000000E+00 0. -1.
</event>
<event>
 7    1  0.2810263E-009  0.1506613E+03  0.7561462E-02  0.1199663E+00
          4   -1    0    0  501    0  0.00000000000E+00  0.00000000000E+00  0.14325191516E+04  0.14325191516E+04  0.00000000000E+00 0. -1.
         -4   -1    0    0    0  501 -0.00000000000E+00 -0.00000000000E+00 -0.16287307520E+02  0.16287307520E+02  0.00000000000E+00 0.  1.
         25    2    1    2    0    0  0.11094799137E+02 -0.10554851832E+03  0.73055518263E+03  0.74874644901E+03  0.12508711261E+03 0.  0.
          5    1    3    3  502    0  0.64954495702E+02 -0.32778162692E+02  0.35596494754E+03  0.36334833251E+03  0.41800000000E+01 0. -1.
         -5    1    3    3    0  502 -0.53859696565E+02 -0.72770355628E+02  0.37459023510E+03  0.38539811650E+03  0.41800000000E+01 0. -1.
        -11    1    1    2    0    0 -0.48909205721E+02  0.45189002310E+02  0.25594022340E+03  0.26446087478E+03  0.00000000000E+00 0. -1.
         11    1    1    2    0    0  0.37814406584E+02  0.60359516010E+02  0.42973643804E+03  0.43559913533E+03  0.00000000000E+00 0.  1.
</event>
<event>
 7    1  0.2810263E-009  0.1507948E+03  0.7561462E-02  0.1199500E+00
         -2   -1    0    0    0  501 -0.00000000000E+00  0.00000000000E+00  0.16624401505E+03  0.16624401505E+03  0.00000000000E+00 0.  1.
          2   -1    0    0  501    0  0.00000000000E+00 -0.00000000000E+00 -0.26871294314E+03  0.26871294314E+03  0.00000000000E+00 0. -1.
         25    2    1    2    0    0  0.12261052782E+03  0.69002198507E+02 -0.15164063984E+03  0.24173916515E+03  0.12509314684E+03 0.  0.
          5    1    3    3  502    0  0.10937914803E+02 -0.11791010424E+02 -0.88547176725E+02  0.90092956511E+02  0.41800000000E+01 0. -1.
         -5    1    3    3    0  502  0.11167261302E+03  0.80793208932E+02 -0.63093463113E+02  0.15164620864E+03  0.41800000000E+01 0. -1.
        -11    1    1    2    0    0 -0.28504486642E+02 -0.38990375901E+02  0.76733672532E+02  0.90668691796E+02  0.00000000000E+00 0.  1.
         11    1    1    2    0    0 -0.94106041178E+02 -0.30011822606E+02 -0.27561960788E+02  0.10254910124E+03  0.00000000000E+00 0. -1.
</event>
<event>
 7    1  0.2810263E-009  0.8472176E+02  0.7561462E-02  0.1316162E+00
         -1   -1    0    0    0  501 -0.00000000000E+00  0.00000000000E+00  0.59117292989E+02  0.59117292989E+02  0.00000000000E+00 0.  1.
          1   -1    0    0  501    0  0.00000000000E+00 -0.00000000000E+00 -0.41906202543E+03  0.41906202543E+03  0.00000000000E+00 0. -1.
         25    2    1    2    0    0 -0.33210575694E+02 -0.37778276560E+02 -0.34933743152E+03  0.37445362867E+03  0.12509491774E+03 0.  0.
          5    1    3    3  502    0  0.15282562926E+02  0.10193816109E+02 -0.35557407060E+00  0.18843286586E+02  0.41800000000E+01 0. -1.
         -5    1    3    3    0  502 -0.48493138619E+02 -0.47972092668E+02 -0.34898185745E+03  0.35561034209E+03  0.41800000000E+01 0. -1.
        -11    1    1    2    0    0  0.50808900522E+02  0.14039444573E+02 -0.36759744761E+02  0.64264525293E+02  0.00000000000E+00 0. -1.
         11    1    1    2    0    0 -0.17598324829E+02  0.23738831987E+02  0.26152443845E+02  0.39461164452E+02  0.00000000000E+00 0.  1.
</event>
<event>
 7    1  0.2810263E-009  0.1548101E+03  0.7561462E-02  0.1194684E+00
          3   -1    0    0  501    0  0.00000000000E+00  0.00000000000E+00  0.15293406666E+03  0.15293406666E+03  0.00000000000E+00 0. -1.
         -3   -1    0    0    0  501 -0.00000000000E+00 -0.00000000000E+00 -0.16523866896E+03  0.16523866896E+03  0.00000000000E+00 0.  1.
         25    2    1    2    0    0  0.11157554103E+03 -0.24192866671E+01  0.23174432605E+02  0.16923284689E+03  0.12509095825E+03 0.  0.
          5    1    3    3  502    0  0.93247260551E+02  0.52614580995E+02  0.28382816971E+02  0.11084404555E+03  0.41800000000E+01 0. -1.
         -5    1    3    3    0  502  0.18328280483E+02 -0.55033867662E+02 -0.52083843654E+01  0.58388801349E+02  0.41800000000E+01 0. -1.
        -11    1    1    2    0    0 -0.70550350166E+02  0.46188755497E+02 -0.25724027261E+02  0.88161661858E+02  0.00000000000E+00 0.  1.
         11    1    1    2    0    0 -0.41025190868E+02 -0.43769468830E+02 -0.97550076464E+01  0.60778226871E+02  0.00000000000E+00 0. -1.
</event>
<event>
 7    1  0.2810263E-009  0.2701691E+03  0.7561462E-02  0.1101183E+00
         -2   -1    0    0    0  501 -0.00000000000E+00  0.00000000000E+00  0.15841682830E+04  0.15841682830E+04  0.00000000000E+00 0.  1.
          2   -1    0    0  501    0  0.00000000000E+00 -0.00000000000E+00 -0.62225362250E+02  0.62225362250E+02  0.00000000000E+00 0. -1.
         25    2    1    2    0    0 -0.44260986285E+02 -0.24520748893E+03  0.11838320220E+04  0.12162201245E+04  0.12508951712E+03 0.  0.
          5    1    3    3  502    0 -0.71826732329E+02 -0.23400978584E+03  0.11064079216E+04  0.11331706053E+04  0.41800000000E+01 0.  1.
         -5    1    3    3    0  502  0.27565746045E+02 -0.11197703094E+02  0.77424100438E+02  0.83049519193E+02  0.41800000000E+01 0.  1.
        -11    1    1    2    0    0 -0.21543920943E+02  0.15541292858E+02  0.42093613162E+02  0.49774939300E+02  0.00000000000E+00 0.  1.
         11    1    1    2    0    0  0.65804907227E+02  0.22966619607E+03  0.29601728558E+03  0.38039858149E+03  0.00000000000E+00 0. -1.
</event>
<event>
 7    1  0.2810263E-009  0.1199950E+03  0.7561462E-02  0.1243105E+00
         -1   -1    0    0    0  501 -0.00000000000E+00  0.00000000000E+00  0.82797806323E+02  0.82797806323E+02  0.00000000000E+00 0.  1.
          1   -1    0    0  501    0  0.00000000000E+00 -0.00000000000E+00 -0.31621022633E+03  0.31621022633E+03  0.00000000000E+00 0. -1.
         25    2    1    2    0    0  0.41597135042E+02  0.79451114972E+02 -0.22889892884E+03  0.27583590934E+03  0.12509167815E+03 0.  0.
          5    1    3    3  502    0 -0.34860993923E+02  0.19152794718E+02 -0.13385199250E+03  0.13969948726E+03  0.41800000000E+01 0. -1.
         -5    1    3    3    0  502  0.76458128965E+02  0.60298320255E+02 -0.95046936335E+02  0.13613642208E+03  0.41800000000E+01 0. -1.
        -11    1    1    2    0    0 -0.18765932312E+02  0.11086624102E+01 -0.30213442924E+02  0.35584286998E+02  0.00000000000E+00 0. -1.
         11    1    1    2    0    0 -0.22831202730E+02 -0.80559777382E+02  0.25699951757E+02  0.87587836315E+02  0.00000000000E+00 0.  1.
</event>
<event>
 7    1  0.2810263E-009  0.2053475E+03  0.7561462E-02  0.1145304E+00
          2   -1    0    0  501    0  0.00000000000E+00  0.00000000000E+00  0.98451387682E+03  0.98451387682E+03  0.00000000000E+00 0. -1.
         -2   -1    0    0    0  501 -0.00000000000E+00 -0.00000000000E+00 -0.59242478285E+02  0.59242478285E+02  0.00000000000E+00 0.  1.
         25    2    1    2    0    0  0.12565320165E+03 -0.14792277046E+03  0.67162933143E+03  0.71021254125E+03  0.12508405900E+03 0.  0.
          5    1    3    3  502    0  0.65651899938E+02 -0.39036237364E+02  0.10394053592E+03  0.12905466749E+03  0.41800000000E+01 0. -1.
         -5    1    3    3    0  502  0.60001301712E+02 -0.10888653310E+03  0.56768879550E+03  0.58115787376E+03  0.41800000000E+01 0. -1.
        -11    1    1    2    0    0 -0.10414236201E+03  0.61933074826E+02  0.10428523674E+03  0.15986478013E+03  0.00000000000E+00 0. -1.
         11    1    1    2    0    0 -0.21510839636E+02  0.85989695638E+02  0.14935683037E+03  0.17367903373E+03  0.00000000000E+00 0.  1.
</event>
<event>
 7    1  0.2810263E-009  0.7966568E+02  0.7561462E-02  0.1330003E+00
          1   -1    0    0  501    0  0.00000000000E+00  0.00000000000E+00  0.59534917439E+02  0.59534917439E+02  0.00000000000E+00 0. -1.
         -1   -1    0    0    0  501 -0.00000000000E+00 -0.00000000000E+00 -0.23988092824E+03  0.23988092824E+03  0.00000000000E+00 0.  1.
         25    2    1    2    0    0 -0.23530994993E+02  0.22768340042E+02 -0.62456564746E+02  0.14359827559E+03  0.12509011647E+03 0.  0.
          5    1    3    3  502    0 -0.10533739512E+02 -0.24305433690E+02 -0.85377289652E+02  0.89490042817E+02  0.41800000000E+01 0. -1.
         -5    1    3    3    0  502 -0.12997255481E+02  0.47073773732E+02  0.22920724906E+02  0.54108232771E+02  0.41800000000E+01 0. -1.
        -11    1    1    2    0    0  0.42977434313E+02 -0.39102412548E+02 -0.11673400887E+03  0.13039512013E+03  0.00000000000E+00 0.  1.
         11    1    1    2    0    0 -0.19446439321E+02  0.16334072506E+02 -0.11554371849E+01  0.25422449960E+02  0.00000000000E+00 0. -1.
</event>
<event>
 7    1  0.2810263E-009  0.7528715E+02  0.7561462E-02  0.1342984E+00
         -1   -1    0    0    0  501 -0.00000000000E+00  0.00000000000E+00  0.46059805287E+02  0.46059805287E+02  0.00000000000E+00 0.  1.
          1   -1    0    0  501    0  0.00000000000E+00 -0.00000000000E+00 -0.29992544661E+03  0.29992544661E+03  0.00000000000E+00 0. -1.
         25    2    1    2    0    0 -0.36501452148E+02 -0.23627638007E+02 -0.11724144751E+03  0.17687155735E+03  0.12508944599E+03 0.  0.
          5    1    3    3  502    0 -0.40283707049E+02  0.47125545337E+01  0.13519370134E+02  0.42956151977E+02  0.41800000000E+01 0.  1.
         -5    1    3    3    0  502  0.37822549002E+01 -0.28340192540E+02 -0.13076081764E+03  0.13391540537E+03  0.41800000000E+01 0.  1.
        -11    1    1    2    0    0  0.95168645218E+01  0.45304148829E+02 -0.12385001654E+03  0.13221899715E+03  0.00000000000E+00 0. -1.
         11    1    1    2    0    0  0.26984587627E+02 -0.21676510822E+02 -0.12774177275E+02  0.36894697395E+02  0.00000000000E+00 0.  1.
</event>
<event>
 7    1  0.2810263E-009  0.2082156E+03  0.7561462E-02  0.1142987E+00
         -1   -1    0    0    0  501 -0.00000000000E+00  0.00000000000E+00  0.53591729754E+02  0.53591729754E+02  0.00000000000E+00 0.  1.
          1   -1    0    0  501    0  0.00000000000E+00 -0.00000000000E+00 -0.97241551308E+03  0.97241551308E+03  0.00000000000E+00 0. -1.
         25    2    1    2    0    0 -0.17907397156E+03  0.81788969783E+02 -0.38831601965E+03  0.45298364545E+03  0.12509168260E+03 0.  0.
          5    1    3    3  502    0  0.88685332071E+01  0.33937597399E+01 -0.96839442432E+02  0.97393626572E+02  0.41800000000E+01 0. -1.
         -5    1    3    3    0  502 -0.18794250477E+03  0.78395210043E+02 -0.29147657722E+03  0.35559001887E+03  0.41800000000E+01 0. -1.
        -11    1    1    2    0    0  0.37278010069E+02  0.25992350430E+01 -0.20172936111E+03  0.20516125656E+03  0.00000000000E+00 0. -1.
         11    1    1    2    0    0  0.14179596149E+03 -0.84388204826E+02 -0.32877840257E+03  0.36786234083E+03  0.00000000000E+00 0.  1.
</event>
<event>
 7    1  0.2810263E-009  0.8058148E+02  0.7561462E-02  0.1327409E+00
         -2   -1    0    0    0  501 -0.00000000000E+00  0.00000000000E+00  0.90875706069E+01  0.90875706069E+01  0.00000000000E+00 0.  1.
          2   -1    0    0  501    0  0.00000000000E+00 -0.00000000000E+00 -0.15850994360E+04  0.15850994360E+04  0.00000000000E+00 0. -1.
         25    2    1    2    0    0  0.54285495193E+01 -0.49355171743E+01 -0.12262328202E+04  0.12326185485E+04  0.12509088063E+03 0.  0.
          5    1    3    3  502    0 -0.18407720415E+02  0.26977796031E+02 -0.10930041415E+04  0.10934999640E+04  0.41800000000E+01 0. -1.
         -5    1    3    3    0  502  0.23836269935E+02 -0.31913313205E+02 -0.13322867867E+03  0.13911858447E+03  0.41800000000E+01 0. -1.
        -11    1    1    2    0    0  0.36699385655E+02 -0.17274565903E+02 -0.21049908112E+03  0.21437145026E+03  0.00000000000E+00 0. -1.
         11    1    1    2    0    0 -0.42127935175E+02  0.22210083078E+02 -0.13927996414E+03  0.14719700786E+03  0.00000000000E+00 0.  1.
</event>
<event>
 7    1  0.2810263E-009  0.9035556E+02  0.7561462E-02  0.1301993E+00
         -3   -1    0    0    0  501 -0.00000000000E+00  0.00000000000E+00  0.22511971606E+02  0.22511971606E+02  0.00000000000E+00 0.  1.
          3   -1    0    0  501    0  0.00000000000E+00 -0.00000000000E+00 -0.63561315703E+03  0.63561315703E+03  0.00000000000E+00 0. -1.
         25    2    1    2    0    0 -0.14797412326E+02 -0.39961133064E+02 -0.42303819239E+03  0.44319791921E+03  0.12508887963E+03 0.  0.
          5    1    3    3  502    0 -0.21597459514E+02  0.26807560602E+02 -0.30801431201E+03  0.30996029482E+03  0.41800000000E+01 0.  1.
         -5    1    3    3    0  502  0.68000471879E+01 -0.66768693666E+02 -0.11502388038E+03  0.13323762439E+03  0.41800000000E+01 0.  1.
        -11    1    1    2    0    0 -0.15601242284E+02  0.45312305565E+02 -0.17329782474E+03  0.17980194619E+03  0.00000000000E+00 0. -1.
         11    1    1    2    0    0  0.30398654610E+02 -0.53511725016E+01 -0.16765168305E+02  0.35125263238E+02  0.00000000000E+00 0.  1.
</event>
<event>
 7    1  0.2810263E-009  0.1009379E+03  0.7561462E-02  0.1278336E+00
          1   -1    0    0  501    0  0.00000000000E+00  0.00000000000E+00  0.41766668204E+03  0.41766668204E+03  0.00000000000E+00 0. -1.
         -1   -1    0    0    0  501 -0.00000000000E+00 -0.00000000000E+00 -0.47702724902E+02  0.47702724902E+02  0.00000000000E+00 0.  1.
         25    2    1    2    0    0 -0.79793827901E+02  0.15275423653E+02  0.26523648277E+03  0.30430126023E+03  0.12509385137E+03 0.  0.
          5    1    3    3  502    0 -0.78410126568E+02  0.20495338469E+02  0.65069650844E+02  0.10401797301E+03  0.41800000000E+01 0.  1.
         -5    1    3    3    0  502 -0.13837013335E+01 -0.52199148161E+01  0.20016683192E+03  0.20028328723E+03  0.41800000000E+01 0.  1.
        -11    1    1    2    0    0  0.22653663965E+02 -0.44336694916E+02  0.17410013799E+02  0.52745043251E+02  0.00000000000E+00 0.  1.
         11    1    1    2    0    0  0.57140163936E+02  0.29061271263E+02  0.87317460570E+02  0.10832310346E+03  0.00000000000E+00 0. -1.
</event>
<event>
 7    1  0.2810263E-009  0.1208533E+03  0.7561462E-02  0.1241696E+00
         -1   -1    0    0    0  501 -0.00000000000E+00  0.00000000000E+00  0.13205937143E+03  0.13205937143E+03  0.00000000000E+00 0.  1.
          1   -1    0    0  501    0  0.00000000000E+00 -0.00000000000E+00 -0.15967291517E+03  0.15967291517E+03  0.00000000000E+00 0. -1.
         25    2    1    2    0    0  0.47194448193E+02 -0.51009828344E+02 -0.82409576439E+02  0.16513289891E+03  0.12509283547E+03 0.  0.
          5    1    3    3  502    0  0.72538556598E+02 -0.77344674877E+02 -0.64881922580E+02  0.12438318698E+03  0.41800000000E+01 0.  1.
         -5    1    3    3    0  502 -0.25344108405E+02  0.26334846533E+02 -0.17527653859E+02  0.40749711932E+02  0.41800000000E+01 0.  1.
        -11    1    1    2    0    0 -0.11925902482E+02  0.60990228466E+02  0.63581128063E+02  0.88907789108E+02  0.00000000000E+00 0.  1.
         11    1    1    2    0    0 -0.35268545711E+02 -0.99804001217E+01 -0.87850953710E+01  0.37691598584E+02  0.00000000000E+00 0. -1.
</event>
<event>
 7    1  0.2810263E-009  0.1121794E+03  0.7561462E-02  0.1256586E+00
          1   -1    0    0  501    0  0.00000000000E+00  0.00000000000E+00  0.16629695388E+03  0.16629695388E+03  0.00000000000E+00 0. -1.
         -1   -1    0    0    0  501 -0.00000000000E+00 -0.00000000000E+00 -0.33040192417E+03  0.33040192417E+03  0.00000000000E+00 0.  1.
         25    2    1    2    0    0  0.46458712594E+02  0.73418014114E+02  0.11487698772E+03  0.19076981007E+03  0.12509109223E+03 0.  0.
          5    1    3    3  502    0  0.54872074394E+02  0.53199751531E+02  0.29016773220E+01  0.76596672529E+02  0.41800000000E+01 0.  1.
         -5    1    3    3    0  502 -0.84133618000E+01  0.20218262583E+02  0.11197531039E+03  0.11417313754E+03  0.41800000000E+01 0.  1.
        -11    1    1    2    0    0 -0.47263150774E+02 -0.93847765968E+02 -0.23565566801E+03  0.25802093415E+03  0.00000000000E+00 0. -1.
         11    1    1    2    0    0  0.80443817996E+00  0.20429751855E+02 -0.43326289999E+02  0.47908133826E+02  0.00000000000E+00 0.  1.
</event>
<event>
 7    1  0.2810263E-009  0.1258177E+03  0.7561462E-02  0.1233797E+00
         -1   -1    0    0    0  501 -0.00000000000E+00  0.00000000000E+00  0.12416236421E+03  0.12416236421E+03  0.00000000000E+00 0.  1.
          1   -1    0    0  501    0  0.00000000000E+00 -0.00000000000E+00 -0.16840563623E+03  0.16840563623E+03  0.00000000000E+00 0. -1.
         25    2    1    2    0    0 -0.86508846479E+02 -0.27350742434E+02 -0.59700074119E+02  0.16566290155E+03  0.12509298330E+03 0.  0.
          5    1    3    3  502    0 -0.10754467868E+03 -0.43626592585E+02 -0.20224104721E+02  0.11787970268E+03  0.41800000000E+01 0.  1.
         -5    1    3    3    0  502  0.21035832199E+02  0.16275850151E+02 -0.39475969398E+02  0.47783198871E+02  0.41800000000E+01 0.  1.
        -11    1    1    2    0    0  0.11080801686E+02  0.31144081045E+02 -0.24797367267E+02  0.41323690222E+02  0.00000000000E+00 0.  1.
         11    1    1    2    0    0  0.75428044793E+02 -0.37933386114E+01  0.40254169366E+02  0.85581408673E+02  0.00000000000E+00 0. -1.
</event>
<event>
 7    1  0.2810263E-009  0.1016942E+03  0.7561462E-02  0.1276773E+00
          1   -1    0    0  501    0  0.00000000000E+00  0.00000000000E+00  0.53014980077E+02  0.53014980077E+02  0.00000000000E+00 0. -1.
         -1   -1    0    0    0  501 -0.00000000000E+00 -0.00000000000E+00 -0.34657444523E+03  0.34657444523E+03  0.00000000000E+00 0.  1.
         25    2    1    2    0    0  0.67022663719E+02 -0.11122578340E+02 -0.21788244155E+03  0.26026082216E+03  0.12508872058E+03 0.  0.
          5    1    3    3  502    0 -0.27457095582E+02 -0.26722577430E+02 -0.28267697952E+02  0.47796688063E+02  0.41800000000E+01 0.  1.
         -5    1    3    3    0  502  0.94479759301E+02  0.15599999090E+02 -0.18961474360E+03  0.21246413410E+03  0.41800000000E+01 0.  1.
        -11    1    1    2    0    0 -0.38134945532E+02  0.26505385674E+00  0.16922554434E+02  0.41721902796E+02  0.00000000000E+00 0. -1.
         11    1    1    2    0    0 -0.28887718186E+02  0.10857524483E+02 -0.92599578036E+02  0.97606700345E+02  0.00000000000E+00 0.  1.
</event>
<event>
 7    1  0.2810263E-009  0.1472036E+03  0.7561462E-02  0.1203952E+00
         -2   -1    0    0    0  501 -0.00000000000E+00  0.00000000000E+00  0.19356053725E+02  0.19356053725E+02  0.00000000000E+00 0.  1.
          2   -1    0    0  501    0  0.00000000000E+00 -0.00000000000E+00 -0.11606878350E+04  0.11606878350E+04  0.00000000000E+00 0. -1.
         25    2    1    2    0    0 -0.60295507415E+02 -0.80363673052E+02 -0.52583724351E+03  0.54976894401E+03  0.12508883636E+03 0.  0.
          5    1    3    3  502    0  0.27023378918E+02  0.14522661763E+02 -0.11917491554E+03  0.12313124546E+03  0.41800000000E+01 0. -1.
         -5    1    3    3    0  502 -0.87318886333E+02 -0.94886334815E+02 -0.40666232796E+03  0.42663769856E+03  0.41800000000E+01 0. -1.
        -11    1    1    2    0    0  0.28805459973E+02  0.95312171466E+02 -0.49089714855E+03  0.50089337689E+03  0.00000000000E+00 0.  1.
         11    1    1    2    0    0  0.31490047442E+02 -0.14948498414E+02 -0.12459738918E+03  0.12938156779E+03  0.00000000000E+00 0. -1.
</event>
<event>
 7    1  0.2810263E-009  0.1745536E+03  0.7561462E-02  0.1173181E+00
         -2   -1    0    0    0  501 -0.00000000000E+00  0.00000000000E+00  0.16187700701E+03  0.16187700701E+03  0.00000000000E+00 0.  1.
          2   -1    0    0  501    0  0.00000000000E+00 -0.00000000000E+00 -0.27971508565E+03  0.27971508565E+03  0.00000000000E+00 0. -1.
         25    2    1    2    0    0  0.10128861957E+03  0.13713870166E+03  0.26270932740E+01  0.21147600010E+03  0.12509512001E+03 0.  0.
          5    1    3    3  502    0  0.15832063544E+02  0.10841057583E+02 -0.47096793634E+02  0.51027082379E+02  0.41800000000E+01 0.  1.
         -5    1    3    3    0  502  0.85456556030E+02  0.12629764408E+03  0.49723886908E+02  0.16044891772E+03  0.41800000000E+01 0.  1.
        -11    1    1    2    0    0 -0.32330226292E+02 -0.83548929014E+02 -0.11269924755E+02  0.90292182804E+02  0.00000000000E+00 0.  1.
         11    1    1    2    0    0 -0.68958393283E+02 -0.53589772650E+02 -0.10919524716E+03  0.13982390975E+03  0.00000000000E+00 0. -1.
</event>
<event>
 7    1  0.3365042E-009  0.1478830E+03  0.7561462E-02  0.1203099E+00
         -1   -1    0    0    0  501 -0.00000000000E+00  0.00000000000E+00  0.25339455182E+02  0.25339455182E+02  0.00000000000E+00 0. -1.
          1   -1    0    0  501    0  0.00000000000E+00 -0.00000000000E+00 -0.97256911416E+03  0.97256911416E+03  0.00000000000E+00 0.  1.
         25    2    1    2    0    0 -0.31406838820E+02  0.10873459079E+03 -0.52609092775E+03  0.55247418058E+03  0.12508579132E+03 0.  0.
          5    1    3    3  502    0  0.43910578473E+02  0.71483281145E+02 -0.24029982700E+03  0.25455741521E+03  0.41800000000E+01 0.  1.
         -5    1    3    3    0  502 -0.75317417293E+02  0.37251309647E+02 -0.28579110075E+03  0.29791676537E+03  0.41800000000E+01 0.  1.
        -11    1    1    2    0    0  0.29815792694E+02 -0.14083342288E+02 -0.35944427786E+02  0.48778313960E+02  0.00000000000E+00 0. -1.
         11    1    1    2    0    0  0.15910461261E+01 -0.94651248504E+02 -0.38519430344E+03  0.39665607479E+03  0.00000000000E+00 0.  1.
</event>
<event>
 7    1  0.2810263E-009  0.1114598E+03  0.7561462E-02  0.1257890E+00
         -1   -1    0    0    0  501 -0.00000000000E+00  0.00000000000E+00  0.11397834871E+03  0.11397834871E+03  0.00000000000E+00 0.  1.
          1   -1    0    0  501    0  0.00000000000E+00 -0.00000000000E+00 -0.14804936217E+03  0.14804936217E+03  0.00000000000E+00 0. -1.
         25    2    1    2    0    0  0.53153215669E+02 -0.44539032216E+02 -0.22729157830E+02  0.14482599744E+03  0.12509582404E+03 0.  0.
          5    1    3    3  502    0  0.84076673663E+02 -0.16815629722E+01 -0.33695681517E+02  0.90689503589E+02  0.41800000000E+01 0. -1.
         -5    1    3    3    0  502 -0.30923457994E+02 -0.42857469244E+02  0.10966523687E+02  0.54136493847E+02  0.41800000000E+01 0. -1.
        -11    1    1    2    0    0 -0.18318564081E+02 -0.10093248597E+02  0.32729030287E+02  0.38841123578E+02  0.00000000000E+00 0.  1.
         11    1    1    2    0    0 -0.34834651588E+02  0.54632280813E+02 -0.44070885919E+02  0.78360589864E+02  0.00000000000E+00 0. -1.
</event>
<event>
 7    1  0.2810263E-009  0.9298156E+02  0.7561462E-02  0.1295788E+00
          2   -1    0    0  501    0  0.00000000000E+00  0.00000000000E+00  0.20048984414E+03  0.20048984414E+03  0.00000000000E+00 0. -1.
         -2   -1    0    0    0  501 -0.00000000000E+00 -0.00000000000E+00 -0.85902417967E+02  0.85902417967E+02  0.00000000000E+00 0.  1.
         25    2    1    2    0    0 -0.42612168264E+02 -0.40431933173E+02  0.10965854142E+03  0.17642020321E+03  0.12509418168E+03 0.  0.
          5    1    3    3  502    0 -0.29717075109E+02 -0.51221452207E+02  0.13398913691E+03  0.14655136618E+03  0.41800000000E+01 0.  1.
         -5    1    3    3    0  502 -0.12895093155E+02  0.10789519034E+02 -0.24330595490E+02  0.29868837028E+02  0.41800000000E+01 0.  1.
        -11    1    1    2    0    0  0.74983358908E+01 -0.29812336949E+02 -0.37214859365E+01  0.30965302083E+02  0.00000000000E+00 0. -1.
         11    1    1    2    0    0  0.35113832373E+02  0.70244270122E+02  0.86503706844E+01  0.79006756812E+02  0.00000000000E+00 0.  1.
</event>
<event>
 7    1  0.2810263E-009  0.1829756E+03  0.7561462E-02  0.1164954E+00
         -1   -1    0    0    0  501 -0.00000000000E+00  0.00000000000E+00  0.61199451869E+02  0.61199451869E+02  0.00000000000E+00 0.  1.
          1   -1    0    0  501    0  0.00000000000E+00 -0.00000000000E+00 -0.80689886666E+03  0.80689886666E+03  0.00000000000E+00 0. -1.
         25    2    1    2    0    0 -0.72181683347E+02 -0.15720560181E+03 -0.51803596389E+03  0.56029538554E+03  0.12508342224E+03 0.  0.
          5    1    3    3  502    0  0.12905885440E+02 -0.26399064108E+02 -0.23670151645E+03  0.23855513567E+03  0.41800000000E+01 0. -1.
         -5    1    3    3    0  502 -0.85087568786E+02 -0.13080653770E+03 -0.28133444744E+03  0.32174024987E+03  0.41800000000E+01 0. -1.
        -11    1    1    2    0    0  0.11958316611E+01  0.58904402469E+02 -0.11608457496E+02  0.60049270845E+02  0.00000000000E+00 0.  1.
         11    1    1    2    0    0  0.70985851685E+02  0.98301199343E+02 -0.21605499340E+03  0.24775366214E+03  0.00000000000E+00 0. -1.
</event>
<event>
 7    1  0.2810263E-009  0.1366977E+03  0.7561462E-02  0.1217843E+00
          2   -1    0    0  501    0  0.00000000000E+00  0.00000000000E+00  0.17033442399E+03  0.17033442399E+03  0.00000000000E+00 0. -1.
         -2   -1    0    0    0  501 -0.00000000000E+00 -0.00000000000E+00 -0.16207998219E+03  0.16207998219E+03  0.00000000000E+00 0.  1.
         25    2    1    2    0    0 -0.12116114462E+03 -0.18444136269E+01 -0.29027580099E+02  0.17656151007E+03  0.12509173275E+03 0.  0.
          5    1    3    3  502    0 -0.11548015996E+03 -0.19950253948E+02  0.24341612973E+02  0.11976504706E+03  0.41800000000E+01 0.  1.
         -5    1    3    3    0  502 -0.56809846664E+01  0.18105840321E+02 -0.53369193072E+02  0.56796463003E+02  0.41800000000E+01 0.  1.
        -11    1    1    2    0    0  0.56844877115E+02 -0.30713416070E+02  0.51194789624E+02  0.82435189486E+02  0.00000000000E+00 0. -1.
         11    1    1    2    0    0  0.64316267507E+02  0.32557829697E+02 -0.13912767732E+02  0.73417706629E+02  0.00000000000E+00 0.  1.
</event>
<event>
 7    1  0.2810263E-009  0.1119903E+03  0.7561462E-02  0.1256928E+00
          2   -1    0    0  501    0  0.00000000000E+00  0.00000000000E+00  0.38333146662E+03  0.38333146662E+03  0.00000000000E+00 0. -1.
         -2   -1    0    0    0  501 -0.00000000000E+00 -0.00000000000E+00 -0.36519894159E+02  0.36519894159E+02  0.00000000000E+00 0.  1.
         25    2    1    2    0    0  0.10188490387E+02  0.25873885500E+02  0.12997736474E+03  0.18252599807E+03  0.12509341045E+03 0.  0.
          5    1    3    3  502    0 -0.13094563424E+02 -0.48024911261E+02  0.42416553581E+02  0.65532405041E+02  0.41800000000E+01 0.  1.
         -5    1    3    3    0  502  0.23283053811E+02  0.73898796760E+02  0.87560811163E+02  0.11699359302E+03  0.41800000000E+01 0.  1.
        -11    1    1    2    0    0  0.40207164539E+02 -0.96347641484E+00  0.93556581040E+02  0.10183505400E+03  0.00000000000E+00 0. -1.
         11    1    1    2    0    0 -0.50395654926E+02 -0.24910409085E+02  0.12327762668E+03  0.13549030872E+03  0.00000000000E+00 0.  1.
</event>
<event>
 7    1  0.2810263E-009  0.1127139E+03  0.7561462E-02  0.1255625E+00
          1   -1    0    0  501    0  0.00000000000E+00  0.00000000000E+00  0.79229808168E+03  0.79229808168E+03  0.00000000000E+00 0. -1.
         -1   -1    0    0    0  501 -0.00000000000E+00 -0.00000000000E+00 -0.20671688450E+02  0.20671688450E+02  0.00000000000E+00 0.  1.
         25    2    1    2    0    0 -0.42268891513E+02 -0.33250411584E+02  0.55440504284E+03  0.57088081414E+03  0.12509078050E+03 0.  0.
          5    1    3    3  502    0 -0.63602845673E+02 -0.68537134217E+02  0.34874749935E+03  0.36108856455E+03  0.41800000000E+01 0. -1.
         -5    1    3    3    0  502  0.21333954160E+02  0.35286722634E+02  0.20565754349E+03  0.20979224960E+03  0.41800000000E+01 0. -1.
        -11    1    1    2    0    0 -0.47094662697E+01  0.42285472761E+02  0.16857327621E+03  0.17385968403E+03  0.00000000000E+00 0.  1.
         11    1    1    2    0    0  0.46978357783E+02 -0.90350611770E+01  0.48648074176E+02  0.68229271955E+02  0.00000000000E+00 0. -1.
</event>
<event>
 7    1  0.2810263E-009  0.1690624E+03  0.7561462E-02  0.1178829E+00
         -1   -1    0    0    0  501 -0.00000000000E+00  0.00000000000E+00  0.10005623227E+03  0.10005623227E+03  0.00000000000E+00 0.  1.
          1   -1    0    0  501    0  0.00000000000E+00 -0.00000000000E+00 -0.31401164560E+03  0.31401164560E+03  0.00000000000E+00 0. -1.
         25    2    1    2    0    0  0.78010279000E+02  0.11222777800E+03 -0.78454236267E+02  0.20120432587E+03  0.12508971092E+03 0.  0.
          5    1    3    3  502    0  0.37216348321E+02  0.12890293278E+03 -0.81146592395E+02  0.15685427797E+03  0.41800000000E+01 0. -1.
         -5    1    3    3    0  502  0.40793930678E+02 -0.16675154782E+02  0.26923561285E+01  0.44350047900E+02  0.41800000000E+01 0. -1.
        -11    1    1    2    0    0 -0.81580499163E+02 -0.12338089861E+03 -0.13628545754E+03  0.20112670117E+03  0.00000000000E+00 0. -1.
         11    1    1    2    0    0  0.35702201634E+01  0.11153120617E+02  0.78428048084E+00  0.11736850829E+02  0.00000000000E+00 0.  1.
</event>
<event>
 7    1  0.2810263E-009  0.1472952E+03  0.7561462E-02  0.1203837E+00
         -4   -1    0    0    0  501 -0.00000000000E+00  0.00000000000E+00  0.17983020260E+03  0.17983020260E+03  0.00000000000E+00 0.  1.
          4   -1    0    0  501    0  0.00000000000E+00 -0.00000000000E+00 -0.16959730654E+03  0.16959730654E+03  0.00000000000E+00 0. -1.
         25    2    1    2    0    0  0.12727707024E+03 -0.29265166715E+02 -0.29807659389E+02  0.18328172444E+03  0.12509113224E+03 0.  0.
          5    1    3    3  502    0  0.11915801402E+03 -0.52504606492E+02 -0.60561231677E+02  0.14366802424E+03  0.41800000000E+01 0.  1.
         -5    1    3    3    0  502  0.81190562278E+01  0.23239439777E+02  0.30753572288E+02  0.39613700202E+02  0.41800000000E+01 0.  1.
        -11    1    1    2    0    0 -0.28921142308E+02  0.29040405280E+02  0.52936129958E+02  0.66947826448E+02  0.00000000000E+00 0.  1.
         11    1    1    2    0    0 -0.98355927936E+02  0.22476143448E+00 -0.12895574508E+02  0.99197958244E+02  0.00000000000E+00 0. -1.
</event>
<event>
 7    1  0.2816364E-009  0.1062704E+03  0.7561462E-02  0.1267637E+00
         -1   -1    0    0    0  501 -0.00000000000E+00  0.00000000000E+00  0.24139694545E+03  0.24139694545E+03  0.00000000000E+00 0.  1.
          1   -1    0    0  501    0  0.00000000000E+00 -0.00000000000E+00 -0.82151287154E+02  0.82151287154E+02  0.00000000000E+00 0. -1.
         25    2    1    2    0    0 -0.41384810803E+02 -0.79718559988E+02  0.88237574704E+02  0.17748573469E+03  0.12509022767E+03 0.  0.
          5    1    3    3  502    0  0.24400071092E+02 -0.98405065515E+01 -0.19594815648E+02  0.33070050480E+02  0.41800000000E+01 0.  1.
         -5    1    3    3    0  502 -0.65784881895E+02 -0.69878053436E+02  0.10783239035E+03  0.14441568421E+03  0.41800000000E+01 0.  1.
        -11    1    1    2    0    0  0.10641885881E+02  0.18846296844E+02  0.74695439520E+02  0.77767868204E+02  0.00000000000E+00 0.  1.
         11    1    1    2    0    0  0.30742924922E+02  0.60872263144E+02 -0.36873559274E+01  0.68294629707E+02  0.00000000000E+00 0. -1.
</event>
<event>
 7    1  0.2810263E-009  0.1032580E+03  0.7561462E-02  0.1273590E+00
          2   -1    0    0  501    0  0.00000000000E+00  0.00000000000E+00  0.47785342324E+03  0.47785342324E+03  0.00000000000E+00 0. -1.
         -2   -1    0    0    0  501 -0.00000000000E+00 -0.00000000000E+00 -0.34885276828E+02  0.34885276828E+02  0.00000000000E+00 0.  1.
         25    2    1    2    0    0 -0.73290642430E+02  0.73555590887E+01  0.26666340651E+03  0.30361799354E+03  0.12509552795E+03 0.  0.
          5    1    3    3  502    0 -0.78456700308E+01  0.34806446011E+02  0.20904352746E+03  0.21210778391E+03  0.41800000000E+01 0. -1.
         -5    1    3    3    0  502 -0.65444972399E+02 -0.27450886922E+02  0.57619879049E+02  0.91510209631E+02  0.41800000000E+01 0. -1.
        -11    1    1    2    0    0  0.43763328085E+02 -0.37258817758E+02  0.50593693015E+02  0.76571340322E+02  0.00000000000E+00 0. -1.
         11    1    1    2    0    0  0.29527314345E+02  0.29903258670E+02  0.12571104688E+03  0.13254936620E+03  0.00000000000E+00 0.  1.
</event>
<event>
 7    1  0.2880274E-009  0.9770227E+02  0.7561462E-02  0.1285203E+00
          3   -1    0    0  501    0  0.00000000000E+00  0.00000000000E+00  0.15927876782E+03  0.15927876782E+03  0.00000000000E+00 0. -1.
         -3   -1    0    0    0  501 -0.00000000000E+00 -0.00000000000E+00 -0.10411822691E+03  0.10411822691E+03  0.00000000000E+00 0.  1.
         25    2    1    2    0    0 -0.42319699553E+02  0.55145123851E+02  0.31889488203E+02  0.14661432324E+03  0.12508748405E+03 0.  0.
          5    1    3    3  502    0  0.23443498517E+02  0.20809216733E+02  0.59470196274E+02  0.67355755275E+02  0.41800000000E+01 0.  1.
         -5    1    3    3    0  502 -0.65763198070E+02  0.34335907118E+02 -0.27580708071E+02  0.79258567964E+02  0.41800000000E+01 0.  1.
        -11    1    1    2    0    0  0.17753503968E+02  0.96307974048E+01 -0.25153105673E+02  0.32258609499E+02  0.00000000000E+00 0.  1.
         11    1    1    2    0    0  0.24566195585E+02 -0.64775921255E+02  0.48424158377E+02  0.84524061985E+02  0.00000000000E+00 0. -1.
</event>
<event>
 7    1  0.2810263E-009  0.1085905E+03  0.7561462E-02  0.1263203E+00
         -2   -1    0    0    0  501 -0.00000000000E+00  0.00000000000E+00  0.21152696614E+03  0.21152696614E+03  0.00000000000E+00 0.  1.
          2   -1    0    0  501    0  0.00000000000E+00 -0.00000000000E+00 -0.12249853024E+03  0.12249853024E+03  0.00000000000E+00 0. -1.
         25    2    1    2    0    0  0.62904147937E+02 -0.59800843288E+02  0.13307797153E+03  0.20221165162E+03  0.12508690122E+03 0.  0.
          5    1    3    3  502    0 -0.12338534113E+02  0.76737266064E-01 -0.18517782480E+02  0.22641245121E+02  0.41800000000E+01 0. -1.
         -5    1    3    3    0  502  0.75242682050E+02 -0.59877580554E+02  0.15159575401E+03  0.17957040650E+03  0.41800000000E+01 0. -1.
        -11    1    1    2    0    0 -0.65488008523E+02  0.70893969457E+02 -0.58924855037E+02  0.11307861295E+03  0.00000000000E+00 0.  1.
         11    1    1    2    0    0  0.25838605867E+01 -0.11093126169E+02  0.14875319404E+02  0.18735231813E+02  0.00000000000E+00 0. -1.
</event>
<event>
 7    1  0.2810263E-009  0.1528529E+03  0.7561462E-02  0.1197011E+00
          2   -1    0    0  501    0  0.00000000000E+00  0.00000000000E+00  0.31678338494E+02  0.31678338494E+02  0.00000000000E+00 0. -1.
         -2   -1    0    0    0  501 -0.00000000000E+00 -0.00000000000E+00 -0.87232912946E+03  0.87232912946E+03  0.00000000000E+00 0.  1.
         25    2    1    2    0    0 -0.72078676397E+02  0.10026950153E+03 -0.40153054077E+03  0.43831864043E+03  0.12508855600E+03 0.  0.
          5    1    3    3  502    0  0.24006976401E+02  0.39196023532E+02 -0.46749911048E+02  0.65693909608E+02  0.41800000000E+01 0.  1.
         -5    1    3    3    0  502 -0.96085652797E+02  0.61073477995E+02 -0.35478062973E+03  0.37262473082E+03  0.41800000000E+01 0.  1.
        -11    1    1    2    0    0  0.15852532860E+02 -0.86224115001E+02 -0.33753891820E+03  0.34873832898E+03  0.00000000000E+00 0. -1.
         11    1    1    2    0    0  0.56226143537E+02 -0.14045386525E+02 -0.10158133200E+03  0.11695049855E+03  0.00000000000E+00 0.  1.
</event>
<event>
 7    1  0.2810263E-009  0.1240111E+03  0.7561462E-02  0.1236623E+00
          1   -1    0    0  501    0  0.00000000000E+00  0.00000000000E+00  0.29780949623E+02  0.29780949623E+02  0.00000000000E+00 0. -1.
         -1   -1    0    0    0  501 -0.00000000000E+00 -0.00000000000E+00 -0.69265476313E+03  0.69265476313E+03  0.00000000000E+00 0.  1.
         25    2    1    2    0    0 -0.65274064266E+00  0.86771064447E+02 -0.46288137928E+03  0.48727518050E+03  0.12509311154E+03 0.  0.
          5    1    3    3  502    0 -0.41556809583E+02  0.79907705708E+02 -0.41073296303E+03  0.42051307848E+03  0.41800000000E+01 0.  1.
         -5    1    3    3    0  502  0.40904068940E+02  0.68633587392E+01 -0.52148416252E+02  0.66762102024E+02  0.41800000000E+01 0.  1.
        -11    1    1    2    0    0 -0.36802605454E+02 -0.27040156742E+02 -0.41556047024E+02  0.61745500962E+02  0.00000000000E+00 0. -1.
         11    1    1    2    0    0  0.37455346096E+02 -0.59730907706E+02 -0.15843638720E+03  0.17341503129E+03  0.00000000000E+00 0.  1.
</event>
<event>
 7    1  0.2810263E-009  0.1089979E+03  0.7561462E-02  0.1262437E+00
         -1   -1    0    0    0  501 -0.00000000000E+00  0.00000000000E+00  0.14965595671E+02  0.14965595671E+02  0.00000000000E+00 0.  1.
          1   -1    0    0  501    0  0.00000000000E+00 -0.00000000000E+00 -0.11586405921E+04  0.11586405921E+04  0.00000000000E+00 0. -1.
         25    2    1    2    0    0 -0.65901739340E+02  0.37139748098E+01 -0.85465862841E+03  0.86628159330E+03  0.12508235255E+03 0.  0.
          5    1    3    3  502    0 -0.99989027098E+02 -0.71289569014E+01 -0.71719540090E+03  0.72417908216E+03  0.41800000000E+01 0. -1.
         -5    1    3    3    0  502  0.34087287759E+02  0.10842931711E+02 -0.13746322751E+03  0.14210251114E+03  0.41800000000E+01 0. -1.
        -11    1    1    2    0    0  0.25291674362E+02  0.22054207595E+02 -0.33846820914E+02  0.47661978040E+02  0.00000000000E+00 0.  1.
         11    1    1    2    0    0  0.40610064978E+02 -0.25768182405E+02 -0.25516954708E+03  0.25966261640E+03  0.00000000000E+00 0. -1.
</event>
<event>
 7    1  0.2810263E-009  0.1056017E+03  0.7561462E-02  0.1268939E+00
          2   -1    0    0  501    0  0.00000000000E+00  0.00000000000E+00  0.56349583672E+03  0.56349583672E+03  0.00000000000E+00 0. -1.
         -2   -1    0    0    0  501 -0.00000000000E+00 -0.00000000000E+00 -0.35097481341E+02  0.35097481341E+02  0.00000000000E+00 0.  1.
         25    2    1    2    0    0  0.79368688816E+02  0.38399411446E+02  0.31561895123E+03  0.35076669145E+03  0.12509214959E+03 0.  0.
          5    1    3    3  502    0  0.78936746273E+02  0.40482710723E+02  0.94812819271E+02  0.12991074966E+03  0.41800000000E+01 0.  1.
         -5    1    3    3    0  502  0.43194254304E+00 -0.20832992768E+01  0.22080613196E+03  0.22085594179E+03  0.41800000000E+01 0.  1.
        -11    1    1    2    0    0  0.38958802383E+01 -0.34105418382E+02  0.25298015379E+02  0.42642080483E+02  0.00000000000E+00 0.  1.
         11    1    1    2    0    0 -0.83264569055E+02 -0.42939930643E+01  0.18748138876E+03  0.20518454612E+03  0.00000000000E+00 0. -1.
</event>
<event>
 7    1  0.2810263E-009  0.6184770E+02  0.7561462E-02  0.1390237E+00
          2   -1    0    0  501    0  0.00000000000E+00  0.00000000000E+00  0.15413986090E+04  0.15413986090E+04  0.00000000000E+00 0.  1.
         -2   -1    0    0    0  501 -0.00000000000E+00 -0.00000000000E+00 -0.14079795911E+02  0.14079795911E+02  0.00000000000E+00 0. -1.
         25    2    1    2    0    0  0.11615178693E+02  0.58469378277E+01  0.13440013975E+04  0.13498725853E+04  0.12508853188E+03 0.  0.
          5    1    3    3  502    0  0.43583126021E+01 -0.11191945398E+02  0.11229636753E+02  0.16965602616E+02  0.41800000000E+01 0. -1.
         -5    1    3    3    0  502  0.72568660907E+01  0.17038883225E+02  0.13327717608E+04  0.13329069827E+04  0.41800000000E+01 0. -1.
        -11    1    1    2    0    0 -0.78670920608E+01 -0.48520743854E+02  0.81996664121E+02  0.95601289995E+02  0.00000000000E+00 0.  1.
         11    1    1    2    0    0 -0.37480866321E+01  0.42673806026E+02  0.10132075146E+03  0.11000452968E+03  0.00000000000E+00 0. -1.
</event>
<event>
 7    1  0.2810263E-009  0.1803689E+03  0.7561462E-02  0.1167446E+00
          2   -1    0    0  501    0  0.00000000000E+00  0.00000000000E+00  0.22139556649E+02  0.22139556649E+02  0.00000000000E+00 0. -1.
         -2   -1    0    0    0  501 -0.00000000000E+00 -0.00000000000E+00 -0.17914310970E+04  0.17914310970E+04  0.00000000000E+00 0.  1.
         25    2    1    2    0    0  0.47529245211E+02  0.15843380161E+03 -0.10306924027E+04  0.10513487417E+04  0.12508816469E+03 0.  0.
          5    1    3    3  502    0 -0.10115313915E+02  0.94171608542E+02 -0.27822776495E+03  0.29393668200E+03  0.41800000000E+01 0.  1.
         -5    1    3    3    0  502  0.57644559126E+02  0.64262193072E+02 -0.75246463778E+03  0.75741205969E+03  0.41800000000E+01 0.  1.
        -11    1    1    2    0    0  0.14918861801E+02 -0.67907189754E+02 -0.18128223981E+03  0.19415769191E+03  0.00000000000E+00 0. -1.
         11    1    1    2    0    0 -0.62448107012E+02 -0.90526611859E+02 -0.55731689786E+03  0.56806422010E+03  0.00000000000E+00 0.  1.
</event>
<event>
 7    1  0.2810263E-009  0.1031100E+03  0.7561462E-02  0.1273889E+00
         -1   -1    0    0    0  501 -0.00000000000E+00  0.00000000000E+00  0.32130751207E+02  0.32130751207E+02  0.00000000000E+00 0.  1.
          1   -1    0    0  501    0  0.00000000000E+00 -0.00000000000E+00 -0.57485491767E+03  0.57485491767E+03  0.00000000000E+00 0. -1.
         25    2    1    2    0    0  0.58416444471E+02 -0.45136497461E+02 -0.22478785234E+03  0.26763300580E+03  0.12509221738E+03 0.  0.
          5    1    3    3  502    0  0.66832160830E+02 -0.32264703103E+02 -0.23646740319E+03  0.24787467389E+03  0.41800000000E+01 0. -1.
         -5    1    3    3    0  502 -0.84157163588E+01 -0.12871794358E+02  0.11679550848E+02  0.19758331909E+02  0.41800000000E+01 0. -1.
        -11    1    1    2    0    0 -0.54620908616E+02 -0.14246741854E+02 -0.11903453863E+03  0.13174078601E+03  0.00000000000E+00 0. -1.
         11    1    1    2    0    0 -0.37955358544E+01  0.59383239315E+02 -0.19890177549E+03  0.20761187707E+03  0.00000000000E+00 0.  1.
</event>
<event>
 7    1  0.2810263E-009  0.8842797E+02  0.7561462E-02  0.1306704E+00
         -2   -1    0    0    0  501 -0.00000000000E+00  0.00000000000E+00  0.19115809708E+02  0.19115809708E+02  0.00000000000E+00 0.  1.
          2   -1    0    0  501    0  0.00000000000E+00 -0.00000000000E+00 -0.85305859710E+03  0.85305859710E+03  0.00000000000E+00 0. -1.
         25    2    1    2    0    0  0.76109392205E+01 -0.38821595440E+02 -0.65976062766E+03  0.67267702593E+03  0.12508098473E+03 0.  0.
          5    1    3    3  502    0 -0.50647463941E+02  0.13429945384E+02 -0.28564965521E+03  0.29044573841E+03  0.41800000000E+01 0.  1.
         -5    1    3    3    0  502  0.58258403161E+02 -0.52251540824E+02 -0.37411097244E+03  0.38223128752E+03  0.41800000000E+01 0.  1.
        -11    1    1    2    0    0  0.44216874563E+01  0.31560412479E+02 -0.18106535446E+03  0.18384850704E+03  0.00000000000E+00 0. -1.
         11    1    1    2    0    0 -0.12032626677E+02  0.72611829605E+01  0.68831947244E+01  0.15648873836E+02  0.00000000000E+00 0.  1.
</event>
<event>
 7    1  0.2810263E-009  0.8770652E+02  0.7561462E-02  0.1308503E+00
          2   -1    0    0  501    0  0.00000000000E+00  0.00000000000E+00  0.11014037831E+03  0.11014037831E+03  0.00000000000E+00 0. -1.
         -2   -1    0    0    0  501 -0.00000000000E+00 -0.00000000000E+00 -0.14415032914E+03  0.14415032914E+03  0.00000000000E+00 0.  1.
         25    2    1    2    0    0 -0.20579724325E+02 -0.42082089528E+02 -0.60532975155E+02  0.14665005165E+03  0.12509024445E+03 0.  0.
          5    1    3    3  502    0  0.12177520729E+02 -0.63612855067E+02  0.10174691331E+02  0.65695388610E+02  0.41800000000E+01 0.  1.
         -5    1    3    3    0  502 -0.32757245054E+02  0.21530765539E+02 -0.70707666485E+02  0.80954663041E+02  0.41800000000E+01 0.  1.
        -11    1    1    2    0    0  0.36055901468E+02  0.13339802459E+02 -0.25565055979E+02  0.46168717196E+02  0.00000000000E+00 0.  1.
         11    1    1    2    0    0 -0.15476177143E+02  0.28742287068E+02  0.52088080311E+02  0.61471938601E+02  0.00000000000E+00 0. -1.
</event>
<event>
 7    1  0.2810263E-009  0.8512789E+02  0.7561462E-02  0.1315098E+00
         -1   -1    0    0    0  501 -0.00000000000E+00  0.00000000000E+00  0.29652037779E+02  0.29652037779E+02  0.00000000000E+00 0.  1.
          1   -1    0    0  501    0  0.00000000000E+00 -0.00000000000E+00 -0.41179309508E+03  0.41179309508E+03  0.00000000000E+00 0. -1.
         25    2    1    2    0    0 -0.10459677124E+02 -0.18104715504E+02 -0.19940992033E+03  0.23632444272E+03  0.12509092825E+03 0.  0.
          5    1    3    3  502    0 -0.55141913867E+02 -0.30235619854E+02 -0.17001852267E+03  0.18132455384E+03  0.41800000000E+01 0.  1.
         -5    1    3    3    0  502  0.44682236743E+02  0.12130904351E+02 -0.29391397661E+02  0.54999888884E+02  0.41800000000E+01 0.  1.
        -11    1    1    2    0    0 -0.35040103921E+01  0.37045034256E+02 -0.17704376977E+03  0.18091188205E+03  0.00000000000E+00 0. -1.
         11    1    1    2    0    0  0.13963687516E+02 -0.18940318752E+02 -0.56873671984E+01  0.24208808090E+02  0.00000000000E+00 0.  1.
</event>
<event>
 7    1  0.2810263E-009  0.1719242E+03  0.7561462E-02  0.1175856E+00
         -3   -1    0    0    0  501 -0.00000000000E+00  0.00000000000E+00  0.37964024959E+03  0.37964024959E+03  0.00000000000E+00 0. -1.
          3   -1    0    0  501    0  0.00000000000E+00 -0.00000000000E+00 -0.10831482521E+03  0.10831482521E+03  0.00000000000E+00 0.  1.
         25    2    1    2    0    0 -0.74139178633E+02 -0.13796908934E+03  0.22118644507E+03  0.29850179885E+03  0.12509113881E+03 0.  0.
          5    1    3    3  502    0 -0.66741918459E+02 -0.33421897256E+02  0.16114300087E+03  0.17764021511E+03  0.41800000000E+01 0.  1.
         -5    1    3    3    0  502 -0.73972601738E+01 -0.10454719209E+03  0.60043444205E+02  0.12086158374E+03  0.41800000000E+01 0.  1.
        -11    1    1    2    0    0  0.75438970222E+02  0.95470263440E+02 -0.26040896011E+01  0.12170616547E+03  0.00000000000E+00 0.  1.
         11    1    1    2    0    0 -0.12997915891E+01  0.42498825904E+02  0.52743068908E+02  0.67747110486E+02  0.00000000000E+00 0. -1.
</event>
<event>
 7    1  0.2810263E-009  0.1057365E+03  0.7561462E-02  0.1268675E+00
          4   -1    0    0  501    0  0.00000000000E+00  0.00000000000E+00  0.11931382256E+02  0.11931382256E+02  0.00000000000E+00 0. -1.
         -4   -1    0    0    0  501 -0.00000000000E+00 -0.00000000000E+00 -0.15553825001E+04  0.15553825001E+04  0.00000000000E+00 0.  1.
         25    2    1    2    0    0  0.53266433666E+02 -0.10121548115E+02 -0.12023843375E+04  0.12100899111E+04  0.12509891754E+03 0.  0.
          5    1    3    3  502    0 -0.77522103766E+01 -0.53818462866E+02 -0.33025718908E+03  0.33472945352E+03  0.41800000000E+01 0.  1.
         -5    1    3    3    0  502  0.61018644042E+02  0.43696914751E+02 -0.87212714844E+03  0.87536045759E+03  0.41800000000E+01 0.  1.
        -11    1    1    2    0    0 -0.17426923989E+01 -0.21333477477E+02 -0.16326203154E+02  0.26920236765E+02  0.00000000000E+00 0. -1.
         11    1    1    2    0    0 -0.51523741267E+02  0.31455025593E+02 -0.32474057712E+03  0.33030373443E+03  0.00000000000E+00 0.  1.
</event>
<event>
 7    1  0.2810263E-009  0.8867867E+02  0.7561462E-02  0.1306083E+00
         -2   -1    0    0    0  501 -0.00000000000E+00  0.00000000000E+00  0.27097996549E+02  0.27097996549E+02  0.00000000000E+00 0.  1.
          2   -1    0    0  501    0  0.00000000000E+00 -0.00000000000E+00 -0.68842740804E+03  0.68842740804E+03  0.00000000000E+00 0. -1.
         25    2    1    2    0    0 -0.49380801260E+02  0.58182688589E+02 -0.34977291568E+03  0.37922500283E+03  0.12508725532E+03 0.  0.
          5    1    3    3  502    0 -0.12745728466E+02  0.28073159371E+02 -0.32322369746E+03  0.32471770335E+03  0.41800000000E+01 0.  1.
         -5    1    3    3    0  502 -0.36635072793E+02  0.30109529218E+02 -0.26549218226E+02  0.54507299481E+02  0.41800000000E+01 0.  1.
        -11    1    1    2    0    0  0.21596702714E+02  0.10891065412E+02 -0.10841820587E+02  0.26506186968E+02  0.00000000000E+00 0.  1.
         11    1    1    2    0    0  0.27784098546E+02 -0.69073754000E+02 -0.30071467522E+03  0.30979421479E+03  0.00000000000E+00 0. -1.
</event>
<event>
 7    1  0.2810263E-009  0.2709320E+03  0.7561462E-02  0.1100747E+00
         -3   -1    0    0    0  501 -0.00000000000E+00  0.00000000000E+00  0.48424473486E+03  0.48424473486E+03  0.00000000000E+00 0.  1.
          3   -1    0    0  501    0  0.00000000000E+00 -0.00000000000E+00 -0.17482919453E+03  0.17482919453E+03  0.00000000000E+00 0. -1.
         25    2    1    2    0    0  0.75966278828E+02 -0.25344121179E+03  0.21978180320E+03  0.36599830995E+03  0.12508956197E+03 0.  0.
          5    1    3    3  502    0  0.78456019766E+02 -0.22299115220E+03  0.23345762111E+03  0.33226545750E+03  0.41800000000E+01 0.  1.
         -5    1    3    3    0  502 -0.24897409382E+01 -0.30450059588E+02 -0.13675817903E+02  0.33732852446E+02  0.41800000000E+01 0.  1.
        -11    1    1    2    0    0 -0.60568035803E+02  0.79324174653E+02  0.58020001200E+02  0.11544319895E+03  0.00000000000E+00 0.  1.
         11    1    1    2    0    0 -0.15398243025E+02  0.17411703713E+03  0.31613735934E+02  0.17763242049E+03  0.00000000000E+00 0. -1.
</event>
<event>
 7    1  0.2810263E-009  0.9733749E+02  0.7561462E-02  0.1285997E+00
         -1   -1    0    0    0  501 -0.00000000000E+00  0.00000000000E+00  0.15533713833E+02  0.15533713833E+02  0.00000000000E+00 0.  1.
          1   -1    0    0  501    0  0.00000000000E+00 -0.00000000000E+00 -0.81116257577E+03  0.81116257577E+03  0.00000000000E+00 0. -1.
         25    2    1    2    0    0  0.10817782857E+02 -0.59548749733E+01 -0.51548947514E+03  0.53059350210E+03  0.12509028950E+03 0.  0.
          5    1    3    3  502    0  0.23353478230E+02 -0.51723913139E+02 -0.42044564351E+03  0.42427910588E+03  0.41800000000E+01 0.  1.
         -5    1    3    3    0  502 -0.12535695373E+02  0.45769038166E+02 -0.95043831627E+02  0.10631439622E+03  0.41800000000E+01 0.  1.
        -11    1    1    2    0    0 -0.50283855845E+02  0.61977065063E+01 -0.20570674956E+03  0.21185406425E+03  0.00000000000E+00 0. -1.
         11    1    1    2    0    0  0.39466072988E+02 -0.24283153296E+00 -0.74432637236E+02  0.84248723256E+02  0.00000000000E+00 0.  1.
</event>
<event>
 7    1  0.2810263E-009  0.1071872E+03  0.7561462E-02  0.1265869E+00
          3   -1    0    0  501    0  0.00000000000E+00  0.00000000000E+00  0.37159929664E+02  0.37159929664E+02  0.00000000000E+00 0. -1.
         -3   -1    0    0    0  501 -0.00000000000E+00 -0.00000000000E+00 -0.36000233332E+03  0.36000233332E+03  0.00000000000E+00 0.  1.
         25    2    1    2    0    0 -0.12201738407E+02 -0.33719001257E+02 -0.21231495455E+03  0.24901399773E+03  0.12507788644E+03 0.  0.
          5    1    3    3  502    0 -0.62046025664E+02 -0.47475082139E+02 -0.12849528570E+03  0.15043970079E+03  0.41800000000E+01 0.  1.
         -5    1    3    3    0  502  0.49844287257E+02  0.13756080881E+02 -0.83819668844E+02  0.98574296947E+02  0.41800000000E+01 0.  1.
        -11    1    1    2    0    0  0.11737759869E+02 -0.23906991771E+02 -0.77002485645E+02  0.81478230576E+02  0.00000000000E+00 0.  1.
         11    1    1    2    0    0  0.46397853759E+00  0.57625993029E+02 -0.33524963467E+02  0.66670034679E+02  0.00000000000E+00 0. -1.
</event>
<event>
 7    1  0.2810263E-009  0.1961348E+03  0.7561462E-02  0.1153042E+00
         -1   -1    0    0    0  501 -0.00000000000E+00  0.00000000000E+00  0.20789411268E+03  0.20789411268E+03  0.00000000000E+00 0.  1.
          1   -1    0    0  501    0  0.00000000000E+00 -0.00000000000E+00 -0.24499114369E+03  0.24499114369E+03  0.00000000000E+00 0. -1.
         25    2    1    2    0    0  0.58686629745E+02 -0.16889095078E+03  0.66148179006E+02  0.22801860330E+03  0.12509447669E+03 0.  0.
          5    1    3    3  502    0  0.75841497812E+02 -0.65207267321E+02 -0.62998173328E+01  0.10030493807E+03  0.41800000000E+01 0.  1.
         -5    1    3    3    0  502 -0.17154868067E+02 -0.10368368346E+03  0.72447996339E+02  0.12771366523E+03  0.41800000000E+01 0.  1.
        -11    1    1    2    0    0 -0.18370868114E+01  0.88533957468E+02 -0.97161284032E+01  0.89084452426E+02  0.00000000000E+00 0.  1.
         11    1    1    2    0    0 -0.56849542933E+02  0.80356993310E+02 -0.93529081618E+02  0.13578220065E+03  0.00000000000E+00 0. -1.
</event>
<event>
 7    1  0.2810263E-009  0.1097339E+03  0.7561462E-02  0.1261063E+00
         -1   -1    0    0    0  501 -0.00000000000E+00  0.00000000000E+00  0.22136397825E+02  0.22136397825E+02  0.00000000000E+00 0.  1.
          1   -1    0    0  501    0  0.00000000000E+00 -0.00000000000E+00 -0.86067897234E+03  0.86067897234E+03  0.00000000000E+00 0. -1.
         25    2    1    2    0    0 -0.66811418368E+02 -0.46603850504E+02 -0.54171286102E+03  0.56190435858E+03  0.12509196570E+03 0.  0.
          5    1    3    3  502    0 -0.53549201352E+02 -0.14460785532E+01 -0.72094402377E+02  0.89914867306E+02  0.41800000000E+01 0. -1.
         -5    1    3    3    0  502 -0.13262217016E+02 -0.45157771951E+02 -0.46961845865E+03  0.47198949127E+03  0.41800000000E+01 0. -1.
        -11    1    1    2    0    0 -0.21058079764E+02  0.84338856357E+01 -0.31517628612E+02  0.38832126694E+02  0.00000000000E+00 0.  1.
         11    1    1    2    0    0  0.87869498132E+02  0.38169964869E+02 -0.26531208488E+03  0.28207888490E+03  0.00000000000E+00 0. -1.
</event>
<event>
 7    1  0.2810263E-009  0.8503843E+02  0.7561462E-02  0.1315332E+00
          1   -1    0    0  501    0  0.00000000000E+00  0.00000000000E+00  0.55754216235E+03  0.55754216235E+03  0.00000000000E+00 0. -1.
         -1   -1    0    0    0  501 -0.00000000000E+00 -0.00000000000E+00 -0.28746477344E+02  0.28746477344E+02  0.00000000000E+00 0.  1.
         25    2    1    2    0    0 -0.44714987405E+01  0.39823437185E+02  0.39778031083E+03  0.41890752669E+03  0.12509372399E+03 0.  0.
          5    1    3    3  502    0 -0.60507240812E+02 -0.58195369053E+00  0.21748614092E+03  0.22578564780E+03  0.41800000000E+01 0. -1.
         -5    1    3    3    0  502  0.56035742072E+02  0.40405390875E+02  0.18029416991E+03  0.19312187888E+03  0.41800000000E+01 0. -1.
        -11    1    1    2    0    0  0.17326341357E+00 -0.16203700229E+02 -0.13373178704E+02  0.21010279150E+02  0.00000000000E+00 0.  1.
         11    1    1    2    0    0  0.42982353270E+01 -0.23619736956E+02  0.14438855288E+03  0.14637083386E+03  0.00000000000E+00 0. -1.
</event>
<event>
 7    1  0.3172291E-009  0.1216186E+03  0.7561462E-02  0.1240450E+00
          1   -1    0    0  501    0  0.00000000000E+00  0.00000000000E+00  0.13565457798E+04  0.13565457798E+04  0.00000000000E+00 0. -1.
         -1   -1    0    0    0  501 -0.00000000000E+00 -0.00000000000E+00 -0.14946629339E+02  0.14946629339E+02  0.00000000000E+00 0.  1.
         25    2    1    2    0    0 -0.54946922912E+02  0.61517056447E+02  0.92312598369E+03  0.93520804866E+03  0.12509596293E+03 0.  0.
          5    1    3    3  502    0 -0.78236633877E+02  0.55491934638E+02  0.39436715157E+03  0.40588575773E+03  0.41800000000E+01 0. -1.
         -5    1    3    3    0  502  0.23289710964E+02  0.60251218090E+01  0.52875883212E+03  0.52932229093E+03  0.41800000000E+01 0. -1.
        -11    1    1    2    0    0  0.65058263662E+02 -0.48388869595E+01  0.20116853657E+03  0.21148232220E+03  0.00000000000E+00 0.  1.
         11    1    1    2    0    0 -0.10111340750E+02 -0.56678169487E+02  0.21730463023E+03  0.22480203831E+03  0.00000000000E+00 0. -1.
</event>
<event>
 7    1  0.2810263E-009  0.1010602E+03  0.7561462E-02  0.1278082E+00
         -2   -1    0    0    0  501 -0.00000000000E+00  0.00000000000E+00  0.16692309570E+03  0.16692309570E+03  0.00000000000E+00 0. -1.
          2   -1    0    0  501    0  0.00000000000E+00 -0.00000000000E+00 -0.94132608963E+02  0.94132608963E+02  0.00000000000E+00 0.  1.
         25    2    1    2    0    0  0.31758827616E+02  0.73534821152E+01  0.90335741112E+02  0.15770249818E+03  0.12508730942E+03 0.  0.
          5    1    3    3  502    0  0.64594234778E+02 -0.17643607420E+02  0.94632077163E+02  0.11600178653E+03  0.41800000000E+01 0. -1.
         -5    1    3    3    0  502 -0.32835407162E+02  0.24997089536E+02 -0.42963360513E+01  0.41700711651E+02  0.41800000000E+01 0. -1.
        -11    1    1    2    0    0 -0.23384032108E+01 -0.45397686596E+02  0.11864557851E+02  0.46980696151E+02  0.00000000000E+00 0. -1.
         11    1    1    2    0    0 -0.29420424405E+02  0.38044204481E+02 -0.29409812222E+02  0.56372510337E+02  0.00000000000E+00 0.  1.
</event>
<event>
 7    1  0.2810263E-009  0.2058203E+03  0.7561462E-02  0.1144919E+00
         -2   -1    0    0    0  501 -0.00000000000E+00  0.00000000000E+00  0.11123285448E+03  0.11123285448E+03  0.00000000000E+00 0.  1.
          2   -1    0    0  501    0  0.00000000000E+00 -0.00000000000E+00 -0.40179989152E+03  0.40179989152E+03  0.00000000000E+00 0. -1.
         25    2    1    2    0    0 -0.83290889900E+02 -0.15366216114E+03 -0.20893308515E+03  0.29974754618E+03  0.12508447251E+03 0.  0.
          5    1    3    3  502    0 -0.16769399810E+02 -0.14656610236E+03 -0.13597329263E+03  0.20067148238E+03  0.41800000000E+01 0.  1.
         -5    1    3    3    0  502 -0.66521490090E+02 -0.70960587814E+01 -0.72959792521E+02  0.99076063803E+02  0.41800000000E+01 0.  1.
        -11    1    1    2    0    0  0.10224178976E+03  0.11437921786E+03 -0.64641546948E+02  0.16647678109E+03  0.00000000000E+00 0.  1.
         11    1    1    2    0    0 -0.18950899857E+02  0.39282943282E+02 -0.16992404940E+02  0.46808418730E+02  0.00000000000E+00 0. -1.
</event>
<event>
 7    1  0.2810263E-009  0.1281576E+03  0.7561462E-02  0.1230215E+00
          1   -1    0    0  501    0  0.00000000000E+00  0.00000000000E+00  0.72181191338E+02  0.72181191338E+02  0.00000000000E+00 0. -1.
         -1   -1    0    0    0  501 -0.00000000000E+00 -0.00000000000E+00 -0.28261912047E+03  0.28261912047E+03  0.00000000000E+00 0.  1.
         25    2    1    2    0    0  0.63564242998E+02  0.44784664363E+02 -0.59987553101E+02  0.15903277488E+03  0.12508732073E+03 0.  0.
          5    1    3    3  502    0 -0.29208292690E+00  0.75121384564E+02 -0.20646595572E+02  0.78019625992E+02  0.41800000000E+01 0.  1.
         -5    1    3    3    0  502  0.63856325924E+02 -0.30336720201E+02 -0.39340957529E+02  0.81013148886E+02  0.41800000000E+01 0.  1.
        -11    1    1    2    0    0 -0.52037844449E+01 -0.51273861000E+02 -0.11780011853E+03  0.12858054332E+03  0.00000000000E+00 0.  1.
         11    1    1    2    0    0 -0.58360458553E+02  0.64891966374E+01 -0.32650257499E+02  0.67186993609E+02  0.00000000000E+00 0. -1.
</event>
<event>
 7    1  0.2810263E-009  0.9785127E+02  0.7561462E-02  0.1284880E+00
         -1   -1    0    0    0  501 -0.00000000000E+00  0.00000000000E+00  0.24145494026E+02  0.24145494026E+02  0.00000000000E+00 0.  1.
          1   -1    0    0  501    0  0.00000000000E+00 -0.00000000000E+00 -0.73775454954E+03  0.73775454954E+03  0.00000000000E+00 0. -1.
         25    2    1    2    0    0 -0.45106006561E+02 -0.21147125529E+02 -0.55495004505E+03  0.57105266247E+03  0.12509931284E+03 0.  0.
          5    1    3    3  502    0 -0.35764402874E+02  0.28024664062E+02 -0.47114719591E+03  0.47335148349E+03  0.41800000000E+01 0.  1.
         -5    1    3    3    0  502 -0.93416036871E+01 -0.49171789591E+02 -0.83802849141E+02  0.97701178986E+02  0.41800000000E+01 0.  1.
        -11    1    1    2    0    0  0.41350077142E+02 -0.28397290415E+02 -0.47473771136E+02  0.69065142644E+02  0.00000000000E+00 0. -1.
         11    1    1    2    0    0  0.37559294190E+01  0.49544415944E+02 -0.11118523933E+03  0.12178223845E+03  0.00000000000E+00 0.  1.
</event>
<event>
 7    1  0.2810263E-009  0.1298737E+03  0.7561462E-02  0.1227643E+00
          1   -1    0    0  501    0  0.00000000000E+00  0.00000000000E+00  0.26557908460E+03  0.26557908460E+03  0.00000000000E+00 0. -1.
         -1   -1    0    0    0  501 -0.00000000000E+00 -0.00000000000E+00 -0.12621783355E+03  0.12621783355E+03  0.00000000000E+00 0.  1.
         25    2    1    2    0    0 -0.15144243896E+02 -0.12060466714E+03 -0.12216932061E+02  0.17484709155E+03  0.12508964041E+03 0.  0.
          5    1    3    3  502    0 -0.30912248540E+02 -0.25900294026E+02 -0.56087826506E+02  0.69207723721E+02  0.41800000000E+01 0.  1.
         -5    1    3    3    0  502  0.15768004645E+02 -0.94704373111E+02  0.43870894446E+02  0.10563936783E+03  0.41800000000E+01 0.  1.
        -11    1    1    2    0    0  0.18841622700E+02  0.74302847448E+02  0.22682246607E+02  0.79940003728E+02  0.00000000000E+00 0.  1.
         11    1    1    2    0    0 -0.36973788041E+01  0.46301819688E+02  0.12889593650E+03  0.13700982287E+03  0.00000000000E+00 0. -1.
</event>
<event>
 7    1  0.2810263E-009  0.1010456E+03  0.7561462E-02  0.1278112E+00
          2   -1    0    0  501    0  0.00000000000E+00  0.00000000000E+00  0.27802402780E+03  0.27802402780E+03  0.00000000000E+00 0. -1.
         -2   -1    0    0    0  501 -0.00000000000E+00 -0.00000000000E+00 -0.52874541105E+02  0.52874541105E+02  0.00000000000E+00 0.  1.
         25    2    1    2    0    0  0.63453334565E+01 -0.51829678096E+02  0.11543209296E+03  0.17803702966E+03  0.12508411992E+03 0.  0.
          5    1    3    3  502    0 -0.54741527964E+02 -0.46332827294E+02  0.78092420569E+02  0.10610968061E+03  0.41800000000E+01 0. -1.
         -5    1    3    3    0  502  0.61086861420E+02 -0.54968508024E+01  0.37339672396E+02  0.71927349051E+02  0.41800000000E+01 0. -1.
        -11    1    1    2    0    0  0.18580057542E+02  0.31673180610E+02 -0.18629382357E+01  0.36767913282E+02  0.00000000000E+00 0.  1.
         11    1    1    2    0    0 -0.24925390999E+02  0.20156497486E+02  0.11158033196E+03  0.11609362596E+03  0.00000000000E+00 0. -1.
</event>
<event>
 7    1  0.2810263E-009  0.8521588E+02  0.7561462E-02  0.1314869E+00
          3   -1    0    0  501    0  0.00000000000E+00  0.00000000000E+00  0.19511122815E+03  0.19511122815E+03  0.00000000000E+00 0. -1.
         -3   -1    0    0    0  501 -0.00000000000E+00 -0.00000000000E+00 -0.59930140091E+02  0.59930140091E+02  0.00000000000E+00 0.  1.
         25    2    1    2    0    0 -0.18742902067E+01  0.94869938628E+01  0.65198214403E+02  0.14139763269E+03  0.12509583268E+03 0.  0.
          5    1    3    3  502    0  0.32858658487E+02 -0.19717771099E+02  0.83749281869E+02  0.92194883526E+02  0.41800000000E+01 0.  1.
         -5    1    3    3    0  502 -0.34732948694E+02  0.29204764961E+02 -0.18551067467E+02  0.49202749167E+02  0.41800000000E+01 0.  1.
        -11    1    1    2    0    0 -0.39516299184E+02  0.97018103387E+01  0.18038426870E+02  0.44508963917E+02  0.00000000000E+00 0.  1.
         11    1    1    2    0    0  0.41390589390E+02 -0.19188804201E+02  0.51944446789E+02  0.69134771635E+02  0.00000000000E+00 0. -1.
</event>
<event>
 7    1  0.2810263E-009  0.1296678E+03  0.7561462E-02  0.1227949E+00
         -1   -1    0    0    0  501 -0.00000000000E+00  0.00000000000E+00  0.25636622266E+02  0.25636622266E+02  0.00000000000E+00 0.  1.
          1   -1    0    0  501    0  0.00000000000E+00 -0.00000000000E+00 -0.76916291826E+03  0.76916291826E+03  0.00000000000E+00 0. -1.
         25    2    1    2    0    0  0.87809181752E+02  0.13160906697E+02 -0.38430596196E+03  0.41379020505E+03  0.12509036548E+03 0.  0.
          5    1    3    3  502    0  0.38241756776E+02  0.56032053178E+02 -0.29623473857E+03  0.30393176155E+03  0.41800000000E+01 0.  1.
         -5    1    3    3    0  502  0.49567424976E+02 -0.42871146481E+02 -0.88071223389E+02  0.10985844350E+03  0.41800000000E+01 0.  1.
        -11    1    1    2    0    0 -0.57734321490E+02  0.36022502699E+02 -0.16708153970E+03  0.18040818576E+03  0.00000000000E+00 0.  1.
         11    1    1    2    0    0 -0.30074860262E+02 -0.49183409396E+02 -0.19213879433E+03  0.20060114971E+03  0.00000000000E+00 0. -1.
</event>
<event>
 7    1  0.2810263E-009  0.1014507E+03  0.7561462E-02  0.1277274E+00
         -2   -1    0    0    0  501 -0.00000000000E+00  0.00000000000E+00  0.18305311176E+02  0.18305311176E+02  0.00000000000E+00 0.  1.
          2   -1    0    0  501    0  0.00000000000E+00 -0.00000000000E+00 -0.11915915576E+04  0.11915915576E+04  0.00000000000E+00 0. -1.
         25    2    1    2    0    0 -0.22445014605E+02 -0.72576178139E+01 -0.10391932458E+04  0.10469609008E+04  0.12509226255E+03 0.  0.
          5    1    3    3  502    0 -0.40565075231E+02 -0.49826030466E+02 -0.83820652196E+03  0.84067580226E+03  0.41800000000E+01 0. -1.
         -5    1    3    3    0  502  0.18120060626E+02  0.42568412652E+02 -0.20098672380E+03  0.20628509858E+03  0.41800000000E+01 0. -1.
        -11    1    1    2    0    0  0.28132488231E+02  0.45447930665E+02 -0.69413771046E+02  0.87608349526E+02  0.00000000000E+00 0. -1.
         11    1    1    2    0    0 -0.56874736258E+01 -0.38190312851E+02 -0.64679229619E+02  0.75327618415E+02  0.00000000000E+00 0.  1.
</event>
<event>
 7    1  0.2810263E-009  0.1032204E+03  0.7561462E-02  0.1273666E+00
         -1   -1    0    0    0  501 -0.00000000000E+00  0.00000000000E+00  0.58830687986E+02  0.58830687986E+02  0.00000000000E+00 0.  1.
          1   -1    0    0  501    0  0.00000000000E+00 -0.00000000000E+00 -0.29502015702E+03  0.29502015702E+03  0.00000000000E+00 0. -1.
         25    2    1    2    0    0  0.67885694929E+02 -0.16178563550E+02 -0.16419453368E+03  0.21789470665E+03  0.12509214524E+03 0.  0.
          5    1    3    3  502    0  0.28650264137E+02 -0.48200766930E+02 -0.15675752802E+03  0.16653692251E+03  0.41800000000E+01 0. -1.
         -5    1    3    3    0  502  0.39235430792E+02  0.32022203380E+02 -0.74370056609E+01  0.51357784142E+02  0.41800000000E+01 0. -1.
        -11    1    1    2    0    0 -0.49043049939E+02 -0.24310136412E+02 -0.73053195626E+02  0.91285118562E+02  0.00000000000E+00 0. -1.
         11    1    1    2    0    0 -0.18842644989E+02  0.40488699961E+02  0.10582602717E+01  0.44671019795E+02  0.00000000000E+00 0.  1.
</event>
<event>
 7    1  0.2810263E-009  0.7522092E+02  0.7561462E-02  0.1343188E+00
         -1   -1    0    0    0  501 -0.00000000000E+00  0.00000000000E+00  0.74194995952E+03  0.74194995952E+03  0.00000000000E+00 0.  1.
          1   -1    0    0  501    0  0.00000000000E+00 -0.00000000000E+00 -0.20745406568E+02  0.20745406568E+02  0.00000000000E+00 0. -1.
         25    2    1    2    0    0 -0.22513537353E+02 -0.17554259071E+02  0.56247379783E+03  0.57692288966E+03  0.12509290944E+03 0.  0.
          5    1    3    3  502    0  0.33860271057E+02  0.63600431760E+01  0.50456024967E+02  0.61239292621E+02  0.41800000000E+01 0.  1.
         -5    1    3    3    0  502 -0.56373808410E+02 -0.23914302247E+02  0.51201777286E+03  0.51568359703E+03  0.41800000000E+01 0.  1.
        -11    1    1    2    0    0  0.12902688730E+02 -0.15365212647E+02 -0.31404762205E+01  0.20308415178E+02  0.00000000000E+00 0. -1.
         11    1    1    2    0    0  0.96108486233E+01  0.32919471718E+02  0.16187123134E+03  0.16546406125E+03  0.00000000000E+00 0.  1.
</event>
<event>
 7    1  0.2810263E-009  0.2971772E+03  0.7561462E-02  0.1086660E+00
          2   -1    0    0  501    0  0.00000000000E+00  0.00000000000E+00  0.17839663468E+04  0.17839663468E+04  0.00000000000E+00 0. -1.
         -2   -1    0    0    0  501 -0.00000000000E+00 -0.00000000000E+00 -0.55668404314E+02  0.55668404314E+02  0.00000000000E+00 0.  1.
         25    2    1    2    0    0  0.21696558207E+03  0.18081217570E+03  0.11364893415E+04  0.11777196636E+04  0.12509386835E+03 0.  0.
          5    1    3    3  502    0  0.36546353014E+02  0.10795371139E+03  0.44184849706E+03  0.45633015074E+03  0.41800000000E+01 0. -1.
         -5    1    3    3    0  502  0.18041922906E+03  0.72858464307E+02  0.69464084446E+03  0.72138951284E+03  0.41800000000E+01 0. -1.
        -11    1    1    2    0    0 -0.12783399325E+03 -0.13326625508E+03  0.29149755686E+03  0.34506847180E+03  0.00000000000E+00 0.  1.
         11    1    1    2    0    0 -0.89131588822E+02 -0.47545920613E+02  0.30031104407E+03  0.31684661570E+03  0.00000000000E+00 0. -1.
</event>
<event>
 7    1  0.2810263E-009  0.1317501E+03  0.7561462E-02  0.1224882E+00
          1   -1    0    0  501    0  0.00000000000E+00  0.00000000000E+00  0.57339673962E+03  0.57339673962E+03  0.00000000000E+00 0. -1.
         -1   -1    0    0    0  501 -0.00000000000E+00 -0.00000000000E+00 -0.34803363983E+02  0.34803363983E+02  0.00000000000E+00 0.  1.
         25    2    1    2    0    0  0.56772620599E+02 -0.52026841855E+02  0.19209122563E+03  0.24181500111E+03  0.12508210533E+03 0.  0.
          5    1    3    3  502    0 -0.44813942589E+01  0.37199882738E+02  0.38595383828E+02  0.53953593236E+02  0.41800000000E+01 0.  1.
         -5    1    3    3    0  502  0.61254014858E+02 -0.89226724592E+02  0.15349584180E+03  0.18786140787E+03  0.41800000000E+01 0.  1.
        -11    1    1    2    0    0 -0.47338936054E+02  0.77227081340E+02  0.23966371431E+03  0.25621025139E+03  0.00000000000E+00 0.  1.
         11    1    1    2    0    0 -0.94336845447E+01 -0.25200239485E+02  0.10683843570E+03  0.11017485111E+03  0.00000000000E+00 0. -1.
</event>
<event>
 7    1  0.2810263E-009  0.1184689E+03  0.7561462E-02  0.1245644E+00
         -1   -1    0    0    0  501 -0.00000000000E+00  0.00000000000E+00  0.95331913368E+02  0.95331913368E+02  0.00000000000E+00 0.  1.
          1   -1    0    0  501    0  0.00000000000E+00 -0.00000000000E+00 -0.24066797517E+03  0.24066797517E+03  0.00000000000E+00 0. -1.
         25    2    1    2    0    0 -0.39240558858E+02 -0.90467670434E+02 -0.36528278992E+02  0.16341908811E+03  0.12508901766E+03 0.  0.
          5    1    3    3  502    0 -0.20538371615E+02  0.91551107411E+01 -0.55665118984E+02  0.60180716453E+02  0.41800000000E+01 0. -1.
         -5    1    3    3    0  502 -0.18702187243E+02 -0.99622781175E+02  0.19136839993E+02  0.10323837165E+03  0.41800000000E+01 0. -1.
        -11    1    1    2    0    0  0.30726442964E+02  0.97086559497E+02 -0.11976586810E+03  0.15720616239E+03  0.00000000000E+00 0. -1.
         11    1    1    2    0    0  0.85141158936E+01 -0.66188890636E+01  0.10958085284E+02  0.15374638044E+02  0.00000000000E+00 0.  1.
</event>
<event>
 7    1  0.2810263E-009  0.1005833E+03  0.7561462E-02  0.1279074E+00
         -3   -1    0    0    0  501 -0.00000000000E+00  0.00000000000E+00  0.58314538469E+02  0.58314538469E+02  0.00000000000E+00 0.  1.
          3   -1    0    0  501    0  0.00000000000E+00 -0.00000000000E+00 -0.22960531009E+03  0.22960531009E+03  0.00000000000E+00 0. -1.
         25    2    1    2    0    0  0.12853902029E+02  0.32755505604E+02 -0.70802501799E+02  0.14797906781E+03  0.12508662720E+03 0.  0.
          5    1    3    3  502    0  0.44728039599E+02  0.68462485346E+02 -0.43717788318E+02  0.92824710296E+02  0.41800000000E+01 0.  1.
         -5    1    3    3    0  502 -0.31874137570E+02 -0.35706979742E+02 -0.27084713480E+02  0.55154357511E+02  0.41800000000E+01 0.  1.
        -11    1    1    2    0    0  0.25117322006E+02 -0.15609516128E+02  0.16636934215E+01  0.29619330416E+02  0.00000000000E+00 0.  1.
         11    1    1    2    0    0 -0.37971224034E+02 -0.17145989476E+02 -0.10215196324E+03  0.11032145033E+03  0.00000000000E+00 0. -1.
</event>
<event>
 7    1  0.2810263E-009  0.3240507E+03  0.7561462E-02  0.1073800E+00
          1   -1    0    0  501    0  0.00000000000E+00  0.00000000000E+00  0.11756455337E+04  0.11756455337E+04  0.00000000000E+00 0. -1.
         -1   -1    0    0    0  501 -0.00000000000E+00 -0.00000000000E+00 -0.11180395312E+03  0.11180395312E+03  0.00000000000E+00 0.  1.
         25    2    1    2    0    0 -0.14146125879E+03  0.28449975190E+03  0.29683636127E+03  0.45244959481E+03  0.12508962346E+03 0.  0.
          5    1    3    3  502    0 -0.62251814867E+02  0.89633174831E+02  0.18332763156E+03  0.21339139481E+03  0.41800000000E+01 0. -1.
         -5    1    3    3    0  502 -0.79209443919E+02  0.19486657707E+03  0.11350872971E+03  0.23905820000E+03  0.41800000000E+01 0. -1.
        -11    1    1    2    0    0  0.12888067203E+03 -0.17010314551E+03  0.53570792242E+03  0.57665265618E+03  0.00000000000E+00 0. -1.
         11    1    1    2    0    0  0.12580586753E+02 -0.11439660639E+03  0.23129729685E+03  0.25834723581E+03  0.00000000000E+00 0.  1.
</event>
<event>
 7    1  0.2810263E-009  0.1236211E+03  0.7561462E-02  0.1237240E+00
         -1   -1    0    0    0  501 -0.00000000000E+00  0.00000000000E+00  0.78476025827E+03  0.78476025827E+03  0.00000000000E+00 0.  1.
          1   -1    0    0  501    0  0.00000000000E+00 -0.00000000000E+00 -0.34604272588E+02  0.34604272588E+02  0.00000000000E+00 0. -1.
         25    2    1    2    0    0 -0.55428823170E+02 -0.94122507180E+02  0.55003190351E+03  0.57455531773E+03  0.12508923797E+03 0.  0.
          5    1    3    3  502    0 -0.49179391052E+02 -0.29477109763E+02  0.45936672900E+03  0.46295008005E+03  0.41800000000E+01 0. -1.
         -5    1    3    3    0  502 -0.62494321184E+01 -0.64645397417E+02  0.90665174511E+02  0.11160523768E+03  0.41800000000E+01 0. -1.
        -11    1    1    2    0    0 -0.39943961959E+01  0.51230751184E+02  0.14280818132E+03  0.15177193983E+03  0.00000000000E+00 0.  1.
         11    1    1    2    0    0  0.59423219366E+02  0.42891755996E+02  0.57315900853E+02  0.93037273299E+02  0.00000000000E+00 0. -1.
</event>
<event>
 7    1  0.2810263E-009  0.1541810E+03  0.7561462E-02  0.1195428E+00
          2   -1    0    0  501    0  0.00000000000E+00  0.00000000000E+00  0.37547835426E+03  0.37547835426E+03  0.00000000000E+00 0. -1.
         -2   -1    0    0    0  501 -0.00000000000E+00 -0.00000000000E+00 -0.11996856885E+03  0.11996856885E+03  0.00000000000E+00 0.  1.
         25    2    1    2    0    0 -0.70862295637E+01 -0.12461629101E+03  0.28786639015E+03  0.33777529633E+03  0.12508260312E+03 0.  0.
          5    1    3    3  502    0  0.41976135808E+02 -0.67528669029E+02  0.65900780411E+02  0.10335619177E+03  0.41800000000E+01 0.  1.
         -5    1    3    3    0  502 -0.49062365371E+02 -0.57087621978E+02  0.22196560974E+03  0.23441910456E+03  0.41800000000E+01 0.  1.
        -11    1    1    2    0    0  0.43032590805E+02  0.10244696850E+03 -0.31232270177E+02  0.11542374074E+03  0.00000000000E+00 0.  1.
         11    1    1    2    0    0 -0.35946361241E+02  0.22169322508E+02 -0.11243345628E+01  0.42247886044E+02  0.00000000000E+00 0. -1.
</event>
<event>
 7    1  0.2810263E-009  0.1126076E+03  0.7561462E-02  0.1255816E+00
          2   -1    0    0  501    0  0.00000000000E+00  0.00000000000E+00  0.16193741385E+04  0.16193741385E+04  0.00000000000E+00 0.  1.
         -2   -1    0    0    0  501 -0.00000000000E+00 -0.00000000000E+00 -0.17641261562E+02  0.17641261562E+02  0.00000000000E+00 0. -1.
         25    2    1    2    0    0  0.20564956890E+02 -0.54757975049E+02  0.14199944000E+04  0.14266932931E+04  0.12509317822E+03 0.  0.
          5    1    3    3  502    0  0.55293681255E+02  0.16878642452E+02  0.54428641280E+03  0.54736409392E+03  0.41800000000E+01 0.  1.
         -5    1    3    3    0  502 -0.34728724365E+02 -0.71636617501E+02  0.87570798718E+03  0.87932919915E+03  0.41800000000E+01 0.  1.
        -11    1    1    2    0    0 -0.44182684902E+02  0.40545233082E+02  0.17017290426E+03  0.18042960654E+03  0.00000000000E+00 0.  1.
         11    1    1    2    0    0  0.23617728012E+02  0.14212741967E+02  0.11565572675E+02  0.29892500431E+02  0.00000000000E+00 0. -1.
</event>
<event>
 7    1  0.2810263E-009  0.1066183E+03  0.7561462E-02  0.1266964E+00
          1   -1    0    0  501    0  0.00000000000E+00  0.00000000000E+00  0.11094197550E+04  0.11094197550E+04  0.00000000000E+00 0. -1.
         -1   -1    0    0    0  501 -0.00000000000E+00 -0.00000000000E+00 -0.16763139380E+02  0.16763139380E+02  0.00000000000E+00 0.  1.
         25    2    1    2    0    0  0.21085433783E+02 -0.28863403401E+02  0.90616241351E+03  0.91545415765E+03  0.12509317935E+03 0.  0.
          5    1    3    3  502    0  0.64001876806E+02  0.13046015701E+02  0.59044294561E+03  0.59405957881E+03  0.41800000000E+01 0. -1.
         -5    1    3    3    0  502 -0.42916443023E+02 -0.41909419103E+02  0.31571946790E+03  0.32139457883E+03  0.41800000000E+01 0. -1.
        -11    1    1    2    0    0 -0.43039787134E+02 -0.89210696031E+01  0.46124364250E+02  0.63713936755E+02  0.00000000000E+00 0.  1.
         11    1    1    2    0    0  0.21954353351E+02  0.37784473004E+02  0.14036983782E+03  0.14701479994E+03  0.00000000000E+00 0. -1.
</event>
<event>
 7    1  0.2810263E-009  0.1015517E+03  0.7561462E-02  0.1277066E+00
          2   -1    0    0  501    0  0.00000000000E+00  0.00000000000E+00  0.78088983308E+03  0.78088983308E+03  0.00000000000E+00 0. -1.
         -2   -1    0    0    0  501 -0.00000000000E+00 -0.00000000000E+00 -0.24280875722E+02  0.24280875722E+02  0.00000000000E+00 0.  1.
         25    2    1    2    0    0 -0.36684370447E+01 -0.12871918187E+02  0.65839692636E+03  0.67030819364E+03  0.12508964032E+03 0.  0.
          5    1    3    3  502    0 -0.63987647727E+02 -0.11490990280E+02  0.35922782648E+03  0.36508706583E+03  0.41800000000E+01 0. -1.
         -5    1    3    3    0  502  0.60319210683E+02 -0.13809279070E+01  0.29916909988E+03  0.30522112781E+03  0.41800000000E+01 0. -1.
        -11    1    1    2    0    0  0.34853018075E+02 -0.12756164000E+02  0.10915702472E+02  0.38685981304E+02  0.00000000000E+00 0.  1.
         11    1    1    2    0    0 -0.31184581031E+02  0.25628082187E+02  0.87296328531E+02  0.96176533861E+02  0.00000000000E+00 0. -1.
</event>
<event>
 7    1  0.2810263E-009  0.2252820E+03  0.7561462E-02  0.1130005E+00
         -1   -1    0    0    0  501 -0.00000000000E+00  0.00000000000E+00  0.60328473450E+02  0.60328473450E+02  0.00000000000E+00 0.  1.
          1   -1    0    0  501    0  0.00000000000E+00 -0.00000000000E+00 -0.11726288129E+04  0.11726288129E+04  0.00000000000E+00 0. -1.
         25    2    1    2    0    0  0.15017521957E+03 -0.15800501190E+03 -0.31916091672E+03  0.40623780142E+03  0.12508908897E+03 0.  0.
          5    1    3    3  502    0  0.11435530659E+03 -0.15778612022E+03 -0.31432266208E+03  0.36985105674E+03  0.41800000000E+01 0. -1.
         -5    1    3    3    0  502  0.35819912989E+02 -0.21889167984E+00 -0.48382546426E+01  0.36386744676E+02  0.41800000000E+01 0. -1.
        -11    1    1    2    0    0 -0.25048587980E+02  0.13563194890E+02 -0.36386963928E+02  0.46210422626E+02  0.00000000000E+00 0.  1.
         11    1    1    2    0    0 -0.12512663159E+03  0.14444181701E+03 -0.75675245883E+03  0.78050906233E+03  0.00000000000E+00 0. -1.
</event>
<event>
 7    1  0.2810263E-009  0.1735877E+03  0.7561462E-02  0.1174157E+00
          2   -1    0    0  501    0  0.00000000000E+00  0.00000000000E+00  0.13466104104E+04  0.13466104104E+04  0.00000000000E+00 0.  1.
         -2   -1    0    0    0  501 -0.00000000000E+00 -0.00000000000E+00 -0.27469155332E+02  0.27469155332E+02  0.00000000000E+00 0. -1.
         25    2    1    2    0    0  0.12823726339E+03 -0.90710553792E+02  0.60076633444E+03  0.63343562689E+03  0.12508918629E+03 0.  0.
          5    1    3    3  502    0  0.83181664787E+02 -0.54530103211E+00  0.40195666672E+03  0.41049497078E+03  0.41800000000E+01 0.  1.
         -5    1    3    3    0  502  0.45055598604E+02 -0.90165252760E+02  0.19880966771E+03  0.22294065611E+03  0.41800000000E+01 0.  1.
        -11    1    1    2    0    0 -0.10189110114E+03  0.91066330186E+02  0.68298635444E+03  0.69652367752E+03  0.00000000000E+00 0.  1.
         11    1    1    2    0    0 -0.26346162248E+02 -0.35577639419E+00  0.35388566142E+02  0.44120261282E+02  0.00000000000E+00 0. -1.
</event>
<event>
 7    1  0.2810263E-009  0.9840632E+02  0.7561462E-02  0.1283683E+00
          2   -1    0    0  501    0  0.00000000000E+00  0.00000000000E+00  0.36890123886E+03  0.36890123886E+03  0.00000000000E+00 0. -1.
         -2   -1    0    0    0  501 -0.00000000000E+00 -0.00000000000E+00 -0.46308143663E+02  0.46308143663E+02  0.00000000000E+00 0.  1.
         25    2    1    2    0    0 -0.71315042394E+02 -0.74237024720E+01  0.16582309552E+03  0.21973665829E+03  0.12508378535E+03 0.  0.
          5    1    3    3  502    0 -0.14091574706E+02  0.13046231930E+02  0.15695003923E+03  0.15817573727E+03  0.41800000000E+01 0.  1.
         -5    1    3    3    0  502 -0.57223467688E+02 -0.20469934402E+02  0.88730562876E+01  0.61560921018E+02  0.41800000000E+01 0.  1.
        -11    1    1    2    0    0  0.44179110527E+02 -0.41295885935E+02  0.90720495847E+02  0.10902913541E+03  0.00000000000E+00 0.  1.
         11    1    1    2    0    0  0.27135931867E+02  0.48719588407E+02  0.66049503830E+02  0.86443588825E+02  0.00000000000E+00 0. -1.
</event>
<event>
 7    1  0.2810263E-009  0.1174249E+03  0.7561462E-02  0.1247407E+00
          1   -1    0    0  501    0  0.00000000000E+00  0.00000000000E+00  0.70157824697E+03  0.70157824697E+03  0.00000000000E+00 0. -1.
         -1   -1    0    0    0  501 -0.00000000000E+00 -0.00000000000E+00 -0.22073347283E+02  0.22073347283E+02  0.00000000000E+00 0.  1.
         25    2    1    2    0    0 -0.28353304862E+00 -0.57061695819E+02  0.31773038249E+03  0.34619825083E+03  0.12507803724E+03 0.  0.
          5    1    3    3  502    0 -0.41453584887E+02  0.14987403376E+02  0.54801087495E+02  0.70453201138E+02  0.41800000000E+01 0. -1.
         -5    1    3    3    0  502  0.41170051839E+02 -0.72049099195E+02  0.26292929499E+03  0.27574504969E+03  0.41800000000E+01 0. -1.
        -11    1    1    2    0    0 -0.29556220426E+02 -0.12271965031E+02  0.98166328881E+02  0.10325114729E+03  0.00000000000E+00 0. -1.
         11    1    1    2    0    0  0.29839753475E+02  0.69333660850E+02  0.26360818832E+03  0.27420219613E+03  0.00000000000E+00 0.  1.
</event>
<event>
 7    1  0.2810263E-009  0.2534750E+03  0.7561462E-02  0.1111128E+00
          1   -1    0    0  501    0  0.00000000000E+00  0.00000000000E+00  0.20669011339E+03  0.20669011339E+03  0.00000000000E+00 0. -1.
         -1   -1    0    0    0  501 -0.00000000000E+00 -0.00000000000E+00 -0.73194718888E+03  0.73194718888E+03  0.00000000000E+00 0.  1.
         25    2    1    2    0    0 -0.58090931175E+02  0.22101729982E+03  0.89990150278E+02  0.27562933397E+03  0.12510035767E+03 0.  0.
          5    1    3    3  502    0 -0.40637655443E+02  0.25724558776E+01  0.19903686406E+02  0.45515554503E+02  0.41800000000E+01 0. -1.
         -5    1    3    3    0  502 -0.17453275732E+02  0.21844484395E+03  0.70086463873E+02  0.23011377946E+03  0.41800000000E+01 0. -1.
        -11    1    1    2    0    0 -0.25900471248E+02 -0.53829240653E+02 -0.16192595969E+03  0.17259327328E+03  0.00000000000E+00 0.  1.
         11    1    1    2    0    0  0.83991402423E+02 -0.16718805917E+03 -0.45332126608E+03  0.49041469502E+03  0.00000000000E+00 0. -1.
</event>
<event>
 7    1  0.2810263E-009  0.7620165E+02  0.7561462E-02  0.1340190E+00
         -2   -1    0    0    0  501 -0.00000000000E+00  0.00000000000E+00  0.21447017204E+02  0.21447017204E+02  0.00000000000E+00 0.  1.
          2   -1    0    0  501    0  0.00000000000E+00 -0.00000000000E+00 -0.99132622914E+03  0.99132622914E+03  0.00000000000E+00 0. -1.
         25    2    1    2    0    0 -0.91557810410E+01  0.64680775486E+02 -0.76857317504E+03  0.78142144811E+03  0.12508926061E+03 0.  0.
          5    1    3    3  502    0 -0.19116994413E+02  0.45967583209E+02 -0.93566583433E+02  0.10606911010E+03  0.41800000000E+01 0. -1.
         -5    1    3    3    0  502  0.99612133723E+01  0.18713192277E+02 -0.67500659161E+03  0.67535233801E+03  0.41800000000E+01 0. -1.
        -11    1    1    2    0    0 -0.18923736672E+02 -0.36161580888E+02 -0.18272258282E+03  0.18722529213E+03  0.00000000000E+00 0. -1.
         11    1    1    2    0    0  0.28079517713E+02 -0.28519194598E+02 -0.18583454070E+02  0.44126506101E+02  0.00000000000E+00 0.  1.
</event>
<event>
 7    1  0.2810263E-009  0.8409709E+02  0.7561462E-02  0.1317811E+00
         -2   -1    0    0    0  501 -0.00000000000E+00  0.00000000000E+00  0.11217643503E+02  0.11217643503E+02  0.00000000000E+00 0.  1.
          2   -1    0    0  501    0  0.00000000000E+00 -0.00000000000E+00 -0.13446234049E+04  0.13446234049E+04  0.00000000000E+00 0. -1.
         25    2    1    2    0    0  0.37899487625E+02  0.19198885339E+02 -0.98051593091E+03  0.98937566463E+03  0.12509095344E+03 0.  0.
          5    1    3    3  502    0  0.21950309720E+02 -0.19817025810E+02 -0.87728030168E+03  0.87778854556E+03  0.41800000000E+01 0. -1.
         -5    1    3    3    0  502  0.15949177905E+02  0.39015911149E+02 -0.10323562923E+03  0.11158711907E+03  0.41800000000E+01 0. -1.
        -11    1    1    2    0    0  0.14374110312E+02 -0.37836057313E+02 -0.10721482814E+03  0.11460018173E+03  0.00000000000E+00 0.  1.
         11    1    1    2    0    0 -0.52273597937E+02  0.18637171974E+02 -0.24567500234E+03  0.25186520204E+03  0.00000000000E+00 0. -1.
</event>
<event>
 7    1  0.2810263E-009  0.2585140E+03  0.7561462E-02  0.1108039E+00
          2   -1    0    0  501    0  0.00000000000E+00  0.00000000000E+00  0.36036195736E+03  0.36036195736E+03  0.00000000000E+00 0.  1.
         -2   -1    0    0    0  501 -0.00000000000E+00 -0.00000000000E+00 -0.18617057530E+03  0.18617057530E+03  0.00000000000E+00 0. -1.
         25    2    1    2    0    0 -0.23402139157E+03  0.18385438122E+02  0.96730090753E+02  0.28303400348E+03  0.12508997011E+03 0.  0.
          5    1    3    3  502    0 -0.17209063242E+02  0.43484674461E+02  0.25357189091E+02  0.53362235797E+02  0.41800000000E+01 0.  1.
         -5    1    3    3    0  502 -0.21681232833E+03 -0.25099236339E+02  0.71372901662E+02  0.22967176768E+03  0.41800000000E+01 0.  1.
        -11    1    1    2    0    0 -0.57776805299E+01 -0.10335763634E+02  0.50769304685E+01  0.12883509816E+02  0.00000000000E+00 0.  1.
         11    1    1    2    0    0  0.23979907210E+03 -0.80496744875E+01  0.72384360834E+02  0.25061501937E+03  0.00000000000E+00 0. -1.
</event>
<event>
 7    1  0.2810263E-009  0.1167187E+03  0.7561462E-02  0.1248610E+00
          2   -1    0    0  501    0  0.00000000000E+00  0.00000000000E+00  0.17146642737E+03  0.17146642737E+03  0.00000000000E+00 0.  1.
         -2   -1    0    0    0  501 -0.00000000000E+00 -0.00000000000E+00 -0.11308153730E+03  0.11308153730E+03  0.00000000000E+00 0. -1.
         25    2    1    2    0    0  0.50494309243E+02 -0.34756110770E+02 -0.33255339187E+02  0.14321686510E+03  0.12508992911E+03 0.  0.
          5    1    3    3  502    0  0.28929543615E+02 -0.75477981741E+02 -0.48672260109E+02  0.94447369077E+02  0.41800000000E+01 0.  1.
         -5    1    3    3    0  502  0.21564765629E+02  0.40721870971E+02  0.15416920922E+02  0.48769496027E+02  0.41800000000E+01 0.  1.
        -11    1    1    2    0    0  0.24916960725E+02  0.71389080419E+01  0.32635430219E+02  0.41676015230E+02  0.00000000000E+00 0.  1.
         11    1    1    2    0    0 -0.75411269969E+02  0.27617202729E+02  0.59004799035E+02  0.99655084336E+02  0.00000000000E+00 0. -1.
</event>
<event>
 7    1  0.2810263E-009  0.8833678E+02  0.7561462E-02  0.1306930E+00
          1   -1    0    0  501    0  0.00000000000E+00  0.00000000000E+00  0.28386923752E+02  0.28386923752E+02  0.00000000000E+00 0. -1.
         -1   -1    0    0    0  501 -0.00000000000E+00 -0.00000000000E+00 -0.43275368408E+03  0.43275368408E+03  0.00000000000E+00 0.  1.
         25    2    1    2    0    0 -0.21277362461E+02 -0.14309533707E+02 -0.24501104941E+03  0.27628931037E+03  0.12509148566E+03 0.  0.
          5    1    3    3  502    0  0.11198596757E+02 -0.62588746991E+02 -0.86887192965E+02  0.10774793047E+03  0.41800000000E+01 0. -1.
         -5    1    3    3    0  502 -0.32475959217E+02  0.48279213283E+02 -0.15812385644E+03  0.16854137990E+03  0.41800000000E+01 0. -1.
        -11    1    1    2    0    0  0.20042508923E+02  0.31525835665E+02 -0.16298654334E+03  0.16721301919E+03  0.00000000000E+00 0.  1.
         11    1    1    2    0    0  0.12348535372E+01 -0.17216301958E+02  0.36308324147E+01  0.17638278271E+02  0.00000000000E+00 0. -1.
</event>
<event>
 7    1  0.2810263E-009  0.1478828E+03  0.7561462E-02  0.1203099E+00
          1   -1    0    0  501    0  0.00000000000E+00  0.00000000000E+00  0.14775470653E+03  0.14775470653E+03  0.00000000000E+00 0. -1.
         -1   -1    0    0    0  501 -0.00000000000E+00 -0.00000000000E+00 -0.21526190774E+03  0.21526190774E+03  0.00000000000E+00 0.  1.
         25    2    1    2    0    0 -0.21180188999E+01  0.13483823547E+03 -0.25106019724E+02  0.18565069808E+03  0.12510009481E+03 0.  0.
          5    1    3    3  502    0  0.23680295485E+02  0.47897855229E+02  0.45767922010E+02  0.70477911539E+02  0.41800000000E+01 0.  1.
         -5    1    3    3    0  502 -0.25798314385E+02  0.86940380246E+02 -0.70873941734E+02  0.11517278654E+03  0.41800000000E+01 0.  1.
        -11    1    1    2    0    0  0.28595252806E+02 -0.11445390792E+03 -0.67186294167E+02  0.13576223203E+03  0.00000000000E+00 0.  1.
         11    1    1    2    0    0 -0.26477233906E+02 -0.20384327550E+02  0.24785112683E+02  0.41603684160E+02  0.00000000000E+00 0. -1.
</event>
<event>
 7    1  0.2810263E-009  0.9183345E+02  0.7561462E-02  0.1298472E+00
          2   -1    0    0  501    0  0.00000000000E+00  0.00000000000E+00  0.14117523903E+04  0.14117523903E+04  0.00000000000E+00 0. -1.
         -2   -1    0    0    0  501 -0.00000000000E+00 -0.00000000000E+00 -0.12652692956E+02  0.12652692956E+02  0.00000000000E+00 0.  1.
         25    2    1    2    0    0  0.16989962014E+02 -0.60347694465E+02  0.10260770193E+04  0.10355727753E+04  0.12508565213E+03 0.  0.
          5    1    3    3  502    0  0.19907753937E+02 -0.73540908297E+02  0.10143050669E+04  0.10171709910E+04  0.41800000000E+01 0. -1.
         -5    1    3    3    0  502 -0.29177919236E+01  0.13193213833E+02  0.11771952406E+02  0.18401784272E+02  0.41800000000E+01 0. -1.
        -11    1    1    2    0    0  0.26860368250E+02  0.27417897678E+02  0.61316067755E+02  0.72338652603E+02  0.00000000000E+00 0.  1.
         11    1    1    2    0    0 -0.43850330263E+02  0.32929796787E+02  0.31170661029E+03  0.31649365535E+03  0.00000000000E+00 0. -1.
</event>
<event>
 7    1  0.2810263E-009  0.1123397E+03  0.7561462E-02  0.1256297E+00
         -3   -1    0    0    0  501 -0.00000000000E+00  0.00000000000E+00  0.66663032587E+03  0.66663032587E+03  0.00000000000E+00 0.  1.
          3   -1    0    0  501    0  0.00000000000E+00 -0.00000000000E+00 -0.24015634259E+02  0.24015634259E+02  0.00000000000E+00 0. -1.
         25    2    1    2    0    0 -0.60063400890E+02 -0.22086769487E+02  0.33008373782E+03  0.35874604459E+03  0.12509201820E+03 0.  0.
          5    1    3    3  502    0 -0.96767088801E+02 -0.19391784653E+02  0.27643351240E+03  0.29355215885E+03  0.41800000000E+01 0.  1.
         -5    1    3    3    0  502  0.36703687911E+02 -0.26949848336E+01  0.53650225422E+02  0.65193885736E+02  0.41800000000E+01 0.  1.
        -11    1    1    2    0    0  0.16331325859E+02 -0.21578312124E+02  0.22020200549E+02  0.34888751635E+02  0.00000000000E+00 0. -1.
         11    1    1    2    0    0  0.43732075031E+02  0.43665081611E+02  0.29051075324E+03  0.29701116391E+03  0.00000000000E+00 0.  1.
</event>
<event>
 7    1  0.2810263E-009  0.1201891E+03  0.7561462E-02  0.1242785E+00
         -2   -1    0    0    0  501 -0.00000000000E+00  0.00000000000E+00  0.61520979255E+02  0.61520979255E+02  0.00000000000E+00 0.  1.
          2   -1    0    0  501    0  0.00000000000E+00 -0.00000000000E+00 -0.43812673586E+03  0.43812673586E+03  0.00000000000E+00 0. -1.
         25    2    1    2    0    0 -0.78655076693E+02  0.87156014196E+02 -0.15051739443E+03  0.22822384253E+03  0.12509134412E+03 0.  0.
          5    1    3    3  502    0 -0.58140634789E+02  0.42313705990E+02 -0.16211296663E+03  0.17739467151E+03  0.41800000000E+01 0. -1.
         -5    1    3    3    0  502 -0.20514441904E+02  0.44842308207E+02  0.11595572208E+02  0.50829171022E+02  0.41800000000E+01 0. -1.
        -11    1    1    2    0    0  0.39897026520E+02 -0.57830153601E+02 -0.20803241987E+03  0.21957592561E+03  0.00000000000E+00 0.  1.
         11    1    1    2    0    0  0.38758050173E+02 -0.29325860595E+02 -0.18055942307E+02  0.51847946974E+02  0.00000000000E+00 0. -1.
</event>
<event>
 7    1  0.2810263E-009  0.2930155E+03  0.7561462E-02  0.1088785E+00
          2   -1    0    0  501    0  0.00000000000E+00  0.00000000000E+00  0.14485024036E+04  0.14485024036E+04  0.00000000000E+00 0. -1.
         -2   -1    0    0    0  501 -0.00000000000E+00 -0.00000000000E+00 -0.64417643872E+02  0.64417643872E+02  0.00000000000E+00 0.  1.
         25    2    1    2    0    0 -0.11403653427E+03 -0.25978580859E+03  0.78832505508E+03  0.84711103664E+03  0.12509084076E+03 0.  0.
          5    1    3    3  502    0  0.16531775745E+02 -0.28517391015E+02  0.34675073689E+02  0.48024726287E+02  0.41800000000E+01 0. -1.
         -5    1    3    3    0  502 -0.13056831002E+03 -0.23126841757E+03  0.75364998139E+03  0.79908631036E+03  0.41800000000E+01 0. -1.
        -11    1    1    2    0    0  0.36451973829E+02  0.13846876485E+03  0.21111735333E+03  0.25509386922E+03  0.00000000000E+00 0. -1.
         11    1    1    2    0    0  0.77584560445E+02  0.12131704374E+03  0.38464235130E+03  0.41071514159E+03  0.00000000000E+00 0.  1.
</event>
<event>
 7    1  0.2810263E-009  0.1042541E+03  0.7561462E-02  0.1271596E+00
         -4   -1    0    0    0  501 -0.00000000000E+00  0.00000000000E+00  0.12844233456E+03  0.12844233456E+03  0.00000000000E+00 0.  1.
          4   -1    0    0  501    0  0.00000000000E+00 -0.00000000000E+00 -0.10293501970E+03  0.10293501970E+03  0.00000000000E+00 0. -1.
         25    2    1    2    0    0 -0.17666848709E+02  0.11048409131E+01 -0.15298630595E+02  0.12727751656E+03  0.12510867239E+03 0.  0.
          5    1    3    3  502    0 -0.59050903302E+02  0.25842135434E+02 -0.36778540148E+02  0.74330064981E+02  0.41800000000E+01 0. -1.
         -5    1    3    3    0  502  0.41384054593E+02 -0.24737294521E+02  0.21479909553E+02  0.52947451584E+02  0.41800000000E+01 0. -1.
        -11    1    1    2    0    0 -0.35713358621E+02 -0.17374683096E+02  0.20678816380E+02  0.44776523352E+02  0.00000000000E+00 0.  1.
         11    1    1    2    0    0  0.53380207330E+02  0.16269842183E+02  0.20127129078E+02  0.59323314339E+02  0.00000000000E+00 0. -1.
</event>
<event>
 7    1  0.2810263E-009  0.9389023E+02  0.7561462E-02  0.1293695E+00
          2   -1    0    0  501    0  0.00000000000E+00  0.00000000000E+00  0.13892439921E+04  0.13892439921E+04  0.00000000000E+00 0. -1.
         -2   -1    0    0    0  501 -0.00000000000E+00 -0.00000000000E+00 -0.23212334675E+02  0.23212334675E+02  0.00000000000E+00 0.  1.
         25    2    1    2    0    0  0.74487192825E+02  0.30613845203E+02  0.11840020331E+04  0.11933119658E+04  0.12508830445E+03 0.  0.
          5    1    3    3  502    0 -0.98057087048E+01  0.38249944685E+00  0.75347099419E+03  0.75354648809E+03  0.41800000000E+01 0. -1.
         -5    1    3    3    0  502  0.84292901530E+02  0.30231345756E+02  0.43053103894E+03  0.43976547773E+03  0.41800000000E+01 0. -1.
        -11    1    1    2    0    0 -0.30107898116E+02  0.50556026982E+01  0.15148674592E+03  0.15453245237E+03  0.00000000000E+00 0. -1.
         11    1    1    2    0    0 -0.44379294709E+02 -0.35669447901E+02  0.30542878403E+02  0.64611908604E+02  0.00000000000E+00 0.  1.
</event>
<event>
 7    1  0.2810263E-009  0.1431562E+03  0.7561462E-02  0.1209144E+00
         -1   -1    0    0    0  501 -0.00000000000E+00  0.00000000000E+00  0.33284020416E+02  0.33284020416E+02  0.00000000000E+00 0.  1.
          1   -1    0    0  501    0  0.00000000000E+00 -0.00000000000E+00 -0.84586171069E+03  0.84586171069E+03  0.00000000000E+00 0. -1.
         25    2    1    2    0    0  0.68459900226E+01 -0.10130773092E+03 -0.23296227686E+03  0.28325054256E+03  0.12509725615E+03 0.  0.
          5    1    3    3  502    0  0.38998945930E+02 -0.10864667597E+03 -0.12460548770E+03  0.16990885188E+03  0.41800000000E+01 0. -1.
         -5    1    3    3    0  502 -0.32152955908E+02  0.73389450543E+01 -0.10835678916E+03  0.11334169068E+03  0.41800000000E+01 0. -1.
        -11    1    1    2    0    0 -0.37490384206E+02  0.10010043151E+03 -0.47492182101E+03  0.48680217888E+03  0.00000000000E+00 0. -1.
         11    1    1    2    0    0  0.30644394183E+02  0.12072994044E+01 -0.10469359240E+03  0.10909300966E+03  0.00000000000E+00 0.  1.
</event>
<event>
 7    1  0.2810263E-009  0.2173597E+03  0.7561462E-02  0.1135867E+00
          2   -1    0    0  501    0  0.00000000000E+00  0.00000000000E+00  0.46393427653E+03  0.46393427653E+03  0.00000000000E+00 0.  1.
         -2   -1    0    0    0  501 -0.00000000000E+00 -0.00000000000E+00 -0.11277766411E+03  0.11277766411E+03  0.00000000000E+00 0. -1.
         25    2    1    2    0    0  0.16322897799E+03  0.10409096935E+03  0.24939669543E+03  0.33959419161E+03  0.12508746592E+03 0.  0.
          5    1    3    3  502    0  0.73216320975E+02 -0.12426136797E+02  0.13087511931E+03  0.15053507162E+03  0.41800000000E+01 0. -1.
         -5    1    3    3    0  502  0.90012657012E+02  0.11651710614E+03  0.11852157612E+03  0.18905911999E+03  0.41800000000E+01 0. -1.
        -11    1    1    2    0    0 -0.34938050843E+02 -0.73162557206E+02  0.50664161574E+02  0.95604834823E+02  0.00000000000E+00 0.  1.
         11    1    1    2    0    0 -0.12829092714E+03 -0.30928412141E+02  0.51095755418E+02  0.14151291420E+03  0.00000000000E+00 0. -1.
</event>
<event>
 7    1  0.2810263E-009  0.1392639E+03  0.7561462E-02  0.1214323E+00
          2   -1    0    0  501    0  0.00000000000E+00  0.00000000000E+00  0.13610319403E+03  0.13610319403E+03  0.00000000000E+00 0. -1.
         -2   -1    0    0    0  501 -0.00000000000E+00 -0.00000000000E+00 -0.19169101791E+03  0.19169101791E+03  0.00000000000E+00 0.  1.
         25    2    1    2    0    0 -0.70538784003E+02 -0.79002186548E+02 -0.85890500224E+02  0.18504245357E+03  0.12508583479E+03 0.  0.
          5    1    3    3  502    0  0.20781871605E+02 -0.25628284999E+02 -0.70659038952E+02  0.78095245470E+02  0.41800000000E+01 0. -1.
         -5    1    3    3    0  502 -0.91320655608E+02 -0.53373901548E+02 -0.15231461272E+02  0.10694720810E+03  0.41800000000E+01 0. -1.
        -11    1    1    2    0    0 -0.13191385307E+02 -0.10492488229E+02  0.53204364613E+01  0.17675180330E+02  0.00000000000E+00 0.  1.
         11    1    1    2    0    0  0.83730169309E+02  0.89494674776E+02  0.24982239877E+02  0.12507657804E+03  0.00000000000E+00 0. -1.
</event>
<event>
 7    1  0.2810263E-009  0.2051266E+03  0.7561462E-02  0.1145484E+00
          1   -1    0    0  501    0  0.00000000000E+00  0.00000000000E+00  0.10437946978E+04  0.10437946978E+04  0.00000000000E+00 0. -1.
         -1   -1    0    0    0  501 -0.00000000000E+00 -0.00000000000E+00 -0.54476292965E+02  0.54476292965E+02  0.00000000000E+00 0.  1.
         25    2    1    2    0    0 -0.16052807429E+03  0.70324307439E+02  0.23648739754E+03  0.31982634537E+03  0.12509129125E+03 0.  0.
          5    1    3    3  502    0 -0.97164104981E+01 -0.29848449445E+02  0.54842701069E+02  0.63328767774E+02  0.41800000000E+01 0. -1.
         -5    1    3    3    0  502 -0.15081166379E+03  0.10017275688E+03  0.18164469647E+03  0.25649757760E+03  0.41800000000E+01 0. -1.
        -11    1    1    2    0    0  0.40544775950E+02 -0.65961731189E+02  0.26715864137E+03  0.27815206002E+03  0.00000000000E+00 0. -1.
         11    1    1    2    0    0  0.11998329834E+03 -0.43625762505E+01  0.48567236589E+03  0.50029258534E+03  0.00000000000E+00 0.  1.
</event>
<event>
 7    1  0.2810263E-009  0.1476595E+03  0.7561462E-02  0.1203379E+00
         -2   -1    0    0    0  501 -0.00000000000E+00  0.00000000000E+00  0.98419225355E+02  0.98419225355E+02  0.00000000000E+00 0.  1.
          2   -1    0    0  501    0  0.00000000000E+00 -0.00000000000E+00 -0.27490078447E+03  0.27490078447E+03  0.00000000000E+00 0. -1.
         25    2    1    2    0    0 -0.51049542094E+01 -0.10168958409E+03 -0.16728602134E+02  0.16215519643E+03  0.12509048537E+03 0.  0.
          5    1    3    3  502    0  0.12322477605E+02 -0.12651329469E+03 -0.26704190137E+02  0.12995400478E+03  0.41800000000E+01 0. -1.
         -5    1    3    3    0  502 -0.17427431815E+02  0.24823710600E+02  0.99755880036E+01  0.32201191649E+02  0.41800000000E+01 0. -1.
        -11    1    1    2    0    0 -0.27789206614E+02  0.10085821298E+03 -0.11298503724E+03  0.15398129032E+03  0.00000000000E+00 0. -1.
         11    1    1    2    0    0  0.32894160824E+02  0.83137111285E+00 -0.46767919748E+02  0.57183523079E+02  0.00000000000E+00 0.  1.
</event>
<event>
 7    1  0.2810263E-009  0.1035697E+03  0.7561462E-02  0.1272964E+00
          1   -1    0    0  501    0  0.00000000000E+00  0.00000000000E+00  0.19058400656E+03  0.19058400656E+03  0.00000000000E+00 0. -1.
         -1   -1    0    0    0  501 -0.00000000000E+00 -0.00000000000E+00 -0.86913537978E+02  0.86913537978E+02  0.00000000000E+00 0.  1.
         25    2    1    2    0    0  0.90885491894E+01  0.25889651997E+02  0.13009144682E+03  0.18254887570E+03  0.12508969454E+03 0.  0.
          5    1    3    3  502    0  0.35232599599E+02  0.65886600182E+02  0.10345760004E+03  0.12768448443E+03  0.41800000000E+01 0.  1.
         -5    1    3    3    0  502 -0.26144050410E+02 -0.39996948185E+02  0.26633846778E+02  0.54864391277E+02  0.41800000000E+01 0.  1.
        -11    1    1    2    0    0  0.25458433408E+02  0.15980575406E+02 -0.27377478084E+02  0.40657556839E+02  0.00000000000E+00 0.  1.
         11    1    1    2    0    0 -0.34546982597E+02 -0.41870227403E+02  0.95649984795E+00  0.54291111992E+02  0.00000000000E+00 0. -1.
</event>
<event>
 7    1  0.2810263E-009  0.6214346E+02  0.7561462E-02  0.1389051E+00
          1   -1    0    0  501    0  0.00000000000E+00  0.00000000000E+00  0.37226202637E+03  0.37226202637E+03  0.00000000000E+00 0. -1.
         -1   -1    0    0    0  501 -0.00000000000E+00 -0.00000000000E+00 -0.38203019353E+02  0.38203019353E+02  0.00000000000E+00 0.  1.
         25    2    1    2    0    0  0.11805996406E+01 -0.17877790649E+02  0.10795658584E+03  0.16620275457E+03  0.12509085493E+03 0.  0.
          5    1    3    3  502    0  0.25715093554E+02 -0.12868094778E+02  0.12961500825E+03  0.13283213717E+03  0.41800000000E+01 0.  1.
         -5    1    3    3    0  502 -0.24534493913E+02 -0.50096958701E+01 -0.21658422415E+02  0.33370617402E+02  0.41800000000E+01 0.  1.
        -11    1    1    2    0    0  0.32432808436E+02  0.16030643186E+02  0.19533247725E+03  0.19865458779E+03  0.00000000000E+00 0. -1.
         11    1    1    2    0    0 -0.33613408076E+02  0.18471474625E+01  0.30769943929E+02  0.45607703359E+02  0.00000000000E+00 0.  1.
</event>
<event>
 7    1  0.2810263E-009  0.1054995E+03  0.7561462E-02  0.1269139E+00
          2   -1    0    0  501    0  0.00000000000E+00  0.00000000000E+00  0.82141325896E+03  0.82141325896E+03  0.00000000000E+00 0. -1.
         -2   -1    0    0    0  501 -0.00000000000E+00 -0.00000000000E+00 -0.17119177779E+02  0.17119177779E+02  0.00000000000E+00 0.  1.
         25    2    1    2    0    0  0.81342590195E+01 -0.32105362555E+02  0.58512554907E+03  0.59926327965E+03  0.12509056596E+03 0.  0.
          5    1    3    3  502    0  0.60979851024E+02 -0.20929216333E+02  0.19573155056E+03  0.20611862267E+03  0.41800000000E+01 0.  1.
         -5    1    3    3    0  502 -0.52845592004E+02 -0.11176146223E+02  0.38939399851E+03  0.39314465698E+03  0.41800000000E+01 0.  1.
        -11    1    1    2    0    0 -0.47245673171E+02  0.15468768445E+02  0.84353492384E+02  0.97912961899E+02  0.00000000000E+00 0.  1.
         11    1    1    2    0    0  0.39111414151E+02  0.16636594110E+02  0.13481503973E+03  0.14135619519E+03  0.00000000000E+00 0. -1.
</event>
<event>
 7    1  0.2810263E-009  0.2214296E+03  0.7561462E-02  0.1132822E+00
          2   -1    0    0  501    0  0.00000000000E+00  0.00000000000E+00  0.81832435897E+03  0.81832435897E+03  0.00000000000E+00 0. -1.
         -2   -1    0    0    0  501 -0.00000000000E+00 -0.00000000000E+00 -0.65327800166E+02  0.65327800166E+02  0.00000000000E+00 0.  1.
         25    2    1    2    0    0 -0.20063015031E+03  0.93724726809E+01  0.32233036676E+03  0.39985603966E+03  0.12509071373E+03 0.  0.
          5    1    3    3  502    0  0.16688038232E+02 -0.58922250996E+01  0.18213225211E+02  0.25737189225E+02  0.41800000000E+01 0.  1.
         -5    1    3    3    0  502 -0.21731818854E+03  0.15264697780E+02  0.30411714155E+03  0.37411885044E+03  0.41800000000E+01 0.  1.
        -11    1    1    2    0    0  0.73801445370E+02 -0.27304871976E+02  0.25170207027E+03  0.26371602445E+03  0.00000000000E+00 0. -1.
         11    1    1    2    0    0  0.12682870494E+03  0.17932399295E+02  0.17896412177E+03  0.22008009501E+03  0.00000000000E+00 0.  1.
</event>
<event>
 7    1  0.2810263E-009  0.1086524E+03  0.7561462E-02  0.1263086E+00
         -1   -1    0    0    0  501 -0.00000000000E+00  0.00000000000E+00  0.49557046368E+02  0.49557046368E+02  0.00000000000E+00 0.  1.
          1   -1    0    0  501    0  0.00000000000E+00 -0.00000000000E+00 -0.35678579280E+03  0.35678579280E+03  0.00000000000E+00 0. -1.
         25    2    1    2    0    0  0.26703258420E+02 -0.60066371394E+02 -0.22515607355E+03  0.26582654584E+03  0.12508981589E+03 0.  0.
          5    1    3    3  502    0  0.69780373707E+02 -0.37053123919E+01 -0.11956399120E+03  0.13854981157E+03  0.41800000000E+01 0. -1.
         -5    1    3    3    0  502 -0.43077115287E+02 -0.56361059003E+02 -0.10559208235E+03  0.12727673428E+03  0.41800000000E+01 0. -1.
        -11    1    1    2    0    0 -0.11904210137E+02  0.60275245406E+02 -0.45658069477E+01  0.61608944324E+02  0.00000000000E+00 0.  1.
         11    1    1    2    0    0 -0.14799048283E+02 -0.20887401119E+00 -0.77506865942E+02  0.78907349002E+02  0.00000000000E+00 0. -1.
</event>
<event>
 7    1  0.2810263E-009  0.1087885E+03  0.7561462E-02  0.1262830E+00
          1   -1    0    0  501    0  0.00000000000E+00  0.00000000000E+00  0.26953144922E+03  0.26953144922E+03  0.00000000000E+00 0. -1.
         -1   -1    0    0    0  501 -0.00000000000E+00 -0.00000000000E+00 -0.53904458285E+02  0.53904458285E+02  0.00000000000E+00 0.  1.
         25    2    1    2    0    0  0.14339797674E+02  0.39427991075E+02  0.15928376820E+03  0.20683027262E+03  0.12508895468E+03 0.  0.
          5    1    3    3  502    0 -0.40325240101E+02  0.46739369409E+02  0.35697212657E+02  0.71431484889E+02  0.41800000000E+01 0. -1.
         -5    1    3    3    0  502  0.54665037775E+02 -0.73113783336E+01  0.12358655554E+03  0.13539878773E+03  0.41800000000E+01 0. -1.
        -11    1    1    2    0    0 -0.43857051796E+02  0.79524287265E+01  0.14603456491E+02  0.46903550573E+02  0.00000000000E+00 0.  1.
         11    1    1    2    0    0  0.29517254122E+02 -0.47380419802E+02  0.41739766245E+02  0.69702084314E+02  0.00000000000E+00 0. -1.
</event>
<event>
 7    1  0.2810263E-009  0.1281807E+03  0.7561462E-02  0.1230181E+00
          3   -1    0    0  501    0  0.00000000000E+00  0.00000000000E+00  0.27332294992E+02  0.27332294992E+02  0.00000000000E+00 0. -1.
         -3   -1    0    0    0  501 -0.00000000000E+00 -0.00000000000E+00 -0.77693814989E+03  0.77693814989E+03  0.00000000000E+00 0.  1.
         25    2    1    2    0    0 -0.20377430379E+02 -0.91169049538E+02 -0.47057311944E+03  0.49579574966E+03  0.12508928564E+03 0.  0.
          5    1    3    3  502    0 -0.37882905542E+02  0.19327215981E+02 -0.10184796950E+03  0.11044970394E+03  0.41800000000E+01 0. -1.
         -5    1    3    3    0  502  0.17505475163E+02 -0.11049626552E+03 -0.36872514994E+03  0.38534604572E+03  0.41800000000E+01 0. -1.
        -11    1    1    2    0    0  0.97502218403E+01  0.90504042734E+02 -0.28287055413E+03  0.29715618616E+03  0.00000000000E+00 0.  1.
         11    1    1    2    0    0  0.10627208539E+02  0.66500680468E+00  0.38378186675E+01  0.11318509067E+02  0.00000000000E+00 0. -1.
</event>
<event>
 7    1  0.3456187E-009  0.1590005E+03  0.7561462E-02  0.1189830E+00
          2   -1    0    0  501    0  0.00000000000E+00  0.00000000000E+00  0.19645061227E+03  0.19645061227E+03  0.00000000000E+00 0. -1.
         -2   -1    0    0    0  501 -0.00000000000E+00 -0.00000000000E+00 -0.14829122596E+03  0.14829122596E+03  0.00000000000E+00 0.  1.
         25    2    1    2    0    0  0.83464360554E+02 -0.10063049094E+03  0.13257526456E+02  0.18142796800E+03  0.12509016898E+03 0.  0.
          5    1    3    3  502    0  0.54129917640E+02  0.13195302664E+02 -0.19758969698E+02  0.59262579084E+02  0.41800000000E+01 0.  1.
         -5    1    3    3    0  502  0.29334442913E+02 -0.11382579360E+03  0.33016496154E+02  0.12216538892E+03  0.41800000000E+01 0.  1.
        -11    1    1    2    0    0 -0.77565490768E+02  0.47290214978E+02 -0.12513353891E+02  0.91702528953E+02  0.00000000000E+00 0.  1.
         11    1    1    2    0    0 -0.58988697861E+01  0.53340275962E+02  0.47415213752E+02  0.71611341277E+02  0.00000000000E+00 0. -1.
</event>
<event>
 7    1  0.2810263E-009  0.1017868E+03  0.7561462E-02  0.1276583E+00
          1   -1    0    0  501    0  0.00000000000E+00  0.00000000000E+00  0.68946902897E+03  0.68946902897E+03  0.00000000000E+00 0. -1.
         -1   -1    0    0    0  501 -0.00000000000E+00 -0.00000000000E+00 -0.22847962303E+02  0.22847962303E+02  0.00000000000E+00 0.  1.
         25    2    1    2    0    0  0.56298023716E+02  0.34278007024E+02  0.37304854499E+03  0.39894193384E+03  0.12507997610E+03 0.  0.
          5    1    3    3  502    0  0.21287277593E+02 -0.19911946866E+02  0.29980043719E+03  0.30124310507E+03  0.41800000000E+01 0. -1.
         -5    1    3    3    0  502  0.35010746122E+02  0.54189953890E+02  0.73248107800E+02  0.97698828769E+02  0.41800000000E+01 0. -1.
        -11    1    1    2    0    0 -0.72520857567E+02 -0.49037032900E+02  0.22781485212E+03  0.24405637100E+03  0.00000000000E+00 0.  1.
         11    1    1    2    0    0  0.16222833851E+02  0.14759025876E+02  0.65757669562E+02  0.69318686436E+02  0.00000000000E+00 0. -1.
</event>
<event>
 7    1  0.2810263E-009  0.1492736E+03  0.7561462E-02  0.1201368E+00
          1   -1    0    0  501    0  0.00000000000E+00  0.00000000000E+00  0.81384308640E+03  0.81384308640E+03  0.00000000000E+00 0. -1.
         -1   -1    0    0    0  501 -0.00000000000E+00 -0.00000000000E+00 -0.61586611250E+02  0.61586611250E+02  0.00000000000E+00 0.  1.
         25    2    1    2    0    0  0.11796765023E+03 -0.42565086221E+02  0.68209766935E+03  0.70472167335E+03  0.12508898148E+03 0.  0.
          5    1    3    3  502    0  0.10911085283E+03 -0.65028322979E+02  0.65867279194E+03  0.67082127295E+03  0.41800000000E+01 0. -1.
         -5    1    3    3    0  502  0.88567973982E+01  0.22463236759E+02  0.23424877415E+02  0.33900400407E+02  0.41800000000E+01 0. -1.
        -11    1    1    2    0    0 -0.26242998819E+02  0.48386361217E+02  0.54525383182E+02  0.77478721917E+02  0.00000000000E+00 0. -1.
         11    1    1    2    0    0 -0.91724651413E+02 -0.58212749959E+01  0.15633422612E+02  0.93229302378E+02  0.00000000000E+00 0.  1.
</event>
<event>
 7    1  0.2810263E-009  0.1923194E+03  0.7561462E-02  0.1156386E+00
         -2   -1    0    0    0  501 -0.00000000000E+00  0.00000000000E+00  0.11935221928E+03  0.11935221928E+03  0.00000000000E+00 0. -1.
          2   -1    0    0  501    0  0.00000000000E+00 -0.00000000000E+00 -0.33736011311E+03  0.33736011311E+03  0.00000000000E+00 0.  1.
         25    2    1    2    0    0 -0.13994960241E+03 -0.82550803188E+02 -0.54980180569E+02  0.21229625264E+03  0.12508538006E+03 0.  0.
          5    1    3    3  502    0 -0.90846361967E+02  0.16017344416E+02 -0.86304078819E+01  0.92744666396E+02  0.41800000000E+01 0. -1.
         -5    1    3    3    0  502 -0.49103240443E+02 -0.98568147604E+02 -0.46349772687E+02  0.11955158624E+03  0.41800000000E+01 0. -1.
        -11    1    1    2    0    0  0.25386782242E+02  0.60253082288E+02 -0.59539951500E+02  0.88430359393E+02  0.00000000000E+00 0.  1.
         11    1    1    2    0    0  0.11456282017E+03  0.22297720900E+02 -0.10348776175E+03  0.15598572036E+03  0.00000000000E+00 0. -1.
</event>
<event>
 7    1  0.2810263E-009  0.1340096E+03  0.7561462E-02  0.1221625E+00
         -2   -1    0    0    0  501 -0.00000000000E+00  0.00000000000E+00  0.11646273060E+02  0.11646273060E+02  0.00000000000E+00 0.  1.
          2   -1    0    0  501    0  0.00000000000E+00 -0.00000000000E+00 -0.19221303728E+04  0.19221303728E+04  0.00000000000E+00 0. -1.
         25    2    1    2    0    0 -0.30244593521E+02  0.66921871823E+02 -0.13840355410E+04  0.13916158474E+04  0.12508803175E+03 0.  0.
          5    1    3    3  502    0  0.37968211336E+02  0.66520693541E+02 -0.73650235832E+03  0.74048618080E+03  0.41800000000E+01 0.  1.
         -5    1    3    3    0  502 -0.68212804858E+02  0.40117828173E+00 -0.64753318264E+03  0.65112966658E+03  0.41800000000E+01 0.  1.
        -11    1    1    2    0    0  0.66344032256E+02 -0.50141449745E+02 -0.42733362133E+03  0.43535011142E+03  0.00000000000E+00 0. -1.
         11    1    1    2    0    0 -0.36099438735E+02 -0.16780422078E+02 -0.99114937422E+02  0.10681068702E+03  0.00000000000E+00 0.  1.
</event>
<event>
 7    1  0.2810263E-009  0.1416181E+03  0.7561462E-02  0.1211168E+00
         -2   -1    0    0    0  501 -0.00000000000E+00  0.00000000000E+00  0.32303400176E+02  0.32303400176E+02  0.00000000000E+00 0.  1.
          2   -1    0    0  501    0  0.00000000000E+00 -0.00000000000E+00 -0.73348972971E+03  0.73348972971E+03  0.00000000000E+00 0. -1.
         25    2    1    2    0    0  0.98175234710E+02  0.82709226661E+01 -0.47241789924E+03  0.49853108380E+03  0.12509110726E+03 0.  0.
          5    1    3    3  502    0 -0.10254291928E+02  0.32574790830E+02 -0.43654770482E+02  0.55583080937E+02  0.41800000000E+01 0. -1.
         -5    1    3    3    0  502  0.10842952664E+03 -0.24303868164E+02 -0.42876312876E+03  0.44294800286E+03  0.41800000000E+01 0. -1.
        -11    1    1    2    0    0 -0.93324289111E+02 -0.42866316082E+02 -0.15988570172E+03  0.19002731806E+03  0.00000000000E+00 0.  1.
         11    1    1    2    0    0 -0.48509455989E+01  0.34595393416E+02 -0.68882728562E+02  0.77234728024E+02  0.00000000000E+00 0. -1.
</event>
<event>
 7    1  0.2810263E-009  0.1578061E+03  0.7561462E-02  0.1191196E+00
          1   -1    0    0  501    0  0.00000000000E+00  0.00000000000E+00  0.38292132749E+03  0.38292132749E+03  0.00000000000E+00 0. -1.
         -1   -1    0    0    0  501 -0.00000000000E+00 -0.00000000000E+00 -0.75077586070E+02  0.75077586070E+02  0.00000000000E+00 0.  1.
         25    2    1    2    0    0  0.54465801870E+02 -0.11537367365E+03  0.13781678210E+03  0.22565210370E+03  0.12509116008E+03 0.  0.
          5    1    3    3  502    0  0.80703043418E+02 -0.12596624810E+03  0.10983089935E+03  0.18563613800E+03  0.41800000000E+01 0.  1.
         -5    1    3    3    0  502 -0.26237241548E+02  0.10592574452E+02  0.27985882749E+02  0.40015965699E+02  0.41800000000E+01 0.  1.
        -11    1    1    2    0    0 -0.63585989423E+02  0.88519493632E+02  0.17231882242E+03  0.20389373547E+03  0.00000000000E+00 0. -1.
         11    1    1    2    0    0  0.91201875536E+01  0.26854180021E+02 -0.22918631053E+01  0.28453074387E+02  0.00000000000E+00 0.  1.
</event>
<event>
 7    1  0.2810263E-009  0.8802736E+02  0.7561462E-02  0.1307700E+00
         -2   -1    0    0    0  501 -0.00000000000E+00  0.00000000000E+00  0.10568728246E+02  0.10568728246E+02  0.00000000000E+00 0.  1.
          2   -1    0    0  501    0  0.00000000000E+00 -0.00000000000E+00 -0.12172823697E+04  0.12172823697E+04  0.00000000000E+00 0. -1.
         25    2    1    2    0    0  0.29593671260E+02  0.15967642281E+02 -0.68897376120E+03  0.70104459695E+03  0.12509169560E+03 0.  0.
          5    1    3    3  502    0  0.37240684740E+02  0.39031724787E+02 -0.66310189137E+03  0.66530589572E+03  0.41800000000E+01 0.  1.
         -5    1    3    3    0  502 -0.76470134792E+01 -0.23064082506E+02 -0.25871869828E+02  0.35738701227E+02  0.41800000000E+01 0.  1.
        -11    1    1    2    0    0 -0.35650250560E+02 -0.50729956596E+02 -0.33586121828E+03  0.34153656730E+03  0.00000000000E+00 0.  1.
         11    1    1    2    0    0  0.60565792997E+01  0.34762314315E+02 -0.18187866194E+03  0.18526993366E+03  0.00000000000E+00 0. -1.
</event>
<event>
 7    1  0.2810263E-009  0.1270272E+03  0.7561462E-02  0.1231935E+00
         -1   -1    0    0    0  501 -0.00000000000E+00  0.00000000000E+00  0.40206059092E+02  0.40206059092E+02  0.00000000000E+00 0.  1.
          1   -1    0    0  501    0  0.00000000000E+00 -0.00000000000E+00 -0.55186946642E+03  0.55186946642E+03  0.00000000000E+00 0. -1.
         25    2    1    2    0    0 -0.77905539463E+02 -0.59812169162E+02 -0.28262299320E+03  0.32430697675E+03  0.12510991257E+03 0.  0.
          5    1    3    3  502    0  0.18439833953E+01  0.10515107933E+02  0.85479928382E+01  0.14300641635E+02  0.41800000000E+01 0. -1.
         -5    1    3    3    0  502 -0.79749522858E+02 -0.70327277095E+02 -0.29117098604E+03  0.31000633511E+03  0.41800000000E+01 0. -1.
        -11    1    1    2    0    0  0.51265535460E+02 -0.17684877807E+02 -0.67103720402E+02  0.86277571367E+02  0.00000000000E+00 0.  1.
         11    1    1    2    0    0  0.26640004002E+02  0.77497046969E+02 -0.16193669373E+03  0.18149097740E+03  0.00000000000E+00 0. -1.
</event>
<event>
 7    1  0.2810263E-009  0.1072557E+03  0.7561462E-02  0.1265738E+00
         -2   -1    0    0    0  501 -0.00000000000E+00  0.00000000000E+00  0.91051119076E+02  0.91051119076E+02  0.00000000000E+00 0.  1.
          2   -1    0    0  501    0  0.00000000000E+00 -0.00000000000E+00 -0.20967526862E+03  0.20967526862E+03  0.00000000000E+00 0. -1.
         25    2    1    2    0    0  0.74518821241E+02  0.25875052591E+02 -0.57389119145E+02  0.15862804335E+03  0.12508705799E+03 0.  0.
          5    1    3    3  502    0  0.28549009859E+02 -0.16357828530E+02  0.34244008429E+02  0.47673357668E+02  0.41800000000E+01 0.  1.
         -5    1    3    3    0  502  0.45969811383E+02  0.42232881120E+02 -0.91633127574E+02  0.11095468568E+03  0.41800000000E+01 0.  1.
        -11    1    1    2    0    0 -0.55366757809E+02  0.27681550575E+02 -0.58475241666E+02  0.85153391010E+02  0.00000000000E+00 0.  1.
         11    1    1    2    0    0 -0.19152063432E+02 -0.53556603166E+02 -0.27597887346E+01  0.56944953334E+02  0.00000000000E+00 0. -1.
</event>
<event>
 7    1  0.2810263E-009  0.1311155E+03  0.7561462E-02  0.1225810E+00
          3   -1    0    0  501    0  0.00000000000E+00  0.00000000000E+00  0.39350936879E+02  0.39350936879E+02  0.00000000000E+00 0. -1.
         -3   -1    0    0    0  501 -0.00000000000E+00 -0.00000000000E+00 -0.54067229704E+03  0.54067229704E+03  0.00000000000E+00 0.  1.
         25    2    1    2    0    0 -0.93979290861E+02 -0.12870140498E+02 -0.23205750239E+03  0.28017398118E+03  0.12509607383E+03 0.  0.
          5    1    3    3  502    0  0.18870520422E+02  0.19437470673E+02 -0.10398685801E+02  0.29317518203E+02  0.41800000000E+01 0.  1.
         -5    1    3    3    0  502 -0.11284981128E+03 -0.32307611171E+02 -0.22165881659E+03  0.25085646298E+03  0.41800000000E+01 0.  1.
        -11    1    1    2    0    0  0.18323474252E+02 -0.26388632645E+02 -0.23725790111E+02  0.39937736014E+02  0.00000000000E+00 0.  1.
         11    1    1    2    0    0  0.75655816609E+02  0.39258773143E+02 -0.24553806766E+03  0.25991151672E+03  0.00000000000E+00 0. -1.
</event>
<event>
 7    1  0.2810263E-009  0.1541616E+03  0.7561462E-02  0.1195451E+00
         -3   -1    0    0    0  501 -0.00000000000E+00  0.00000000000E+00  0.13394088825E+03  0.13394088825E+03  0.00000000000E+00 0.  1.
          3   -1    0    0  501    0  0.00000000000E+00 -0.00000000000E+00 -0.29709508560E+03  0.29709508560E+03  0.00000000000E+00 0. -1.
         25    2    1    2    0    0  0.10577784530E+03 -0.68530431689E+02  0.33381853786E+02  0.18068373367E+03  0.12508753267E+03 0.  0.
          5    1    3    3  502    0 -0.19025214384E+02 -0.31710976347E+02  0.34125861153E+02  0.50493480794E+02  0.41800000000E+01 0.  1.
         -5    1    3    3    0  502  0.12480305968E+03 -0.36819455342E+02 -0.74400736698E+00  0.13019025288E+03  0.41800000000E+01 0.  1.
        -11    1    1    2    0    0 -0.11795012364E+02  0.41474967694E+02 -0.17881149464E+02  0.46680089632E+02  0.00000000000E+00 0.  1.
         11    1    1    2    0    0 -0.93982832934E+02  0.27055463995E+02 -0.17865490167E+03  0.20367215055E+03  0.00000000000E+00 0. -1.
</event>
<event>
 7    1  0.2810263E-009  0.1383938E+03  0.7561462E-02  0.1215507E+00
          1   -1    0    0  501    0  0.00000000000E+00  0.00000000000E+00  0.10214471515E+03  0.10214471515E+03  0.00000000000E+00 0. -1.
         -1   -1    0    0    0  501 -0.00000000000E+00 -0.00000000000E+00 -0.23650842330E+03  0.23650842330E+03  0.00000000000E+00 0.  1.
         25    2    1    2    0    0  0.31886113990E+02  0.10671486675E+03 -0.72662109453E+02  0.18256503826E+03  0.12508166930E+03 0.  0.
          5    1    3    3  502    0 -0.30331994106E+02  0.38931665168E+02 -0.75639533067E+02  0.90413028827E+02  0.41800000000E+01 0.  1.
         -5    1    3    3    0  502  0.62218108096E+02  0.67783201583E+02  0.29774236139E+01  0.92152009437E+02  0.41800000000E+01 0.  1.
        -11    1    1    2    0    0 -0.23598501178E+02  0.41664854088E+01 -0.33830059435E+02  0.41457469531E+02  0.00000000000E+00 0.  1.
         11    1    1    2    0    0 -0.82876128122E+01 -0.11088135216E+03 -0.27871539267E+02  0.11463063065E+03  0.00000000000E+00 0. -1.
</event>
<event>
 7    1  0.2810263E-009  0.1408543E+03  0.7561462E-02  0.1212184E+00
          2   -1    0    0  501    0  0.00000000000E+00  0.00000000000E+00  0.74568701915E+02  0.74568701915E+02  0.00000000000E+00 0. -1.
         -2   -1    0    0    0  501 -0.00000000000E+00 -0.00000000000E+00 -0.35368863701E+03  0.35368863701E+03  0.00000000000E+00 0.  1.
         25    2    1    2    0    0  0.11838211834E+03  0.20783335388E+02 -0.13226010465E+03  0.21814392551E+03  0.12509102279E+03 0.  0.
          5    1    3    3  502    0  0.12619704101E+03  0.46110872763E+02 -0.13579941371E+03  0.19107814870E+03  0.41800000000E+01 0. -1.
         -5    1    3    3    0  502 -0.78149226628E+01 -0.25327537375E+02  0.35393090668E+01  0.27065776811E+02  0.41800000000E+01 0. -1.
        -11    1    1    2    0    0 -0.91908597312E+02 -0.19460367007E+02 -0.15597558863E+03  0.18208316889E+03  0.00000000000E+00 0.  1.
         11    1    1    2    0    0 -0.26473521031E+02 -0.13229683807E+01  0.91157581798E+01  0.28030244528E+02  0.00000000000E+00 0. -1.
</event>
<event>
 7    1  0.2810263E-009  0.1568518E+03  0.7561462E-02  0.1192298E+00
          1   -1    0    0  501    0  0.00000000000E+00  0.00000000000E+00  0.25550863141E+03  0.25550863141E+03  0.00000000000E+00 0. -1.
         -1   -1    0    0    0  501 -0.00000000000E+00 -0.00000000000E+00 -0.10412245530E+03  0.10412245530E+03  0.00000000000E+00 0.  1.
         25    2    1    2    0    0 -0.89870430672E+02 -0.70445625186E+02  0.39382458094E+02  0.17389374827E+03  0.12509507290E+03 0.  0.
          5    1    3    3  502    0 -0.27663883610E+02  0.35554681084E+02  0.19727431758E+02  0.49356557488E+02  0.41800000000E+01 0.  1.
         -5    1    3    3    0  502 -0.62206547062E+02 -0.10600030627E+03  0.19655026337E+02  0.12453719078E+03  0.41800000000E+01 0.  1.
        -11    1    1    2    0    0  0.10049215870E+03  0.31796750501E+02  0.96034188777E+02  0.14259127854E+03  0.00000000000E+00 0.  1.
         11    1    1    2    0    0 -0.10621728024E+02  0.38648874685E+02  0.15969529240E+02  0.43146059899E+02  0.00000000000E+00 0. -1.
</event>
<event>
 7    1  0.2948184E-009  0.1197910E+03  0.7561462E-02  0.1243442E+00
         -3   -1    0    0    0  501 -0.00000000000E+00  0.00000000000E+00  0.75038593899E+02  0.75038593899E+02  0.00000000000E+00 0.  1.
          3   -1    0    0  501    0  0.00000000000E+00 -0.00000000000E+00 -0.27571204808E+03  0.27571204808E+03  0.00000000000E+00 0. -1.
         25    2    1    2    0    0 -0.82477961763E+02 -0.44332691656E+02 -0.10367536425E+03  0.18752275831E+03  0.12509277359E+03 0.  0.
          5    1    3    3  502    0  0.17669343516E+02  0.16563694268E+02 -0.55560849797E+02  0.60753947182E+02  0.41800000000E+01 0.  1.
         -5    1    3    3    0  502 -0.10014730528E+03 -0.60896385924E+02 -0.48114514450E+02  0.12676881112E+03  0.41800000000E+01 0.  1.
        -11    1    1    2    0    0  0.54121931206E+02  0.13394460742E+02  0.19070322217E+01  0.55787380185E+02  0.00000000000E+00 0.  1.
         11    1    1    2    0    0  0.28356030557E+02  0.30938230914E+02 -0.98905122157E+02  0.10744050349E+03  0.00000000000E+00 0. -1.
</event>
<event>
 7    1  0.2810263E-009  0.9161047E+02  0.7561462E-02  0.1298998E+00
          1   -1    0    0  501    0  0.00000000000E+00  0.00000000000E+00  0.39958552511E+02  0.39958552511E+02  0.00000000000E+00 0. -1.
         -1   -1    0    0    0  501 -0.00000000000E+00 -0.00000000000E+00 -0.43812015952E+03  0.43812015952E+03  0.00000000000E+00 0.  1.
         25    2    1    2    0    0 -0.71300688412E+02 -0.20140308092E+02 -0.19539791047E+03  0.24355156433E+03  0.12509037091E+03 0.  0.
          5    1    3    3  502    0 -0.18432129482E+02 -0.34653403543E+02  0.11183334310E+01  0.39488287428E+02  0.41800000000E+01 0.  1.
         -5    1    3    3    0  502 -0.52868558930E+02  0.14513095451E+02 -0.19651624390E+03  0.20406327690E+03  0.41800000000E+01 0.  1.
        -11    1    1    2    0    0  0.34719916561E+02 -0.15200162699E+02 -0.16312618853E+02  0.41262805114E+02  0.00000000000E+00 0. -1.
         11    1    1    2    0    0  0.36580771851E+02  0.35340470791E+02 -0.18645107769E+03  0.19326434259E+03  0.00000000000E+00 0.  1.
</event>
<event>
 7    1  0.2810263E-009  0.1168597E+03  0.7561462E-02  0.1248369E+00
          2   -1    0    0  501    0  0.00000000000E+00  0.00000000000E+00  0.72588439232E+03  0.72588439232E+03  0.00000000000E+00 0.  1.
         -2   -1    0    0    0  501 -0.00000000000E+00 -0.00000000000E+00 -0.27307002951E+02  0.27307002951E+02  0.00000000000E+00 0. -1.
         25    2    1    2    0    0 -0.69680752277E+02 -0.38041322422E+01  0.53523340708E+03  0.55406956916E+03  0.12509359996E+03 0.  0.
          5    1    3    3  502    0 -0.43677437326E+02 -0.53549755164E+02  0.15586443805E+03  0.17054761874E+03  0.41800000000E+01 0.  1.
         -5    1    3    3    0  502 -0.26003314951E+02  0.49745622922E+02  0.37936896903E+03  0.38352195041E+03  0.41800000000E+01 0.  1.
        -11    1    1    2    0    0  0.27490846555E+02 -0.39251664824E+02  0.42392476947E+02  0.63980949801E+02  0.00000000000E+00 0. -1.
         11    1    1    2    0    0  0.42189905722E+02  0.43055797066E+02  0.12095150534E+03  0.13514087631E+03  0.00000000000E+00 0.  1.
</event>
<event>
 7    1  0.2810263E-009  0.7082678E+02  0.7561462E-02  0.1357304E+00
          4   -1    0    0  501    0  0.00000000000E+00  0.00000000000E+00  0.19846094742E+03  0.19846094742E+03  0.00000000000E+00 0. -1.
         -4   -1    0    0    0  501 -0.00000000000E+00 -0.00000000000E+00 -0.70578695459E+02  0.70578695459E+02  0.00000000000E+00 0.  1.
         25    2    1    2    0    0  0.13687575734E+02  0.34824453176E+02  0.38524529531E+02  0.13612811007E+03  0.12508649291E+03 0.  0.
          5    1    3    3  502    0 -0.49041444580E+01 -0.10273731989E+01 -0.43827853761E+02  0.44310938761E+02  0.41800000000E+01 0.  1.
         -5    1    3    3    0  502  0.18591720192E+02  0.35851826375E+02  0.82352383292E+02  0.91817171313E+02  0.41800000000E+01 0.  1.
        -11    1    1    2    0    0 -0.30919806885E+02  0.20155901671E+02  0.17617720344E+02  0.40898397280E+02  0.00000000000E+00 0.  1.
         11    1    1    2    0    0  0.17232231151E+02 -0.54980354848E+02  0.71740002082E+02  0.92013135521E+02  0.00000000000E+00 0. -1.
</event>
<event>
 7    1  0.2810263E-009  0.7623236E+02  0.7561462E-02  0.1340097E+00
          3   -1    0    0  501    0  0.00000000000E+00  0.00000000000E+00  0.41194753536E+02  0.41194753536E+02  0.00000000000E+00 0. -1.
         -3   -1    0    0    0  501 -0.00000000000E+00 -0.00000000000E+00 -0.32385779387E+03  0.32385779387E+03  0.00000000000E+00 0.  1.
         25    2    1    2    0    0  0.35029349962E+02 -0.66530966745E+01 -0.13652005943E+03  0.18856350692E+03  0.12508857046E+03 0.  0.
          5    1    3    3  502    0  0.30912247934E+02  0.24463082632E+02 -0.14925825301E+03  0.15443285912E+03  0.41800000000E+01 0. -1.
         -5    1    3    3    0  502  0.41171020279E+01 -0.31116179306E+02  0.12738193575E+02  0.34130647800E+02  0.41800000000E+01 0. -1.
        -11    1    1    2    0    0 -0.45653262286E+02  0.30600515515E+02 -0.42192156496E+02  0.69287733236E+02  0.00000000000E+00 0. -1.
         11    1    1    2    0    0  0.10623912324E+02 -0.23947418841E+02 -0.10395082441E+03  0.10720130726E+03  0.00000000000E+00 0.  1.
</event>
<event>
 7    1  0.2810263E-009  0.1029879E+03  0.7561462E-02  0.1274135E+00
          2   -1    0    0  501    0  0.00000000000E+00  0.00000000000E+00  0.85005595438E+02  0.85005595438E+02  0.00000000000E+00 0. -1.
         -2   -1    0    0    0  501 -0.00000000000E+00 -0.00000000000E+00 -0.21998026871E+03  0.21998026871E+03  0.00000000000E+00 0.  1.
         25    2    1    2    0    0  0.34041654229E+02  0.62046783853E+02 -0.24717801302E+02  0.14583442205E+03  0.12509225134E+03 0.  0.
          5    1    3    3  502    0  0.51847714488E+02 -0.14627889644E+00  0.30828285085E+02  0.60465382298E+02  0.41800000000E+01 0. -1.
         -5    1    3    3    0  502 -0.17806060259E+02  0.62193062749E+02 -0.55546086387E+02  0.85369039757E+02  0.41800000000E+01 0. -1.
        -11    1    1    2    0    0 -0.48603858075E+02 -0.41272982716E+02 -0.11669361289E+03  0.13297816893E+03  0.00000000000E+00 0.  1.
         11    1    1    2    0    0  0.14562203847E+02 -0.20773801137E+02  0.64367409197E+01  0.26173273166E+02  0.00000000000E+00 0. -1.
</event>
<event>
 7    1  0.2810263E-009  0.2590563E+03  0.7561462E-02  0.1107712E+00
         -2   -1    0    0    0  501 -0.00000000000E+00  0.00000000000E+00  0.28280699055E+03  0.28280699055E+03  0.00000000000E+00 0.  1.
          2   -1    0    0  501    0  0.00000000000E+00 -0.00000000000E+00 -0.39075713832E+03  0.39075713832E+03  0.00000000000E+00 0. -1.
         25    2    1    2    0    0  0.10903474394E+03 -0.23059399026E+03 -0.24064860620E+03  0.37232281592E+03  0.12510141429E+03 0.  0.
          5    1    3    3  502    0  0.64133921639E+02 -0.18772071481E+03 -0.10823646433E+03  0.22601953740E+03  0.41800000000E+01 0. -1.
         -5    1    3    3    0  502  0.44900822304E+02 -0.42873275449E+02 -0.13241214187E+03  0.14630327852E+03  0.41800000000E+01 0. -1.
        -11    1    1    2    0    0 -0.52926433907E+02  0.72849930385E+02  0.41206775002E+01  0.90140444564E+02  0.00000000000E+00 0. -1.
         11    1    1    2    0    0 -0.56108310036E+02  0.15774405988E+03  0.12857778094E+03  0.21110086838E+03  0.00000000000E+00 0.  1.
</event>
<event>
 7    1  0.2810263E-009  0.1069449E+03  0.7561462E-02  0.1266334E+00
         -2   -1    0    0    0  501 -0.00000000000E+00  0.00000000000E+00  0.10445768399E+03  0.10445768399E+03  0.00000000000E+00 0.  1.
          2   -1    0    0  501    0  0.00000000000E+00 -0.00000000000E+00 -0.15810197779E+03  0.15810197779E+03  0.00000000000E+00 0. -1.
         25    2    1    2    0    0 -0.81081067799E+01  0.58375833313E+02  0.29525268936E+01  0.13830408990E+03  0.12508327050E+03 0.  0.
          5    1    3    3  502    0  0.47570956331E+02 -0.10693118755E+02  0.67919101403E+01  0.49405881414E+02  0.41800000000E+01 0. -1.
         -5    1    3    3    0  502 -0.55679063110E+02  0.69068952068E+02 -0.38393832468E+01  0.88898208488E+02  0.41800000000E+01 0. -1.
        -11    1    1    2    0    0 -0.13983355966E+02 -0.50946059572E+02 -0.76931372082E+02  0.93324547898E+02  0.00000000000E+00 0. -1.
         11    1    1    2    0    0  0.22091462746E+02 -0.74297737406E+01  0.20334551393E+02  0.30931023980E+02  0.00000000000E+00 0.  1.
</event>
<event>
 7    1  0.2810263E-009  0.1013052E+03  0.7561462E-02  0.1277575E+00
         -2   -1    0    0    0  501 -0.00000000000E+00  0.00000000000E+00  0.13463778393E+02  0.13463778393E+02  0.00000000000E+00 0.  1.
          2   -1    0    0  501    0  0.00000000000E+00 -0.00000000000E+00 -0.12654172756E+04  0.12654172756E+04  0.00000000000E+00 0. -1.
         25    2    1    2    0    0  0.45790902101E+02  0.35756726762E+02 -0.86385118658E+03  0.87479262337E+03  0.12509161089E+03 0.  0.
          5    1    3    3  502    0  0.18676791114E+02  0.74549707298E+02 -0.69918478795E+03  0.70340836040E+03  0.41800000000E+01 0.  1.
         -5    1    3    3    0  502  0.27114110986E+02 -0.38792980536E+02 -0.16466639863E+03  0.17138426297E+03  0.41800000000E+01 0.  1.
        -11    1    1    2    0    0  0.11265782150E+02 -0.97659700214E+00 -0.11020013029E+01  0.11361601824E+02  0.00000000000E+00 0.  1.
         11    1    1    2    0    0 -0.57056684250E+02 -0.34780129759E+02 -0.38700030930E+03  0.39272682878E+03  0.00000000000E+00 0. -1.
</event>
<event>
 7    1  0.2810263E-009  0.9656098E+02  0.7561462E-02  0.1287699E+00
         -2   -1    0    0    0  501 -0.00000000000E+00  0.00000000000E+00  0.13909522497E+03  0.13909522497E+03  0.00000000000E+00 0.  1.
          2   -1    0    0  501    0  0.00000000000E+00 -0.00000000000E+00 -0.94515454423E+02  0.94515454423E+02  0.00000000000E+00 0. -1.
         25    2    1    2    0    0  0.16979928964E+02 -0.34573516604E+02  0.34404194036E+02  0.13532760387E+03  0.12508503413E+03 0.  0.
          5    1    3    3  502    0 -0.40202229187E+02  0.73610160209E+01 -0.20153050006E+02  0.45760480909E+02  0.41800000000E+01 0.  1.
         -5    1    3    3    0  502  0.57182158151E+02 -0.41934532625E+02  0.54557244042E+02  0.89567122957E+02  0.41800000000E+01 0.  1.
        -11    1    1    2    0    0 -0.44911131796E+02  0.17091029983E+02 -0.21438504760E+02  0.52618652125E+02  0.00000000000E+00 0. -1.
         11    1    1    2    0    0  0.27931202832E+02  0.17482486621E+02  0.31614081276E+02  0.45664423406E+02  0.00000000000E+00 0.  1.
</event>
<event>
 7    1  0.2810263E-009  0.1047098E+03  0.7561462E-02  0.1270692E+00
         -2   -1    0    0    0  501 -0.00000000000E+00  0.00000000000E+00  0.32621282619E+02  0.32621282619E+02  0.00000000000E+00 0.  1.
          2   -1    0    0  501    0  0.00000000000E+00 -0.00000000000E+00 -0.44186211770E+03  0.44186211770E+03  0.00000000000E+00 0. -1.
         25    2    1    2    0    0  0.46066952058E+02 -0.29655244865E+02 -0.26830184798E+03  0.30105573966E+03  0.12508828535E+03 0.  0.
          5    1    3    3  502    0  0.70506167717E+02 -0.54392395897E+02 -0.12497603668E+03  0.15351265277E+03  0.41800000000E+01 0.  1.
         -5    1    3    3    0  502 -0.24439215658E+02  0.24737151031E+02 -0.14332581130E+03  0.14754308689E+03  0.41800000000E+01 0.  1.
        -11    1    1    2    0    0 -0.40524680530E+02 -0.12750118390E+02 -0.11687398522E+03  0.12435571428E+03  0.00000000000E+00 0. -1.
         11    1    1    2    0    0 -0.55422715278E+01  0.42405363255E+02 -0.24065001877E+02  0.49071946383E+02  0.00000000000E+00 0.  1.
</event>
<event>
 7    1  0.2810263E-009  0.1307708E+03  0.7561462E-02  0.1226317E+00
          1   -1    0    0  501    0  0.00000000000E+00  0.00000000000E+00  0.14278212449E+03  0.14278212449E+03  0.00000000000E+00 0. -1.
         -1   -1    0    0    0  501 -0.00000000000E+00 -0.00000000000E+00 -0.14945821542E+03  0.14945821542E+03  0.00000000000E+00 0.  1.
         25    2    1    2    0    0  0.80329303193E+02 -0.19213363554E+02 -0.50751276144E+02  0.15825359940E+03  0.12508620788E+03 0.  0.
          5    1    3    3  502    0  0.78309258096E+02  0.41421715516E+02 -0.35718401107E+02  0.95610538109E+02  0.41800000000E+01 0. -1.
         -5    1    3    3    0  502  0.20200450975E+01 -0.60635079070E+02 -0.15032875037E+02  0.62643061291E+02  0.41800000000E+01 0. -1.
        -11    1    1    2    0    0 -0.44647238520E+02  0.48469114938E+02 -0.56628041281E+01  0.66141502560E+02  0.00000000000E+00 0.  1.
         11    1    1    2    0    0 -0.35682064674E+02 -0.29255751385E+02  0.49737989341E+02  0.67845237947E+02  0.00000000000E+00 0. -1.
</event>
<event>
 7    1  0.2810263E-009  0.1139280E+03  0.7561462E-02  0.1253464E+00
         -2   -1    0    0    0  501 -0.00000000000E+00  0.00000000000E+00  0.71991148198E+02  0.71991148198E+02  0.00000000000E+00 0.  1.
          2   -1    0    0  501    0  0.00000000000E+00 -0.00000000000E+00 -0.20275719149E+03  0.20275719149E+03  0.00000000000E+00 0. -1.
         25    2    1    2    0    0 -0.13212957704E+02 -0.45220620671E+02 -0.43161593578E+02  0.14046307799E+03  0.12508983305E+03 0.  0.
          5    1    3    3  502    0 -0.22716510781E+02  0.40748918252E+02 -0.19132185127E+02  0.50596710451E+02  0.41800000000E+01 0.  1.
         -5    1    3    3    0  502  0.95035530765E+01 -0.85969538923E+02 -0.24029408451E+02  0.89866367536E+02  0.41800000000E+01 0.  1.
        -11    1    1    2    0    0  0.46630973936E+02  0.38186600486E+02 -0.78449398451E+02  0.98929127684E+02  0.00000000000E+00 0. -1.
         11    1    1    2    0    0 -0.33418016232E+02  0.70340201842E+01 -0.91550512600E+01  0.35356134014E+02  0.00000000000E+00 0.  1.
</event>
<event>
 7    1  0.2810263E-009  0.1560592E+03  0.7561462E-02  0.1193219E+00
          1   -1    0    0  501    0  0.00000000000E+00  0.00000000000E+00  0.40547088913E+02  0.40547088913E+02  0.00000000000E+00 0. -1.
         -1   -1    0    0    0  501 -0.00000000000E+00 -0.00000000000E+00 -0.69607085033E+03  0.69607085033E+03  0.00000000000E+00 0.  1.
         25    2    1    2    0    0 -0.11653731201E+03 -0.46913363305E+02 -0.40699394987E+03  0.44393057271E+03  0.12509384240E+03 0.  0.
          5    1    3    3  502    0 -0.24988213163E+01 -0.46197403943E+02 -0.22011719039E+03  0.22496553990E+03  0.41800000000E+01 0.  1.
         -5    1    3    3    0  502 -0.11403849069E+03 -0.71595936220E+00 -0.18687675949E+03  0.21896503281E+03  0.41800000000E+01 0.  1.
        -11    1    1    2    0    0  0.11049351238E+03  0.64996862853E+01 -0.20506978397E+03  0.23303364241E+03  0.00000000000E+00 0. -1.
         11    1    1    2    0    0  0.60437996305E+01  0.40413677020E+02 -0.43460027578E+02  0.59653724120E+02  0.00000000000E+00 0.  1.
</event>
<event>
 7    1  0.2810263E-009  0.1045094E+03  0.7561462E-02  0.1271089E+00
          2   -1    0    0  501    0  0.00000000000E+00  0.00000000000E+00  0.95592695276E+03  0.95592695276E+03  0.00000000000E+00 0. -1.
         -2   -1    0    0    0  501 -0.00000000000E+00 -0.00000000000E+00 -0.16775471317E+02  0.16775471317E+02  0.00000000000E+00 0.  1.
         25    2    1    2    0    0  0.20591403695E+02 -0.65637990014E+01  0.75945423370E+03  0.76999075338E+03  0.12509171769E+03 0.  0.
          5    1    3    3  502    0  0.67459859650E+02 -0.30427827480E+02  0.43169913842E+03  0.43801632831E+03  0.41800000000E+01 0. -1.
         -5    1    3    3    0  502 -0.46868455956E+02  0.23864028479E+02  0.32775509528E+03  0.33197442507E+03  0.41800000000E+01 0. -1.
        -11    1    1    2    0    0 -0.30379230470E+02 -0.30949051859E+02  0.14261747868E+03  0.14906537720E+03  0.00000000000E+00 0. -1.
         11    1    1    2    0    0  0.97878267755E+01  0.37512850861E+02  0.37079769067E+02  0.53646293504E+02  0.00000000000E+00 0.  1.
</event>
<event>
 7    1  0.2810263E-009  0.1579153E+03  0.7561462E-02  0.1191071E+00
          2   -1    0    0  501    0  0.00000000000E+00  0.00000000000E+00  0.20056246770E+03  0.20056246770E+03  0.00000000000E+00 0. -1.
         -2   -1    0    0    0  501 -0.00000000000E+00 -0.00000000000E+00 -0.17167152750E+03  0.17167152750E+03  0.00000000000E+00 0.  1.
         25    2    1    2    0    0 -0.12877036615E+03  0.36850538137E+02  0.83571641060E+02  0.20142226793E+03  0.12508773509E+03 0.  0.
          5    1    3    3  502    0 -0.26575990863E+02 -0.42740631022E+02  0.40874063364E+02  0.64970811034E+02  0.41800000000E+01 0. -1.
         -5    1    3    3    0  502 -0.10219437529E+03  0.79591169159E+02  0.42697577696E+02  0.13645145690E+03  0.41800000000E+01 0. -1.
        -11    1    1    2    0    0  0.23571684936E+02 -0.15985972407E+02 -0.56802538078E+02  0.63542930186E+02  0.00000000000E+00 0.  1.
         11    1    1    2    0    0  0.10519868122E+03 -0.20864565729E+02  0.21218372213E+01  0.10726879708E+03  0.00000000000E+00 0. -1.
</event>
<event>
 7    1  0.2810263E-009  0.8516310E+02  0.7561462E-02  0.1315007E+00
          1   -1    0    0  501    0  0.00000000000E+00  0.00000000000E+00  0.44302392778E+02  0.44302392778E+02  0.00000000000E+00 0. -1.
         -1   -1    0    0    0  501 -0.00000000000E+00 -0.00000000000E+00 -0.35742210159E+03  0.35742210159E+03  0.00000000000E+00 0.  1.
         25    2    1    2    0    0  0.12146771008E+00 -0.65767423878E+02 -0.17265658144E+03  0.22312489354E+03  0.12509617981E+03 0.  0.
          5    1    3    3  502    0 -0.49668868133E+01 -0.39962349813E+02 -0.18805357778E+03  0.19236236608E+03  0.41800000000E+01 0. -1.
         -5    1    3    3    0  502  0.50883545234E+01 -0.25805074064E+02  0.15396996342E+02  0.30762527457E+02  0.41800000000E+01 0. -1.
        -11    1    1    2    0    0 -0.28578895456E+02 -0.30476393546E+01 -0.14307338725E+02  0.32105160216E+02  0.00000000000E+00 0. -1.
         11    1    1    2    0    0  0.28457427746E+02  0.68815063232E+02 -0.12615578865E+03  0.14649444061E+03  0.00000000000E+00 0.  1.
</event>
<event>
 7    1  0.2810263E-009  0.1675893E+03  0.7561462E-02  0.1180385E+00
         -2   -1    0    0    0  501 -0.00000000000E+00  0.00000000000E+00  0.36270809462E+02  0.36270809462E+02  0.00000000000E+00 0.  1.
          2   -1    0    0  501    0  0.00000000000E+00 -0.00000000000E+00 -0.10537222029E+04  0.10537222029E+04  0.00000000000E+00 0. -1.
         25    2    1    2    0    0 -0.14593211924E+03 -0.36745658962E+02 -0.36608026336E+03  0.41510022494E+03  0.12508801160E+03 0.  0.
          5    1    3    3  502    0 -0.92786302384E+02 -0.47309925268E+02 -0.10327141797E+03  0.14673099573E+03  0.41800000000E+01 0. -1.
         -5    1    3    3    0  502 -0.53145816856E+02  0.10564266306E+02 -0.26280884539E+03  0.26836922921E+03  0.41800000000E+01 0. -1.
        -11    1    1    2    0    0  0.81115579019E+02 -0.27191624269E+02 -0.30966179653E+03  0.32126243139E+03  0.00000000000E+00 0.  1.
         11    1    1    2    0    0  0.64816540221E+02  0.63937283231E+02 -0.34170933353E+03  0.35363035601E+03  0.00000000000E+00 0. -1.
</event>
<event>
 7    1  0.2810263E-009  0.1179721E+03  0.7561462E-02  0.1246480E+00
         -2   -1    0    0    0  501 -0.00000000000E+00  0.00000000000E+00  0.23330480765E+03  0.23330480765E+03  0.00000000000E+00 0.  1.
          2   -1    0    0  501    0  0.00000000000E+00 -0.00000000000E+00 -0.13545666115E+03  0.13545666115E+03  0.00000000000E+00 0. -1.
         25    2    1    2    0    0 -0.21958082324E+02 -0.46298520279E+02 -0.83643151460E+02  0.15896151898E+03  0.12508747887E+03 0.  0.
          5    1    3    3  502    0 -0.21390861469E+02  0.40787651771E+02 -0.41439416331E+02  0.62095886476E+02  0.41800000000E+01 0.  1.
         -5    1    3    3    0  502 -0.56722085511E+00 -0.87086172050E+02 -0.42203735129E+02  0.96865632505E+02  0.41800000000E+01 0.  1.
        -11    1    1    2    0    0  0.41262488791E+02 -0.10452408902E+02  0.52710813325E+02  0.67751573225E+02  0.00000000000E+00 0. -1.
         11    1    1    2    0    0 -0.19304406467E+02  0.56750929181E+02  0.12878048464E+03  0.14204837660E+03  0.00000000000E+00 0.  1.
</event>
<event>
 7    1  0.2810263E-009  0.1036087E+03  0.7561462E-02  0.1272885E+00
          2   -1    0    0  501    0  0.00000000000E+00  0.00000000000E+00  0.29100769310E+03  0.29100769310E+03  0.00000000000E+00 0.  1.
         -2   -1    0    0    0  501 -0.00000000000E+00 -0.00000000000E+00 -0.63471994024E+02  0.63471994024E+02  0.00000000000E+00 0. -1.
         25    2    1    2    0    0 -0.17372376487E+02  0.25986528013E+02  0.28532256015E+02  0.13204735417E+03  0.12508123363E+03 0.  0.
          5    1    3    3  502    0 -0.57478846868E+02  0.40721957383E+02  0.47550435818E+02  0.85091785719E+02  0.41800000000E+01 0.  1.
         -5    1    3    3    0  502  0.40106470381E+02 -0.14735429370E+02 -0.19018179802E+02  0.46955568447E+02  0.41800000000E+01 0.  1.
        -11    1    1    2    0    0 -0.11009586404E+02 -0.53242943507E+02  0.15022072576E+03  0.15975696690E+03  0.00000000000E+00 0. -1.
         11    1    1    2    0    0  0.28381962890E+02  0.27256415494E+02  0.48782717299E+02  0.62675366055E+02  0.00000000000E+00 0.  1.
</event>
<event>
 7    1  0.2810263E-009  0.9743503E+02  0.7561462E-02  0.1285784E+00
         -2   -1    0    0    0  501 -0.00000000000E+00  0.00000000000E+00  0.35491732792E+02  0.35491732792E+02  0.00000000000E+00 0.  1.
          2   -1    0    0  501    0  0.00000000000E+00 -0.00000000000E+00 -0.43791436280E+03  0.43791436280E+03  0.00000000000E+00 0. -1.
         25    2    1    2    0    0  0.49221745881E+02  0.21462670491E+02 -0.27811925381E+03  0.30964696763E+03  0.12508996255E+03 0.  0.
          5    1    3    3  502    0 -0.73543885812E+01 -0.17557193009E+02  0.34407669411E+01  0.19790233321E+02  0.41800000000E+01 0. -1.
         -5    1    3    3    0  502  0.56576134463E+02  0.39019863500E+02 -0.28156002075E+03  0.28985673431E+03  0.41800000000E+01 0. -1.
        -11    1    1    2    0    0 -0.73557235935E+02 -0.31736837974E+02 -0.90641256945E+02  0.12096996034E+03  0.00000000000E+00 0.  1.
         11    1    1    2    0    0  0.24335490053E+02  0.10274167484E+02 -0.33662119251E+02  0.42789167626E+02  0.00000000000E+00 0. -1.
</event>
<event>
 7    1  0.2810263E-009  0.8454585E+02  0.7561462E-02  0.1316624E+00
          2   -1    0    0  501    0  0.00000000000E+00  0.00000000000E+00  0.10392393574E+04  0.10392393574E+04  0.00000000000E+00 0.  1.
         -2   -1    0    0    0  501 -0.00000000000E+00 -0.00000000000E+00 -0.13740735988E+02  0.13740735988E+02  0.00000000000E+00 0. -1.
         25    2    1    2    0    0  0.42930445075E+02  0.20003138973E+02  0.65445201494E+03  0.66797918006E+03  0.12508235868E+03 0.  0.
          5    1    3    3  502    0  0.33528191074E+02  0.48774268598E+02  0.13302669430E+03  0.14565933774E+03  0.41800000000E+01 0.  1.
         -5    1    3    3    0  502  0.94022540010E+01 -0.28771129625E+02  0.52142532064E+03  0.52231984233E+03  0.41800000000E+01 0.  1.
        -11    1    1    2    0    0 -0.42175580610E+02 -0.40629156324E+02  0.35224961688E+03  0.35708444454E+03  0.00000000000E+00 0.  1.
         11    1    1    2    0    0 -0.75486446473E+00  0.20626017351E+02  0.18796989628E+02  0.27916468817E+02  0.00000000000E+00 0. -1.
</event>
<event>
 7    1  0.3475929E-009  0.8855628E+02  0.7561462E-02  0.1306386E+00
         -2   -1    0    0    0  501 -0.00000000000E+00  0.00000000000E+00  0.72220758434E+02  0.72220758434E+02  0.00000000000E+00 0. -1.
          2   -1    0    0  501    0  0.00000000000E+00 -0.00000000000E+00 -0.23885594573E+03  0.23885594573E+03  0.00000000000E+00 0.  1.
         25    2    1    2    0    0 -0.68698163281E+02  0.26078739759E+02 -0.93547698910E+02  0.17262180953E+03  0.12509028279E+03 0.  0.
          5    1    3    3  502    0 -0.79035658782E+02  0.36200026646E+02 -0.98584290853E+01  0.87588459926E+02  0.41800000000E+01 0.  1.
         -5    1    3    3    0  502  0.10337495501E+02 -0.10121286887E+02 -0.83689269824E+02  0.85033349606E+02  0.41800000000E+01 0.  1.
        -11    1    1    2    0    0  0.56111171692E+02 -0.27253992078E+02  0.19004991934E+01  0.62408777988E+02  0.00000000000E+00 0. -1.
         11    1    1    2    0    0  0.12586991589E+02  0.11752523188E+01 -0.74987987580E+02  0.76046116643E+02  0.00000000000E+00 0.  1.
</event>
<event>
 7    1  0.2810263E-009  0.1720714E+03  0.7561462E-02  0.1175705E+00
          2   -1    0    0  501    0  0.00000000000E+00  0.00000000000E+00  0.33414520126E+03  0.33414520126E+03  0.00000000000E+00 0. -1.
         -2   -1    0    0    0  501 -0.00000000000E+00 -0.00000000000E+00 -0.14580370615E+03  0.14580370615E+03  0.00000000000E+00 0.  1.
         25    2    1    2    0    0  0.14623883019E+03  0.21102013962E+02 -0.38374158158E+02  0.19735697214E+03  0.12508440347E+03 0.  0.
          5    1    3    3  502    0  0.11445829514E+03  0.68641327082E+02 -0.41800935746E+02  0.13991827522E+03  0.41800000000E+01 0.  1.
         -5    1    3    3    0  502  0.31780535048E+02 -0.47539313120E+02  0.34267775887E+01  0.57438696926E+02  0.41800000000E+01 0.  1.
        -11    1    1    2    0    0 -0.10486075002E+03 -0.33501194835E+02  0.20837114791E+03  0.23566213576E+03  0.00000000000E+00 0.  1.
         11    1    1    2    0    0 -0.41378080176E+02  0.12399180873E+02  0.18344505349E+02  0.46929799508E+02  0.00000000000E+00 0. -1.
</event>
<event>
 7    1  0.2810263E-009  0.8689630E+02  0.7561462E-02  0.1310547E+00
          3   -1    0    0  501    0  0.00000000000E+00  0.00000000000E+00  0.95046193393E+03  0.95046193393E+03  0.00000000000E+00 0.  1.
         -3   -1    0    0    0  501 -0.00000000000E+00 -0.00000000000E+00 -0.14014277688E+02  0.14014277688E+02  0.00000000000E+00 0. -1.
         25    2    1    2    0    0 -0.86109185692E+01  0.12038063656E+02  0.69742785534E+03  0.70871149557E+03  0.12508919878E+03 0.  0.
          5    1    3    3  502    0  0.38342834623E+02  0.19213030025E+02  0.58506871003E+03  0.58665337410E+03  0.41800000000E+01 0.  1.
         -5    1    3    3    0  502 -0.46953753192E+02 -0.71749663692E+01  0.11235914531E+03  0.12205812147E+03  0.41800000000E+01 0.  1.
        -11    1    1    2    0    0 -0.17649032071E+01  0.34902028296E+02  0.15567617641E+03  0.15955042577E+03  0.00000000000E+00 0.  1.
         11    1    1    2    0    0  0.10375821776E+02 -0.46940091953E+02  0.83343624493E+02  0.96214290278E+02  0.00000000000E+00 0. -1.
</event>
<event>
 7    1  0.2810263E-009  0.1234770E+03  0.7561462E-02  0.1237469E+00
          2   -1    0    0  501    0  0.00000000000E+00  0.00000000000E+00  0.59269925076E+03  0.59269925076E+03  0.00000000000E+00 0. -1.
         -2   -1    0    0    0  501 -0.00000000000E+00 -0.00000000000E+00 -0.35824671680E+02  0.35824671680E+02  0.00000000000E+00 0.  1.
         25    2    1    2    0    0 -0.45442858512E+02 -0.74863039558E+02  0.39694826854E+03  0.42530537203E+03  0.12508878247E+03 0.  0.
          5    1    3    3  502    0 -0.40728677845E+02  0.24829381652E+02  0.18341753681E+03  0.18956473459E+03  0.41800000000E+01 0. -1.
         -5    1    3    3    0  502 -0.47141806664E+01 -0.99692421210E+02  0.21353073173E+03  0.23574063744E+03  0.41800000000E+01 0. -1.
        -11    1    1    2    0    0 -0.90830522014E+01  0.19304638521E+02  0.10695075074E+03  0.10905793868E+03  0.00000000000E+00 0. -1.
         11    1    1    2    0    0  0.54525910713E+02  0.55558401037E+02  0.52975559802E+02  0.94160611729E+02  0.00000000000E+00 0.  1.
</event>
<event>
 7    1  0.2810263E-009  0.2817726E+03  0.7561462E-02  0.1094725E+00
         -2   -1    0    0    0  501 -0.00000000000E+00  0.00000000000E+00  0.80701375010E+02  0.80701375010E+02  0.00000000000E+00 0.  1.
          2   -1    0    0  501    0  0.00000000000E+00 -0.00000000000E+00 -0.10951195159E+04  0.10951195159E+04  0.00000000000E+00 0. -1.
         25    2    1    2    0    0 -0.19826765037E+03 -0.19085482039E+03 -0.47307242628E+03  0.56140924224E+03  0.12508874095E+03 0.  0.
          5    1    3    3  502    0 -0.39743204982E+02 -0.34490774806E+02 -0.21094601918E+03  0.21745075602E+03  0.41800000000E+01 0.  1.
         -5    1    3    3    0  502 -0.15852444539E+03 -0.15636404558E+03 -0.26212640711E+03  0.34395848622E+03  0.41800000000E+01 0.  1.
        -11    1    1    2    0    0  0.33097404503E+02 -0.31657135451E+01 -0.92361094199E+02  0.98163290739E+02  0.00000000000E+00 0.  1.
         11    1    1    2    0    0  0.16517024587E+03  0.19402053394E+03 -0.44898462044E+03  0.51624835796E+03  0.00000000000E+00 0. -1.
</event>
<event>
 7    1  0.2810263E-009  0.1221802E+03  0.7561462E-02  0.1239543E+00
         -1   -1    0    0    0  501 -0.00000000000E+00  0.00000000000E+00  0.42064382850E+02  0.42064382850E+02  0.00000000000E+00 0.  1.
          1   -1    0    0  501    0  0.00000000000E+00 -0.00000000000E+00 -0.38328199799E+03  0.38328199799E+03  0.00000000000E+00 0. -1.
         25    2    1    2    0    0 -0.62476788375E+02  0.17209807097E+02 -0.21244177245E+03  0.25491248625E+03  0.12509733178E+03 0.  0.
          5    1    3    3  502    0 -0.19794013674E+02  0.65689610386E+02 -0.68268984753E+02  0.96876491314E+02  0.41800000000E+01 0.  1.
         -5    1    3    3    0  502 -0.42682774701E+02 -0.48479803289E+02 -0.14417278770E+03  0.15803599494E+03  0.41800000000E+01 0.  1.
        -11    1    1    2    0    0  0.30373714765E+02  0.37016167570E+02 -0.65458144309E+02  0.81101959696E+02  0.00000000000E+00 0.  1.
         11    1    1    2    0    0  0.32103073610E+02 -0.54225974667E+02 -0.63317698382E+02  0.89331934896E+02  0.00000000000E+00 0. -1.
</event>
<event>
 7    1  0.2810263E-009  0.2094877E+03  0.7561462E-02  0.1141972E+00
         -2   -1    0    0    0  501 -0.00000000000E+00  0.00000000000E+00  0.60790127214E+02  0.60790127214E+02  0.00000000000E+00 0.  1.
          2   -1    0    0  501    0  0.00000000000E+00 -0.00000000000E+00 -0.10097734651E+04  0.10097734651E+04  0.00000000000E+00 0. -1.
         25    2    1    2    0    0 -0.19393972975E+03  0.27978979678E+02 -0.71864130472E+03  0.75530644083E+03  0.12508817939E+03 0.  0.
          5    1    3    3  502    0 -0.13477790765E+03  0.65467441214E+02 -0.36161594824E+03  0.39145195960E+03  0.41800000000E+01 0.  1.
         -5    1    3    3    0  502 -0.59161822107E+02 -0.37488461536E+02 -0.35702535648E+03  0.36385448123E+03  0.41800000000E+01 0.  1.
        -11    1    1    2    0    0  0.10370337131E+03  0.23189500999E+01 -0.17956763640E+03  0.20737478823E+03  0.00000000000E+00 0. -1.
         11    1    1    2    0    0  0.90236358441E+02 -0.30297929777E+02 -0.50774396752E+02  0.10788236324E+03  0.00000000000E+00 0.  1.
</event>
<event>
 7    1  0.2810263E-009  0.7203738E+02  0.7561462E-02  0.1353299E+00
          1   -1    0    0  501    0  0.00000000000E+00  0.00000000000E+00  0.38880774505E+02  0.38880774505E+02  0.00000000000E+00 0. -1.
         -1   -1    0    0    0  501 -0.00000000000E+00 -0.00000000000E+00 -0.34232712080E+03  0.34232712080E+03  0.00000000000E+00 0.  1.
         25    2    1    2    0    0 -0.38387252650E+02 -0.80114076399E+01 -0.18403545393E+03  0.22595237764E+03  0.12509062650E+03 0.  0.
          5    1    3    3  502    0 -0.95765422070E+01 -0.40140389032E+02 -0.17728599923E+03  0.18207349866E+03  0.41800000000E+01 0. -1.
         -5    1    3    3    0  502 -0.28810710443E+02  0.32128981392E+02 -0.67494547068E+01  0.43878878978E+02  0.41800000000E+01 0. -1.
        -11    1    1    2    0    0  0.34913997766E+02 -0.13512522910E+02 -0.12681858393E+03  0.13222907678E+03  0.00000000000E+00 0.  1.
         11    1    1    2    0    0  0.34732548838E+01  0.21523930550E+02  0.74076915662E+01  0.23026440892E+02  0.00000000000E+00 0. -1.
</event>
<event>
 7    1  0.2810263E-009  0.2388043E+03  0.7561462E-02  0.1120592E+00
          2   -1    0    0  501    0  0.00000000000E+00  0.00000000000E+00  0.15260318263E+04  0.15260318263E+04  0.00000000000E+00 0. -1.
         -2   -1    0    0    0  501 -0.00000000000E+00 -0.00000000000E+00 -0.37757262111E+02  0.37757262111E+02  0.00000000000E+00 0.  1.
         25    2    1    2    0    0  0.20094545577E+02 -0.21237196353E+03  0.81835989233E+03  0.85490711412E+03  0.12509044226E+03 0.  0.
          5    1    3    3  502    0  0.69910156817E+02 -0.86709590990E+02  0.34054288230E+03  0.35831956447E+03  0.41800000000E+01 0.  1.
         -5    1    3    3    0  502 -0.49815611240E+02 -0.12566237254E+03  0.47781701003E+03  0.49658754966E+03  0.41800000000E+01 0.  1.
        -11    1    1    2    0    0  0.32623173005E+02  0.46082192438E+02  0.13846368374E+03  0.14953271078E+03  0.00000000000E+00 0.  1.
         11    1    1    2    0    0 -0.52717718582E+02  0.16628977109E+03  0.53145098816E+03  0.55934926356E+03  0.00000000000E+00 0. -1.
</event>
<event>
 7    1  0.2810263E-009  0.1141415E+03  0.7561462E-02  0.1253087E+00
          1   -1    0    0  501    0  0.00000000000E+00  0.00000000000E+00  0.35180050257E+02  0.35180050257E+02  0.00000000000E+00 0. -1.
         -1   -1    0    0    0  501 -0.00000000000E+00 -0.00000000000E+00 -0.44309264672E+03  0.44309264672E+03  0.00000000000E+00 0.  1.
         25    2    1    2    0    0  0.42465467275E+02 -0.44658133700E+02 -0.22584244542E+03  0.26542436576E+03  0.12509044315E+03 0.  0.
          5    1    3    3  502    0  0.19307667805E+02  0.43293758740E+02 -0.91531477353E+02  0.10316307153E+03  0.41800000000E+01 0. -1.
         -5    1    3    3    0  502  0.23157799470E+02 -0.87951892440E+02 -0.13431096807E+03  0.16226129422E+03  0.41800000000E+01 0. -1.
        -11    1    1    2    0    0 -0.59882872078E+02  0.30495243742E+02 -0.64471671317E+02  0.93126337100E+02  0.00000000000E+00 0. -1.
         11    1    1    2    0    0  0.17417404804E+02  0.14162889958E+02 -0.11759847972E+03  0.11972199411E+03  0.00000000000E+00 0.  1.
</event>
<event>
 7    1  0.2810263E-009  0.1215812E+03  0.7561462E-02  0.1240511E+00
          1   -1    0    0  501    0  0.00000000000E+00  0.00000000000E+00  0.97467570943E+03  0.97467570943E+03  0.00000000000E+00 0. -1.
         -1   -1    0    0    0  501 -0.00000000000E+00 -0.00000000000E+00 -0.16295142090E+02  0.16295142090E+02  0.00000000000E+00 0.  1.
         25    2    1    2    0    0 -0.52464313855E+02  0.34576778783E+02  0.49646766322E+03  0.51582455768E+03  0.12508707293E+03 0.  0.
          5    1    3    3  502    0  0.22986012808E+02 -0.27332338142E+02  0.21257669927E+03  0.21559624061E+03  0.41800000000E+01 0. -1.
         -5    1    3    3    0  502 -0.75450326664E+02  0.61909116926E+02  0.28389096395E+03  0.30022831706E+03  0.41800000000E+01 0. -1.
        -11    1    1    2    0    0  0.48238292005E+02  0.21833344451E+02  0.18058958102E+03  0.18819198846E+03  0.00000000000E+00 0.  1.
         11    1    1    2    0    0  0.42260218505E+01 -0.56410123235E+02  0.28132332310E+03  0.28695430539E+03  0.00000000000E+00 0. -1.
</event>
<event>
 7    1  0.2810263E-009  0.1126901E+03  0.7561462E-02  0.1255668E+00
         -2   -1    0    0    0  501 -0.00000000000E+00  0.00000000000E+00  0.50330191926E+03  0.50330191926E+03  0.00000000000E+00 0.  1.
          2   -1    0    0  501    0  0.00000000000E+00 -0.00000000000E+00 -0.10094678835E+03  0.10094678835E+03  0.00000000000E+00 0. -1.
         25    2    1    2    0    0  0.74734448943E+02 -0.24409988236E+02  0.45077055899E+03  0.47436379120E+03  0.12508326891E+03 0.  0.
          5    1    3    3  502    0 -0.32038796927E+01 -0.26495500983E+02  0.32640096952E+03  0.32751693349E+03  0.41800000000E+01 0.  1.
         -5    1    3    3    0  502  0.77938328636E+02  0.20855127466E+01  0.12436958947E+03  0.14684685771E+03  0.41800000000E+01 0.  1.
        -11    1    1    2    0    0 -0.18585384187E+01  0.44622512394E+02 -0.21924393375E+02  0.49752404990E+02  0.00000000000E+00 0. -1.
         11    1    1    2    0    0 -0.72875910524E+02 -0.20212524158E+02 -0.26491034700E+02  0.80132511423E+02  0.00000000000E+00 0.  1.
</event>
<event>
 7    1  0.2810263E-009  0.8881705E+02  0.7561462E-02  0.1305742E+00
         -1   -1    0    0    0  501 -0.00000000000E+00  0.00000000000E+00  0.33587090499E+03  0.33587090499E+03  0.00000000000E+00 0.  1.
          1   -1    0    0  501    0  0.00000000000E+00 -0.00000000000E+00 -0.37333464851E+02  0.37333464851E+02  0.00000000000E+00 0. -1.
         25    2    1    2    0    0 -0.11049103389E+02  0.49989852286E+02  0.19468522969E+03  0.23700417991E+03  0.12509026588E+03 0.  0.
          5    1    3    3  502    0 -0.55012904424E+02  0.10895907988E+01  0.37921843116E+02  0.66956295048E+02  0.41800000000E+01 0. -1.
         -5    1    3    3    0  502  0.43963801035E+02  0.48900261487E+02  0.15676338658E+03  0.17004788486E+03  0.41800000000E+01 0. -1.
        -11    1    1    2    0    0  0.18335306033E+02 -0.28675352513E+02  0.45069701968E+01  0.34333250202E+02  0.00000000000E+00 0. -1.
         11    1    1    2    0    0 -0.72862026432E+01 -0.21314499773E+02  0.99345240244E+02  0.10186693972E+03  0.00000000000E+00 0.  1.
</event>
<event>
 7    1  0.2810263E-009  0.9457949E+02  0.7561462E-02  0.1292126E+00
         -2   -1    0    0    0  501 -0.00000000000E+00  0.00000000000E+00  0.11586911105E+03  0.11586911105E+03  0.00000000000E+00 0.  1.
          2   -1    0    0  501    0  0.00000000000E+00 -0.00000000000E+00 -0.11178332779E+03  0.11178332779E+03  0.00000000000E+00 0. -1.
         25    2    1    2    0    0  0.26203778848E+02 -0.69669324770E+00  0.18286449091E+02  0.12910711128E+03  0.12508848291E+03 0.  0.
          5    1    3    3  502    0  0.50104181154E+02  0.43484741173E+02  0.36103083545E+02  0.75645599512E+02  0.41800000000E+01 0. -1.
         -5    1    3    3    0  502 -0.23900402306E+02 -0.44181434420E+02 -0.17816634454E+02  0.53461511773E+02  0.41800000000E+01 0. -1.
        -11    1    1    2    0    0 -0.46347500067E+02 -0.12738604942E+02  0.23683607799E+02  0.53584289644E+02  0.00000000000E+00 0.  1.
         11    1    1    2    0    0  0.20143721219E+02  0.13435298190E+02 -0.37884273625E+02  0.44961037911E+02  0.00000000000E+00 0. -1.
</event>
<event>
 7    1  0.2810263E-009  0.9326930E+02  0.7561462E-02  0.1295122E+00
          1   -1    0    0  501    0  0.00000000000E+00  0.00000000000E+00  0.15373081958E+04  0.15373081958E+04  0.00000000000E+00 0. -1.
         -1   -1    0    0    0  501 -0.00000000000E+00 -0.00000000000E+00 -0.99640592621E+01  0.99640592621E+01  0.00000000000E+00 0.  1.
         25    2    1    2    0    0 -0.12168209692E+02 -0.48550168127E+02  0.10663396740E+04  0.10748174413E+04  0.12508816002E+03 0.  0.
          5    1    3    3  502    0 -0.25539589474E+02  0.71079643571E+01  0.86607426665E+03  0.86648998929E+03  0.41800000000E+01 0.  1.
         -5    1    3    3    0  502  0.13371379782E+02 -0.55658132484E+02  0.20026540731E+03  0.20832745204E+03  0.41800000000E+01 0.  1.
        -11    1    1    2    0    0  0.19129142674E+02  0.73735814900E+02  0.31114477462E+03  0.32033414628E+03  0.00000000000E+00 0.  1.
         11    1    1    2    0    0 -0.69609329822E+01 -0.25185646772E+02  0.14985968799E+03  0.15212066748E+03  0.00000000000E+00 0. -1.
</event>
<event>
 7    1  0.2810263E-009  0.1464239E+03  0.7561462E-02  0.1204937E+00
          1   -1    0    0  501    0  0.00000000000E+00  0.00000000000E+00  0.17326246763E+03  0.17326246763E+03  0.00000000000E+00 0. -1.
         -1   -1    0    0    0  501 -0.00000000000E+00 -0.00000000000E+00 -0.15932033778E+03  0.15932033778E+03  0.00000000000E+00 0.  1.
         25    2    1    2    0    0 -0.35215928984E+02  0.12052457911E+03  0.26991068525E+01  0.17726233754E+03  0.12509322647E+03 0.  0.
          5    1    3    3  502    0 -0.45125810640E+02  0.11868816609E+03  0.44073318679E+02  0.13447360104E+03  0.41800000000E+01 0.  1.
         -5    1    3    3    0  502  0.99098816563E+01  0.18364130203E+01 -0.41374211827E+02  0.42788736503E+02  0.41800000000E+01 0.  1.
        -11    1    1    2    0    0 -0.67635152277E+00 -0.11896266758E+03  0.97436581882E+01  0.11936294485E+03  0.00000000000E+00 0. -1.
         11    1    1    2    0    0  0.35892280507E+02 -0.15619115375E+01  0.14993648096E+01  0.35957523030E+02  0.00000000000E+00 0.  1.
</event>
<event>
 7    1  0.2810263E-009  0.1588349E+03  0.7561462E-02  0.1190018E+00
         -2   -1    0    0    0  501 -0.00000000000E+00  0.00000000000E+00  0.19581638580E+02  0.19581638580E+02  0.00000000000E+00 0.  1.
          2   -1    0    0  501    0  0.00000000000E+00 -0.00000000000E+00 -0.15855834405E+04  0.15855834405E+04  0.00000000000E+00 0. -1.
         25    2    1    2    0    0 -0.83658997256E+02 -0.10975104258E+03 -0.10047078867E+04  0.10218268614E+04  0.12509227753E+03 0.  0.
          5    1    3    3  502    0  0.71540208983E+01 -0.61500711163E+02 -0.17335520194E+03  0.18412771635E+03  0.41800000000E+01 0. -1.
         -5    1    3    3    0  502 -0.90813018155E+02 -0.48250331419E+02 -0.83135268479E+03  0.83769914507E+03  0.41800000000E+01 0. -1.
        -11    1    1    2    0    0  0.50412815387E+02  0.15486831749E+02 -0.12368963837E+03  0.13446345434E+03  0.00000000000E+00 0.  1.
         11    1    1    2    0    0  0.33246181870E+02  0.94264210833E+02 -0.43760427686E+03  0.44887476336E+03  0.00000000000E+00 0. -1.
</event>
<event>
 7    1  0.2810263E-009  0.1204104E+03  0.7561462E-02  0.1242422E+00
         -2   -1    0    0    0  501 -0.00000000000E+00  0.00000000000E+00  0.13699314333E+03  0.13699314333E+03  0.00000000000E+00 0.  1.
          2   -1    0    0  501    0  0.00000000000E+00 -0.00000000000E+00 -0.11903442882E+03  0.11903442882E+03  0.00000000000E+00 0. -1.
         25    2    1    2    0    0 -0.65087163669E+02  0.18394101505E+02  0.59937080692E+01  0.14232990383E+03  0.12508874907E+03 0.  0.
          5    1    3    3  502    0 -0.62410509733E+02 -0.44907756293E+02 -0.76621001586E+01  0.77381900204E+02  0.41800000000E+01 0.  1.
         -5    1    3    3    0  502 -0.26766539360E+01  0.63301857798E+02  0.13655808228E+02  0.64948003628E+02  0.41800000000E+01 0.  1.
        -11    1    1    2    0    0  0.68099640908E+02 -0.39685572961E+02  0.31273946374E+02  0.84797202282E+02  0.00000000000E+00 0.  1.
         11    1    1    2    0    0 -0.30124772389E+01  0.21291471456E+02 -0.19308939934E+02  0.28900466039E+02  0.00000000000E+00 0. -1.
</event>
<event>
 7    1  0.2810263E-009  0.1140301E+03  0.7561462E-02  0.1253284E+00
         -1   -1    0    0    0  501 -0.00000000000E+00  0.00000000000E+00  0.10778635321E+02  0.10778635321E+02  0.00000000000E+00 0.  1.
          1   -1    0    0  501    0  0.00000000000E+00 -0.00000000000E+00 -0.15389308844E+04  0.15389308844E+04  0.00000000000E+00 0. -1.
         25    2    1    2    0    0  0.54852658963E+01 -0.68539185505E+02 -0.93587297252E+03  0.94669570287E+03  0.12508726976E+03 0.  0.
          5    1    3    3  502    0  0.13827363361E+01 -0.91510598407E+02 -0.89314779516E+03  0.89783437113E+03  0.41800000000E+01 0.  1.
         -5    1    3    3    0  502  0.41025295602E+01  0.22971412902E+02 -0.42725177353E+02  0.48861331739E+02  0.41800000000E+01 0.  1.
        -11    1    1    2    0    0 -0.45329703618E+02  0.53567217369E+02 -0.39639683035E+03  0.40256015193E+03  0.00000000000E+00 0. -1.
         11    1    1    2    0    0  0.39844437721E+02  0.14971968136E+02 -0.19588244622E+03  0.20045366493E+03  0.00000000000E+00 0.  1.
</event>
<event>
 7    1  0.3846289E-009  0.1288737E+03  0.7561462E-02  0.1229137E+00
         -3   -1    0    0    0  501 -0.00000000000E+00  0.00000000000E+00  0.36829015005E+02  0.36829015005E+02  0.00000000000E+00 0.  1.
          3   -1    0    0  501    0  0.00000000000E+00 -0.00000000000E+00 -0.55943422404E+03  0.55943422404E+03  0.00000000000E+00 0. -1.
         25    2    1    2    0    0 -0.49296065388E+02 -0.77515422204E+02 -0.24110266886E+03  0.28673497868E+03  0.12509080031E+03 0.  0.
          5    1    3    3  502    0  0.37205600777E+02 -0.12646600556E+02 -0.10919265238E+03  0.11612364518E+03  0.41800000000E+01 0.  1.
         -5    1    3    3    0  502 -0.86501666165E+02 -0.64868821648E+02 -0.13191001648E+03  0.17061133350E+03  0.41800000000E+01 0.  1.
        -11    1    1    2    0    0  0.46533171671E+02  0.17142967396E+02 -0.50605370744E+02  0.70852811836E+02  0.00000000000E+00 0.  1.
         11    1    1    2    0    0  0.27628937174E+01  0.60372454808E+02 -0.23089716943E+03  0.23867544853E+03  0.00000000000E+00 0. -1.
</event>
<event>
 7    1  0.2810263E-009  0.1396555E+03  0.7561462E-02  0.1213793E+00
          2   -1    0    0  501    0  0.00000000000E+00  0.00000000000E+00  0.72462700361E+03  0.72462700361E+03  0.00000000000E+00 0. -1.
         -2   -1    0    0    0  501 -0.00000000000E+00 -0.00000000000E+00 -0.27760916306E+02  0.27760916306E+02  0.00000000000E+00 0.  1.
         25    2    1    2    0    0 -0.72293561277E+02  0.51838505104E+02  0.36419755168E+03  0.39522549211E+03  0.12509893425E+03 0.  0.
          5    1    3    3  502    0 -0.31358231388E+02 -0.38651219050E+02  0.16821951213E+03  0.17547801022E+03  0.41800000000E+01 0.  1.
         -5    1    3    3    0  502 -0.40935329889E+02  0.90489724155E+02  0.19597803955E+03  0.21974748189E+03  0.41800000000E+01 0.  1.
        -11    1    1    2    0    0  0.23533569055E+01  0.25543853220E+02  0.62683985633E+02  0.67729674301E+02  0.00000000000E+00 0. -1.
         11    1    1    2    0    0  0.69940204371E+02 -0.77382358325E+02  0.26998454999E+03  0.28943275350E+03  0.00000000000E+00 0.  1.
</event>
<event>
 7    1  0.2810263E-009  0.1009789E+03  0.7561462E-02  0.1278251E+00
          1   -1    0    0  501    0  0.00000000000E+00  0.00000000000E+00  0.75561098605E+03  0.75561098605E+03  0.00000000000E+00 0. -1.
         -1   -1    0    0    0  501 -0.00000000000E+00 -0.00000000000E+00 -0.20779898287E+02  0.20779898287E+02  0.00000000000E+00 0.  1.
         25    2    1    2    0    0  0.49648758832E+02  0.32730950199E+02  0.41626041758E+03  0.43869790693E+03  0.12508718539E+03 0.  0.
          5    1    3    3  502    0 -0.11547781580E+02  0.25340485297E+02  0.33713488512E+03  0.33830887458E+03  0.41800000000E+01 0.  1.
         -5    1    3    3    0  502  0.61196540412E+02  0.73904649024E+01  0.79125532458E+02  0.10038903235E+03  0.41800000000E+01 0.  1.
        -11    1    1    2    0    0 -0.24409485990E+02 -0.65934782254E+02  0.20190310834E+03  0.21379448934E+03  0.00000000000E+00 0.  1.
         11    1    1    2    0    0 -0.25239272842E+02  0.33203832054E+02  0.11666756185E+03  0.12389848807E+03  0.00000000000E+00 0. -1.
</event>
<event>
 7    1  0.3383235E-009  0.1779295E+03  0.7561462E-02  0.1169822E+00
          1   -1    0    0  501    0  0.00000000000E+00  0.00000000000E+00  0.77641071246E+03  0.77641071246E+03  0.00000000000E+00 0. -1.
         -1   -1    0    0    0  501 -0.00000000000E+00 -0.00000000000E+00 -0.48700090054E+02  0.48700090054E+02  0.00000000000E+00 0.  1.
         25    2    1    2    0    0  0.13751729190E+03 -0.46352338046E+02  0.23321419786E+03  0.30182023255E+03  0.12508815243E+03 0.  0.
          5    1    3    3  502    0  0.15953799377E+03 -0.49132965352E+02  0.21792808303E+03  0.27454788564E+03  0.41800000000E+01 0.  1.
         -5    1    3    3    0  502 -0.22020701867E+02  0.27806273056E+01  0.15286114830E+02  0.27272346901E+02  0.41800000000E+01 0.  1.
        -11    1    1    2    0    0 -0.12660716127E+03  0.84965801319E+01  0.31656397742E+03  0.34104884835E+03  0.00000000000E+00 0. -1.
         11    1    1    2    0    0 -0.10910130629E+02  0.37855757914E+02  0.17793244713E+03  0.18224172162E+03  0.00000000000E+00 0.  1.
</event>
<event>
 7    1  0.2810263E-009  0.1594365E+03  0.7561462E-02  0.1189334E+00
          2   -1    0    0  501    0  0.00000000000E+00  0.00000000000E+00  0.13389114987E+03  0.13389114987E+03  0.00000000000E+00 0. -1.
         -2   -1    0    0    0  501 -0.00000000000E+00 -0.00000000000E+00 -0.25768075708E+03  0.25768075708E+03  0.00000000000E+00 0.  1.
         25    2    1    2    0    0  0.11596891279E+03  0.20726926225E+01  0.31371816892E+02  0.17345049752E+03  0.12509116438E+03 0.  0.
          5    1    3    3  502    0  0.29663823555E+02  0.59389475073E+02  0.65963140362E+01  0.66843368678E+02  0.41800000000E+01 0.  1.
         -5    1    3    3    0  502  0.86305089233E+02 -0.57316782451E+02  0.24775502855E+02  0.10660712884E+03  0.41800000000E+01 0.  1.
        -11    1    1    2    0    0 -0.12766859773E+03  0.14383656544E+02 -0.14956327421E+03  0.19716828704E+03  0.00000000000E+00 0.  1.
         11    1    1    2    0    0  0.11699684938E+02 -0.16456349166E+02 -0.55981498946E+01  0.20953122387E+02  0.00000000000E+00 0. -1.
</event>
<event>
 7    1  0.2810263E-009  0.8995092E+02  0.7561462E-02  0.1302971E+00
          2   -1    0    0  501    0  0.00000000000E+00  0.00000000000E+00  0.23108861725E+03  0.23108861725E+03  0.00000000000E+00 0. -1.
         -2   -1    0    0    0  501 -0.00000000000E+00 -0.00000000000E+00 -0.61974468300E+02  0.61974468300E+02  0.00000000000E+00 0.  1.
         25    2    1    2    0    0  0.40556361698E+01 -0.89022636159E+01  0.34826082060E+02  0.13021521195E+03  0.12508975558E+03 0.  0.
          5    1    3    3  502    0  0.45830549067E+02  0.86693322877E+01  0.61624435653E+02  0.77399224929E+02  0.41800000000E+01 0. -1.
         -5    1    3    3    0  502 -0.41774912897E+02 -0.17571595904E+02 -0.26798353593E+02  0.52815987025E+02  0.41800000000E+01 0. -1.
        -11    1    1    2    0    0  0.28914003479E+02  0.35080523613E+02  0.94759592208E+02  0.10510015723E+03  0.00000000000E+00 0. -1.
         11    1    1    2    0    0 -0.32969639649E+02 -0.26178259998E+02  0.39528474686E+02  0.57747716371E+02  0.00000000000E+00 0.  1.
</event>
<event>
 7    1  0.2810263E-009  0.9180374E+02  0.7561462E-02  0.1298542E+00
          3   -1    0    0  501    0  0.00000000000E+00  0.00000000000E+00  0.57697156320E+02  0.57697156320E+02  0.00000000000E+00 0. -1.
         -3   -1    0    0    0  501 -0.00000000000E+00 -0.00000000000E+00 -0.24074905845E+03  0.24074905845E+03  0.00000000000E+00 0.  1.
         25    2    1    2    0    0 -0.43113373734E+02  0.82581329169E+01 -0.86913943137E+02  0.15851972538E+03  0.12509000787E+03 0.  0.
          5    1    3    3  502    0 -0.28230522243E+02  0.61851047587E+02 -0.75313029653E+02  0.10154821175E+03  0.41800000000E+01 0. -1.
         -5    1    3    3    0  502 -0.14882851491E+02 -0.53592914670E+02 -0.11600913483E+02  0.56971513628E+02  0.41800000000E+01 0. -1.
        -11    1    1    2    0    0  0.10277506634E+02  0.15910066090E+02 -0.97312123413E+02  0.99138321091E+02  0.00000000000E+00 0.  1.
         11    1    1    2    0    0  0.32835867100E+02 -0.24168199007E+02  0.11741644194E+01  0.40788168303E+02  0.00000000000E+00 0. -1.
</event>
<event>
 7    1  0.2810263E-009  0.6392569E+03  0.7561462E-02  0.9827149E-01
          2   -1    0    0  501    0  0.00000000000E+00  0.00000000000E+00  0.24426178622E+04  0.24426178622E+04  0.00000000000E+00 0.  1.
         -2   -1    0    0    0  501 -0.00000000000E+00 -0.00000000000E+00 -0.17048380956E+03  0.17048380956E+03  0.00000000000E+00 0. -1.
         25    2    1    2    0    0  0.63296444079E+03  0.22441835225E+02  0.10268730270E+04  0.12129555021E+04  0.12508084268E+03 0.  0.
          5    1    3    3  502    0 -0.33189777437E+01  0.37598615330E+01  0.25926278571E+02  0.26735678270E+02  0.41800000000E+01 0. -1.
         -5    1    3    3    0  502  0.63628341854E+03  0.18681973692E+02  0.10009467484E+04  0.11862198238E+04  0.41800000000E+01 0. -1.
        -11    1    1    2    0    0 -0.79644874860E+02 -0.19879086375E+02  0.11036110271E+03  0.13754292842E+03  0.00000000000E+00 0. -1.
         11    1    1    2    0    0 -0.55331956593E+03 -0.25627488499E+01  0.11348999230E+04  0.12626032413E+04  0.00000000000E+00 0.  1.
</event>
<event>
 7    1  0.2810263E-009  0.1028184E+03  0.7561462E-02  0.1274479E+00
          1   -1    0    0  501    0  0.00000000000E+00  0.00000000000E+00  0.53925560590E+03  0.53925560590E+03  0.00000000000E+00 0. -1.
         -1   -1    0    0    0  501 -0.00000000000E+00 -0.00000000000E+00 -0.31202087543E+02  0.31202087543E+02  0.00000000000E+00 0.  1.
         25    2    1    2    0    0 -0.71205342431E+02 -0.47821268211E+01  0.28690044185E+03  0.32101401766E+03  0.12508024014E+03 0.  0.
          5    1    3    3  502    0 -0.31077757470E+02  0.39688958344E+02  0.33672783035E+02  0.60764867655E+02  0.41800000000E+01 0. -1.
         -5    1    3    3    0  502 -0.40127584961E+02 -0.44471085165E+02  0.25322765882E+03  0.26024915001E+03  0.41800000000E+01 0. -1.
        -11    1    1    2    0    0  0.33751194609E+02 -0.29055142561E+02  0.35212437910E+02  0.56773763573E+02  0.00000000000E+00 0.  1.
         11    1    1    2    0    0  0.37454147822E+02  0.33837269382E+02  0.18594063860E+03  0.19266991221E+03  0.00000000000E+00 0. -1.
</event>
<event>
 7    1  0.2810263E-009  0.1767796E+03  0.7561462E-02  0.1170957E+00
         -2   -1    0    0    0  501 -0.00000000000E+00  0.00000000000E+00  0.67127592827E+02  0.67127592827E+02  0.00000000000E+00 0. -1.
          2   -1    0    0  501    0  0.00000000000E+00 -0.00000000000E+00 -0.80383809832E+03  0.80383809832E+03  0.00000000000E+00 0.  1.
         25    2    1    2    0    0 -0.15729578494E+03  0.39390703796E+02 -0.14661223608E+03  0.25186248528E+03  0.12508386074E+03 0.  0.
          5    1    3    3  502    0 -0.36354649324E+01  0.24332763301E+02  0.14346501216E+02  0.28785316956E+02  0.41800000000E+01 0.  1.
         -5    1    3    3    0  502 -0.15366032001E+03  0.15057940495E+02 -0.16095873729E+03  0.22307716832E+03  0.41800000000E+01 0.  1.
        -11    1    1    2    0    0  0.74570463865E+02 -0.51385311241E+02 -0.19148947908E+03  0.21182404229E+03  0.00000000000E+00 0.  1.
         11    1    1    2    0    0  0.82725321073E+02  0.11994607445E+02 -0.39860879033E+03  0.40727916358E+03  0.00000000000E+00 0. -1.
</event>
<event>
 7    1  0.2810263E-009  0.1368395E+03  0.7561462E-02  0.1217646E+00
         -2   -1    0    0    0  501 -0.00000000000E+00  0.00000000000E+00  0.17707294141E+02  0.17707294141E+02  0.00000000000E+00 0.  1.
          2   -1    0    0  501    0  0.00000000000E+00 -0.00000000000E+00 -0.14408156554E+04  0.14408156554E+04  0.00000000000E+00 0. -1.
         25    2    1    2    0    0 -0.75691538443E+02  0.84349283368E+02 -0.88882869846E+03  0.90471429148E+03  0.12508990132E+03 0.  0.
          5    1    3    3  502    0 -0.73375877236E+02  0.10424174419E+03 -0.85975342747E+03  0.86916269423E+03  0.41800000000E+01 0.  1.
         -5    1    3    3    0  502 -0.23156612071E+01 -0.19892460818E+02 -0.29075270985E+02  0.35551597251E+02  0.41800000000E+01 0.  1.
        -11    1    1    2    0    0  0.69562316299E+02 -0.38673391805E+02 -0.45661880794E+03  0.46350327167E+03  0.00000000000E+00 0. -1.
         11    1    1    2    0    0  0.61292221436E+01 -0.45675891563E+02 -0.77660854884E+02  0.90305386414E+02  0.00000000000E+00 0.  1.
</event>
<event>
 7    1  0.2810263E-009  0.1066203E+03  0.7561462E-02  0.1266960E+00
         -1   -1    0    0    0  501 -0.00000000000E+00  0.00000000000E+00  0.28748077086E+02  0.28748077086E+02  0.00000000000E+00 0.  1.
          1   -1    0    0  501    0  0.00000000000E+00 -0.00000000000E+00 -0.55422945110E+03  0.55422945110E+03  0.00000000000E+00 0. -1.
         25    2    1    2    0    0  0.38103190326E+02 -0.45148089612E+02 -0.35560514227E+03  0.38156269985E+03  0.12507946915E+03 0.  0.
          5    1    3    3  502    0  0.74574837083E+02  0.12936680772E+01 -0.14951190118E+03  0.16713575589E+03  0.41800000000E+01 0. -1.
         -5    1    3    3    0  502 -0.36471646757E+02 -0.46441757689E+02 -0.20609324109E+03  0.21442694396E+03  0.41800000000E+01 0. -1.
        -11    1    1    2    0    0 -0.76823750702E+01  0.48160289641E+02 -0.16292131390E+03  0.17006406706E+03  0.00000000000E+00 0. -1.
         11    1    1    2    0    0 -0.30420815255E+02 -0.30122000285E+01 -0.69549178494E+01  0.31350761268E+02  0.00000000000E+00 0.  1.
</event>
<event>
 7    1  0.2810263E-009  0.1339880E+03  0.7561462E-02  0.1221655E+00
          2   -1    0    0  501    0  0.00000000000E+00  0.00000000000E+00  0.53316585466E+02  0.53316585466E+02  0.00000000000E+00 0. -1.
         -2   -1    0    0    0  501 -0.00000000000E+00 -0.00000000000E+00 -0.35934319125E+03  0.35934319125E+03  0.00000000000E+00 0.  1.
         25    2    1    2    0    0  0.58448434035E+01 -0.84481025723E+02 -0.15593125724E+03  0.21709897361E+03  0.12508477708E+03 0.  0.
          5    1    3    3  502    0 -0.38245004393E+02  0.11740823904E+02 -0.20449245771E+02  0.45123955496E+02  0.41800000000E+01 0. -1.
         -5    1    3    3    0  502  0.44089847797E+02 -0.96221849627E+02 -0.13548201147E+03  0.17197501811E+03  0.41800000000E+01 0. -1.
        -11    1    1    2    0    0  0.32742044937E+02  0.45333935142E+01 -0.21980555486E+02  0.39695566287E+02  0.00000000000E+00 0. -1.
         11    1    1    2    0    0 -0.38586888340E+02  0.79947632209E+02 -0.12811479306E+03  0.15586523682E+03  0.00000000000E+00 0.  1.
</event>
<event>
 7    1  0.2810263E-009  0.6423404E+02  0.7561462E-02  0.1380876E+00
         -2   -1    0    0    0  501 -0.00000000000E+00  0.00000000000E+00  0.25968337498E+02  0.25968337498E+02  0.00000000000E+00 0.  1.
          2   -1    0    0  501    0  0.00000000000E+00 -0.00000000000E+00 -0.50317895992E+03  0.50317895992E+03  0.00000000000E+00 0. -1.
         25    2    1    2    0    0 -0.23904462968E+02 -0.32694817914E+01 -0.33086596972E+03  0.35454401237E+03  0.12508818460E+03 0.  0.
          5    1    3    3  502    0 -0.82434005639E+01 -0.12712034043E+02 -0.33497225042E+03  0.33534076759E+03  0.41800000000E+01 0. -1.
         -5    1    3    3    0  502 -0.15661062404E+02  0.94425522518E+01  0.41062806968E+01  0.19203244773E+02  0.41800000000E+01 0. -1.
        -11    1    1    2    0    0  0.25709848602E+02  0.45211962689E+02 -0.94753738606E+02  0.10808972599E+03  0.00000000000E+00 0. -1.
         11    1    1    2    0    0 -0.18053856343E+01 -0.41942480897E+02 -0.51590914094E+02  0.66513559055E+02  0.00000000000E+00 0.  1.
</event>
<event>
 7    1  0.2810263E-009  0.1711767E+03  0.7561462E-02  0.1176626E+00
         -2   -1    0    0    0  501 -0.00000000000E+00  0.00000000000E+00  0.48017001972E+02  0.48017001972E+02  0.00000000000E+00 0.  1.
          2   -1    0    0  501    0  0.00000000000E+00 -0.00000000000E+00 -0.88309089439E+03  0.88309089439E+03  0.00000000000E+00 0. -1.
         25    2    1    2    0    0 -0.58028212342E+02 -0.14440770814E+03 -0.25720471689E+03  0.32560775090E+03  0.12508109952E+03 0.  0.
          5    1    3    3  502    0 -0.25291227220E+02 -0.12987756270E+03 -0.25751111409E+03  0.28954666937E+03  0.41800000000E+01 0. -1.
         -5    1    3    3    0  502 -0.32736985122E+02 -0.14530145436E+02  0.30639720133E+00  0.36061081521E+02  0.41800000000E+01 0. -1.
        -11    1    1    2    0    0 -0.10770540459E+02  0.76457883137E+02 -0.17655418822E+03  0.19269975043E+03  0.00000000000E+00 0.  1.
         11    1    1    2    0    0  0.68798752801E+02  0.67949825001E+02 -0.40131498731E+03  0.41280039503E+03  0.00000000000E+00 0. -1.
</event>
<event>
 7    1  0.2810263E-009  0.8999541E+02  0.7561462E-02  0.1302863E+00
         -2   -1    0    0    0  501 -0.00000000000E+00  0.00000000000E+00  0.17943115313E+03  0.17943115313E+03  0.00000000000E+00 0.  1.
          2   -1    0    0  501    0  0.00000000000E+00 -0.00000000000E+00 -0.20998924493E+03  0.20998924493E+03  0.00000000000E+00 0. -1.
         25    2    1    2    0    0 -0.43250214300E+02  0.57009462834E+02  0.12909637485E+03  0.19348060408E+03  0.12509280661E+03 0.  0.
          5    1    3    3  502    0  0.56922983200E+01  0.21949755845E+02 -0.21323315400E+02  0.31406213103E+02  0.41800000000E+01 0.  1.
         -5    1    3    3    0  502 -0.48942512620E+02  0.35059706989E+02  0.15041969025E+03  0.16207439098E+03  0.41800000000E+01 0.  1.
        -11    1    1    2    0    0 -0.12298572243E+02 -0.34537063981E+02 -0.15455809052E+02  0.39786250151E+02  0.00000000000E+00 0.  1.
         11    1    1    2    0    0  0.55548786543E+02 -0.22472398853E+02 -0.14419865760E+03  0.15615354383E+03  0.00000000000E+00 0. -1.
</event>
<event>
 7    1  0.2810263E-009  0.8974295E+02  0.7561462E-02  0.1303475E+00
         -2   -1    0    0    0  501 -0.00000000000E+00  0.00000000000E+00  0.11441668944E+02  0.11441668944E+02  0.00000000000E+00 0.  1.
          2   -1    0    0  501    0  0.00000000000E+00 -0.00000000000E+00 -0.96512953632E+03  0.96512953632E+03  0.00000000000E+00 0. -1.
         25    2    1    2    0    0  0.28642298897E+02  0.28354746236E+02 -0.78459202661E+03  0.79552335436E+03  0.12509350975E+03 0.  0.
          5    1    3    3  502    0 -0.25496051554E+02  0.61723758151E+02 -0.35848099057E+03  0.36467240636E+03  0.41800000000E+01 0.  1.
         -5    1    3    3    0  502  0.54138350451E+02 -0.33369011916E+02 -0.42611103605E+03  0.43085094799E+03  0.41800000000E+01 0.  1.
        -11    1    1    2    0    0 -0.18593550149E+02  0.17250991210E+00 -0.14660515943E+02  0.23678694950E+02  0.00000000000E+00 0.  1.
         11    1    1    2    0    0 -0.10048748748E+02 -0.28527256148E+02 -0.15443532482E+03  0.15736915596E+03  0.00000000000E+00 0. -1.
</event>
<event>
 7    1  0.2810263E-009  0.1233815E+03  0.7561462E-02  0.1237621E+00
         -3   -1    0    0    0  501 -0.00000000000E+00  0.00000000000E+00  0.32883667552E+03  0.32883667552E+03  0.00000000000E+00 0.  1.
          3   -1    0    0  501    0  0.00000000000E+00 -0.00000000000E+00 -0.55898647471E+02  0.55898647471E+02  0.00000000000E+00 0. -1.
         25    2    1    2    0    0  0.71195189970E+02 -0.91485365717E+01  0.19325421196E+03  0.24113372190E+03  0.12508329466E+03 0.  0.
          5    1    3    3  502    0  0.74993187164E+02 -0.48040438426E+02  0.17780387155E+03  0.19890588474E+03  0.41800000000E+01 0.  1.
         -5    1    3    3    0  502 -0.37979971936E+01  0.38891901854E+02  0.15450340401E+02  0.42227837158E+02  0.41800000000E+01 0.  1.
        -11    1    1    2    0    0 -0.44365658992E+02 -0.41652063967E+02  0.30984619767E+02  0.68288013535E+02  0.00000000000E+00 0.  1.
         11    1    1    2    0    0 -0.26829530979E+02  0.50800600539E+02  0.48699196325E+02  0.75313587555E+02  0.00000000000E+00 0. -1.
</event>
<event>
 7    1  0.2810263E-009  0.9267980E+02  0.7561462E-02  0.1296489E+00
          2   -1    0    0  501    0  0.00000000000E+00  0.00000000000E+00  0.16233984346E+04  0.16233984346E+04  0.00000000000E+00 0. -1.
         -2   -1    0    0    0  501 -0.00000000000E+00 -0.00000000000E+00 -0.88167548873E+01  0.88167548873E+01  0.00000000000E+00 0.  1.
         25    2    1    2    0    0  0.29449877032E+02  0.74010443554E+01  0.11809166850E+04  0.11879113332E+04  0.12508816042E+03 0.  0.
          5    1    3    3  502    0 -0.26477379683E+02  0.17381093211E+02  0.89885654618E+02  0.95394220696E+02  0.41800000000E+01 0. -1.
         -5    1    3    3    0  502  0.55927256715E+02 -0.99800488556E+01  0.10910310304E+04  0.10925171125E+04  0.41800000000E+01 0. -1.
        -11    1    1    2    0    0 -0.48221404173E+02  0.28443898794E+02  0.26563903527E+03  0.27147459597E+03  0.00000000000E+00 0. -1.
         11    1    1    2    0    0  0.18771527140E+02 -0.35844943149E+02  0.16802595943E+03  0.17282926032E+03  0.00000000000E+00 0.  1.
</event>
<event>
 7    1  0.2810263E-009  0.1003794E+03  0.7561462E-02  0.1279500E+00
         -1   -1    0    0    0  501 -0.00000000000E+00  0.00000000000E+00  0.45286959034E+02  0.45286959034E+02  0.00000000000E+00 0.  1.
          1   -1    0    0  501    0  0.00000000000E+00 -0.00000000000E+00 -0.35256729553E+03  0.35256729553E+03  0.00000000000E+00 0. -1.
         25    2    1    2    0    0 -0.50809746485E+01 -0.58809476964E+02 -0.21540559430E+03  0.25599594355E+03  0.12509988877E+03 0.  0.
          5    1    3    3  502    0  0.45071754542E+02 -0.63775946598E+02 -0.17352508012E+03  0.19033460078E+03  0.41800000000E+01 0.  1.
         -5    1    3    3    0  502 -0.50152729190E+02  0.49664696339E+01 -0.41880514180E+02  0.65661342766E+02  0.41800000000E+01 0.  1.
        -11    1    1    2    0    0  0.10870131096E+02 -0.18666758864E+01  0.15123006543E+02  0.18717626875E+02  0.00000000000E+00 0.  1.
         11    1    1    2    0    0 -0.57891564477E+01  0.60676152850E+02 -0.10699774874E+03  0.12314068414E+03  0.00000000000E+00 0. -1.
</event>
<event>
 7    1  0.2810263E-009  0.1098095E+03  0.7561462E-02  0.1260923E+00
         -1   -1    0    0    0  501 -0.00000000000E+00  0.00000000000E+00  0.73526700304E+02  0.73526700304E+02  0.00000000000E+00 0.  1.
          1   -1    0    0  501    0  0.00000000000E+00 -0.00000000000E+00 -0.20925184886E+03  0.20925184886E+03  0.00000000000E+00 0. -1.
         25    2    1    2    0    0  0.43118908118E+02 -0.40026438922E+02 -0.82181631624E+02  0.16081406285E+03  0.12508391657E+03 0.  0.
          5    1    3    3  502    0 -0.38551473449E+02 -0.27939726607E+01 -0.54203707347E+02  0.66704847488E+02  0.41800000000E+01 0.  1.
         -5    1    3    3    0  502  0.81670381567E+02 -0.37232466261E+02 -0.27977924277E+02  0.94109215362E+02  0.41800000000E+01 0.  1.
        -11    1    1    2    0    0  0.82987232658E+01  0.38565664283E+02  0.95222750065E+01  0.40581436529E+02  0.00000000000E+00 0.  1.
         11    1    1    2    0    0 -0.51417631384E+02  0.14607746384E+01 -0.63065791943E+02  0.81383049790E+02  0.00000000000E+00 0. -1.
</event>
<event>
 7    1  0.2810263E-009  0.1137869E+03  0.7561462E-02  0.1253714E+00
          2   -1    0    0  501    0  0.00000000000E+00  0.00000000000E+00  0.17935720292E+03  0.17935720292E+03  0.00000000000E+00 0. -1.
         -2   -1    0    0    0  501 -0.00000000000E+00 -0.00000000000E+00 -0.11199114027E+03  0.11199114027E+03  0.00000000000E+00 0.  1.
         25    2    1    2    0    0  0.72987731754E+02  0.10743087335E+02 -0.18366586746E+02  0.14638293796E+03  0.12509200656E+03 0.  0.
          5    1    3    3  502    0  0.41920369519E+02 -0.51791078442E+02  0.15691896540E+02  0.68580909908E+02  0.41800000000E+01 0. -1.
         -5    1    3    3    0  502  0.31067362235E+02  0.62534165777E+02 -0.34058483287E+02  0.77802028055E+02  0.41800000000E+01 0. -1.
        -11    1    1    2    0    0 -0.14297590828E+02 -0.26483828340E+02  0.78131121273E+02  0.83727452955E+02  0.00000000000E+00 0.  1.
         11    1    1    2    0    0 -0.58690140926E+02  0.15740741005E+02  0.76015281194E+01  0.61237952277E+02  0.00000000000E+00 0. -1.
</event>
<event>
 7    1  0.2810263E-009  0.1118978E+03  0.7561462E-02  0.1257095E+00
          2   -1    0    0  501    0  0.00000000000E+00  0.00000000000E+00  0.55778030922E+03  0.55778030922E+03  0.00000000000E+00 0. -1.
         -2   -1    0    0    0  501 -0.00000000000E+00 -0.00000000000E+00 -0.24055467293E+02  0.24055467293E+02  0.00000000000E+00 0.  1.
         25    2    1    2    0    0  0.38137177717E+02  0.16933494787E+02  0.30798261958E+03  0.33502674743E+03  0.12509372471E+03 0.  0.
          5    1    3    3  502    0  0.10425624322E+02  0.69913050048E+02  0.18834020719E+03  0.20121141681E+03  0.41800000000E+01 0. -1.
         -5    1    3    3    0  502  0.27711553395E+02 -0.52979555262E+02  0.11964241239E+03  0.13381533063E+03  0.41800000000E+01 0. -1.
        -11    1    1    2    0    0  0.12411505926E+02 -0.36725078030E+02  0.52502515485E+02  0.65263243621E+02  0.00000000000E+00 0.  1.
         11    1    1    2    0    0 -0.50548683643E+02  0.19791583243E+02  0.17323970686E+03  0.18154578546E+03  0.00000000000E+00 0. -1.
</event>
<event>
 7    1  0.2810263E-009  0.1130336E+03  0.7561462E-02  0.1255053E+00
         -1   -1    0    0    0  501 -0.00000000000E+00  0.00000000000E+00  0.10410403082E+04  0.10410403082E+04  0.00000000000E+00 0.  1.
          1   -1    0    0  501    0  0.00000000000E+00 -0.00000000000E+00 -0.23824843429E+02  0.23824843429E+02  0.00000000000E+00 0. -1.
         25    2    1    2    0    0 -0.98080835906E+02 -0.78077829638E+01  0.73314265494E+03  0.75021617204E+03  0.12508133536E+03 0.  0.
          5    1    3    3  502    0 -0.60806543354E+02  0.30123905881E+02  0.63398445753E+03  0.63761951838E+03  0.41800000000E+01 0. -1.
         -5    1    3    3    0  502 -0.37274292552E+02 -0.37931688845E+02  0.99158197403E+02  0.11259665366E+03  0.41800000000E+01 0. -1.
        -11    1    1    2    0    0  0.18123076187E+02  0.16238066500E+02  0.58292702486E+01  0.25022012024E+02  0.00000000000E+00 0. -1.
         11    1    1    2    0    0  0.79957759719E+02 -0.84302835359E+01  0.27824353956E+03  0.28962696754E+03  0.00000000000E+00 0.  1.
</event>
<event>
 7    1  0.2810263E-009  0.7362722E+02  0.7561462E-02  0.1348176E+00
         -2   -1    0    0    0  501 -0.00000000000E+00  0.00000000000E+00  0.46573542515E+02  0.46573542515E+02  0.00000000000E+00 0.  1.
          2   -1    0    0  501    0  0.00000000000E+00 -0.00000000000E+00 -0.30362079461E+03  0.30362079461E+03  0.00000000000E+00 0. -1.
         25    2    1    2    0    0  0.46661453982E+01 -0.29199951622E+02 -0.87200625240E+02  0.15532627299E+03  0.12509153429E+03 0.  0.
          5    1    3    3  502    0  0.35955039812E+02  0.10056267987E+02  0.15731534146E+02  0.40728945239E+02  0.41800000000E+01 0. -1.
         -5    1    3    3    0  502 -0.31288894414E+02 -0.39256219609E+02 -0.10293215939E+03  0.11459732775E+03  0.41800000000E+01 0. -1.
        -11    1    1    2    0    0  0.19083033635E+02 -0.29836991134E+01  0.10595296681E+01  0.19343919878E+02  0.00000000000E+00 0.  1.
         11    1    1    2    0    0 -0.23749179034E+02  0.32183650736E+02 -0.17090615653E+03  0.17552414426E+03  0.00000000000E+00 0. -1.
</event>
<event>
 7    1  0.2810263E-009  0.4509839E+03  0.7561462E-02  0.1027429E+00
         -1   -1    0    0    0  501 -0.00000000000E+00  0.00000000000E+00  0.98563099034E+02  0.98563099034E+02  0.00000000000E+00 0.  1.
          1   -1    0    0  501    0  0.00000000000E+00 -0.00000000000E+00 -0.22856921849E+04  0.22856921849E+04  0.00000000000E+00 0. -1.
         25    2    1    2    0    0  0.36769503956E+03  0.25558363407E+03 -0.13865736085E+04  0.14624486984E+04  0.12508871940E+03 0.  0.
          5    1    3    3  502    0  0.25189140022E+03  0.17637462615E+03 -0.11164813204E+04  0.11580610077E+04  0.41800000000E+01 0.  1.
         -5    1    3    3    0  502  0.11580363934E+03  0.79209007912E+02 -0.27009228805E+03  0.30438769075E+03  0.41800000000E+01 0.  1.
        -11    1    1    2    0    0 -0.15208974197E+03 -0.15145970247E+03 -0.32680902263E+03  0.39099292622E+03  0.00000000000E+00 0. -1.
         11    1    1    2    0    0 -0.21560529759E+03 -0.10412393160E+03 -0.47374645482E+03  0.53081365933E+03  0.00000000000E+00 0.  1.
</event>
<event>
 7    1  0.2810263E-009  0.1079339E+03  0.7561462E-02  0.1264445E+00
         -1   -1    0    0    0  501 -0.00000000000E+00  0.00000000000E+00  0.32447920256E+02  0.32447920256E+02  0.00000000000E+00 0.  1.
          1   -1    0    0  501    0  0.00000000000E+00 -0.00000000000E+00 -0.61986577051E+03  0.61986577051E+03  0.00000000000E+00 0. -1.
         25    2    1    2    0    0  0.64639880702E+02 -0.37163896005E+02 -0.19389957413E+03  0.24249536812E+03  0.12508992512E+03 0.  0.
          5    1    3    3  502    0 -0.73441228198E+01  0.24719728747E+02  0.48606340456E+00  0.26128715754E+02  0.41800000000E+01 0. -1.
         -5    1    3    3    0  502  0.71984003522E+02 -0.61883624752E+02 -0.19438563754E+03  0.21636665237E+03  0.41800000000E+01 0. -1.
        -11    1    1    2    0    0 -0.73733050339E+02  0.41543271289E+02 -0.39008124701E+03  0.39915634201E+03  0.00000000000E+00 0. -1.
         11    1    1    2    0    0  0.90931696373E+01 -0.43793752841E+01 -0.34370291158E+01  0.10661980636E+02  0.00000000000E+00 0.  1.
</event>
<event>
 7    1  0.2810263E-009  0.9467773E+02  0.7561462E-02  0.1291904E+00
         -1   -1    0    0    0  501 -0.00000000000E+00  0.00000000000E+00  0.62119457827E+02  0.62119457827E+02  0.00000000000E+00 0.  1.
          1   -1    0    0  501    0  0.00000000000E+00 -0.00000000000E+00 -0.21240955280E+03  0.21240955280E+03  0.00000000000E+00 0. -1.
         25    2    1    2    0    0 -0.76671637534E+01  0.59502576870E+01 -0.13042370312E+03  0.18097404520E+03  0.12508825578E+03 0.  0.
          5    1    3    3  502    0 -0.33975854634E+02  0.56402769503E+02 -0.52072500947E+02  0.84051465547E+02  0.41800000000E+01 0. -1.
         -5    1    3    3    0  502  0.26308690880E+02 -0.50452511816E+02 -0.78351202174E+02  0.96922579653E+02  0.41800000000E+01 0. -1.
        -11    1    1    2    0    0 -0.27477770426E+02  0.78339561387E+01  0.22822047262E+02  0.36568354866E+02  0.00000000000E+00 0.  1.
         11    1    1    2    0    0  0.35144934180E+02 -0.13784213826E+02 -0.42688439118E+02  0.56986610564E+02  0.00000000000E+00 0. -1.
</event>
<event>
 7    1  0.2810263E-009  0.1194674E+03  0.7561462E-02  0.1243978E+00
         -2   -1    0    0    0  501 -0.00000000000E+00  0.00000000000E+00  0.28327313070E+02  0.28327313070E+02  0.00000000000E+00 0. -1.
          2   -1    0    0  501    0  0.00000000000E+00 -0.00000000000E+00 -0.87762921803E+03  0.87762921803E+03  0.00000000000E+00 0.  1.
         25    2    1    2    0    0 -0.62459674016E+02 -0.67489804622E+02 -0.27764634483E+03  0.31810358306E+03  0.12508521956E+03 0.  0.
          5    1    3    3  502    0  0.10787285512E+02 -0.94537786638E+01  0.84068417340E+01  0.17143128294E+02  0.41800000000E+01 0. -1.
         -5    1    3    3    0  502 -0.73246959528E+02 -0.58036025958E+02 -0.28605318657E+03  0.30096045477E+03  0.41800000000E+01 0. -1.
        -11    1    1    2    0    0  0.40148618473E+01  0.71737689778E+02 -0.22247479317E+03  0.23378932578E+03  0.00000000000E+00 0. -1.
         11    1    1    2    0    0  0.58444812169E+02 -0.42478851563E+01 -0.34918076695E+03  0.35406362226E+03  0.00000000000E+00 0.  1.
</event>
<event>
 7    1  0.2810263E-009  0.8010006E+02  0.7561462E-02  0.1328768E+00
         -1   -1    0    0    0  501 -0.00000000000E+00  0.00000000000E+00  0.77272944748E+01  0.77272944748E+01  0.00000000000E+00 0.  1.
          1   -1    0    0  501    0  0.00000000000E+00 -0.00000000000E+00 -0.15844749961E+04  0.15844749961E+04  0.00000000000E+00 0. -1.
         25    2    1    2    0    0  0.88617613963E+01 -0.41825777237E+02 -0.13871130558E+04  0.13933988313E+04  0.12509894854E+03 0.  0.
          5    1    3    3  502    0 -0.29272144058E+02  0.16973213821E+02 -0.95590537945E+03  0.95651320705E+03  0.41800000000E+01 0. -1.
         -5    1    3    3    0  502  0.38133905455E+02 -0.58798991058E+02 -0.43120767639E+03  0.43688562425E+03  0.41800000000E+01 0. -1.
        -11    1    1    2    0    0  0.13010989000E+02  0.25423804121E+02 -0.13143760137E+03  0.13450464194E+03  0.00000000000E+00 0. -1.
         11    1    1    2    0    0 -0.21872750397E+02  0.16401973116E+02 -0.58197044448E+02  0.64298817365E+02  0.00000000000E+00 0.  1.
</event>
<event>
 7    1  0.2810263E-009  0.2274210E+03  0.7561462E-02  0.1128468E+00
          1   -1    0    0  501    0  0.00000000000E+00  0.00000000000E+00  0.16009165831E+03  0.16009165831E+03  0.00000000000E+00 0. -1.
         -1   -1    0    0    0  501 -0.00000000000E+00 -0.00000000000E+00 -0.41616794051E+03  0.41616794051E+03  0.00000000000E+00 0.  1.
         25    2    1    2    0    0  0.18561801611E+03 -0.74799615782E+02 -0.26743207990E+03  0.35667374753E+03  0.12508882602E+03 0.  0.
          5    1    3    3  502    0  0.75018889324E+02 -0.96972779572E+02 -0.15023923547E+03  0.19396096001E+03  0.41800000000E+01 0. -1.
         -5    1    3    3    0  502  0.11059912678E+03  0.22173163791E+02 -0.11719284442E+03  0.16271278752E+03  0.41800000000E+01 0. -1.
        -11    1    1    2    0    0 -0.70178512076E+02  0.76532549619E+02  0.58308816365E+01  0.10400122061E+03  0.00000000000E+00 0.  1.
         11    1    1    2    0    0 -0.11543950403E+03 -0.17329338369E+01  0.55249160521E+01  0.11558463067E+03  0.00000000000E+00 0. -1.
</event>
<event>
 7    1  0.2810263E-009  0.1092214E+03  0.7561462E-02  0.1262018E+00
          2   -1    0    0  501    0  0.00000000000E+00  0.00000000000E+00  0.35454579174E+02  0.35454579174E+02  0.00000000000E+00 0. -1.
         -2   -1    0    0    0  501 -0.00000000000E+00 -0.00000000000E+00 -0.44111548731E+03  0.44111548731E+03  0.00000000000E+00 0.  1.
         25    2    1    2    0    0 -0.54497404783E+02  0.34596760091E+02 -0.27925621606E+03  0.31272590515E+03  0.12508618871E+03 0.  0.
          5    1    3    3  502    0 -0.50254070810E+01  0.69693800581E+02 -0.20575477108E+03  0.21733609635E+03  0.41800000000E+01 0. -1.
         -5    1    3    3    0  502 -0.49471997702E+02 -0.35097040490E+02 -0.73501444975E+02  0.95389808791E+02  0.41800000000E+01 0. -1.
        -11    1    1    2    0    0  0.27156982273E+01 -0.35744821822E+02 -0.98907085284E+02  0.10520303619E+03  0.00000000000E+00 0.  1.
         11    1    1    2    0    0  0.51781706556E+02  0.11480617304E+01 -0.27497606797E+02  0.58641125152E+02  0.00000000000E+00 0. -1.
</event>
<event>
 7    1  0.2810263E-009  0.8806140E+02  0.7561462E-02  0.1307615E+00
          2   -1    0    0  501    0  0.00000000000E+00  0.00000000000E+00  0.26572342055E+03  0.26572342055E+03  0.00000000000E+00 0.  1.
         -2   -1    0    0    0  501 -0.00000000000E+00 -0.00000000000E+00 -0.57952854924E+02  0.57952854924E+02  0.00000000000E+00 0. -1.
         25    2    1    2    0    0  0.34864587800E+02  0.51528739231E+02  0.12430288076E+03  0.18700041218E+03  0.12508875866E+03 0.  0.
          5    1    3    3  502    0  0.52814107557E+02  0.44558909135E+02  0.14360362210E+03  0.15941862821E+03  0.41800000000E+01 0.  1.
         -5    1    3    3    0  502 -0.17949519757E+02  0.69698300961E+01 -0.19300741341E+02  0.27581783977E+02  0.41800000000E+01 0.  1.
        -11    1    1    2    0    0 -0.52076631660E+02 -0.44858751373E+02  0.21500524315E+02  0.72017745630E+02  0.00000000000E+00 0. -1.
         11    1    1    2    0    0  0.17212043861E+02 -0.66699878588E+01  0.61967160556E+02  0.64658117659E+02  0.00000000000E+00 0.  1.
</event>
<event>
 7    1  0.2810263E-009  0.7444269E+02  0.7561462E-02  0.1345606E+00
         -1   -1    0    0    0  501 -0.00000000000E+00  0.00000000000E+00  0.57493353214E+02  0.57493353214E+02  0.00000000000E+00 0.  1.
          1   -1    0    0  501    0  0.00000000000E+00 -0.00000000000E+00 -0.22886674680E+03  0.22886674680E+03  0.00000000000E+00 0. -1.
         25    2    1    2    0    0  0.18188708800E+02  0.63158319176E+01 -0.13914851788E+03  0.18809701871E+03  0.12508980597E+03 0.  0.
          5    1    3    3  502    0  0.16807351417E+01 -0.32243238485E+02 -0.14215745315E+03  0.14583780437E+03  0.41800000000E+01 0. -1.
         -5    1    3    3    0  502  0.16507973658E+02  0.38559070402E+02  0.30089352693E+01  0.42259214333E+02  0.41800000000E+01 0. -1.
        -11    1    1    2    0    0 -0.85514102004E+00  0.32058265982E+02  0.14646129345E+02  0.35255819218E+02  0.00000000000E+00 0.  1.
         11    1    1    2    0    0 -0.17333567780E+02 -0.38374097899E+02 -0.46871005053E+02  0.63007262091E+02  0.00000000000E+00 0. -1.
</event>
<event>
 7    1  0.2810263E-009  0.7729121E+02  0.7561462E-02  0.1336919E+00
          1   -1    0    0  501    0  0.00000000000E+00  0.00000000000E+00  0.58672733941E+03  0.58672733941E+03  0.00000000000E+00 0. -1.
         -1   -1    0    0    0  501 -0.00000000000E+00 -0.00000000000E+00 -0.30550955427E+02  0.30550955427E+02  0.00000000000E+00 0.  1.
         25    2    1    2    0    0  0.46288608209E+02  0.48167425694E+02  0.39985146695E+03  0.42425457956E+03  0.12509203213E+03 0.  0.
          5    1    3    3  502    0  0.10099686982E+02  0.26852082984E+02  0.79157518216E+01  0.30052779648E+02  0.41800000000E+01 0.  1.
         -5    1    3    3    0  502  0.36188921227E+02  0.21315342710E+02  0.39193571513E+03  0.39420179991E+03  0.41800000000E+01 0.  1.
        -11    1    1    2    0    0 -0.53500802188E+02 -0.24876362524E+02  0.33595338986E+02  0.67895626139E+02  0.00000000000E+00 0.  1.
         11    1    1    2    0    0  0.72121939791E+01 -0.23291063170E+02  0.12272957804E+03  0.12512808914E+03  0.00000000000E+00 0. -1.
</event>
<event>
 7    1  0.2810263E-009  0.1579020E+03  0.7561462E-02  0.1191086E+00
         -2   -1    0    0    0  501 -0.00000000000E+00  0.00000000000E+00  0.63657565250E+02  0.63657565250E+02  0.00000000000E+00 0.  1.
          2   -1    0    0  501    0  0.00000000000E+00 -0.00000000000E+00 -0.57400883804E+03  0.57400883804E+03  0.00000000000E+00 0. -1.
         25    2    1    2    0    0 -0.23286752874E+02 -0.12123927406E+03 -0.43187293126E+03  0.46626486308E+03  0.12508980514E+03 0.  0.
          5    1    3    3  502    0  0.46878156976E+02 -0.71507333390E+02 -0.16562526952E+03  0.18644050696E+03  0.41800000000E+01 0. -1.
         -5    1    3    3    0  502 -0.70164909849E+02 -0.49731940674E+02 -0.26624766174E+03  0.27982435612E+03  0.41800000000E+01 0. -1.
        -11    1    1    2    0    0  0.49472026073E+02  0.61946175998E+02 -0.70508758617E+02  0.10609568854E+03  0.00000000000E+00 0.  1.
         11    1    1    2    0    0 -0.26185273199E+02  0.59293098067E+02 -0.79695829094E+01  0.65305851672E+02  0.00000000000E+00 0. -1.
</event>
<event>
 7    1  0.2810263E-009  0.8822123E+02  0.7561462E-02  0.1307217E+00
          2   -1    0    0  501    0  0.00000000000E+00  0.00000000000E+00  0.20949942558E+03  0.20949942558E+03  0.00000000000E+00 0. -1.
         -2   -1    0    0    0  501 -0.00000000000E+00 -0.00000000000E+00 -0.62891677438E+02  0.62891677438E+02  0.00000000000E+00 0.  1.
         25    2    1    2    0    0 -0.10507836406E+02 -0.36304074723E+02  0.64102843515E+02  0.14555294721E+03  0.12509230763E+03 0.  0.
          5    1    3    3  502    0  0.18776227642E+02 -0.57242142930E+02 -0.11719544249E+02  0.61514467966E+02  0.41800000000E+01 0. -1.
         -5    1    3    3    0  502 -0.29284064049E+02  0.20938068207E+02  0.75822387764E+02  0.84038479244E+02  0.41800000000E+01 0. -1.
        -11    1    1    2    0    0 -0.12113741335E+02 -0.17593744829E+02  0.60871565287E+02  0.64510697149E+02  0.00000000000E+00 0. -1.
         11    1    1    2    0    0  0.22621577741E+02  0.53897819552E+02  0.21633339341E+02  0.62327458660E+02  0.00000000000E+00 0.  1.
</event>
<event>
 7    1  0.2810263E-009  0.3668167E+03  0.7561462E-02  0.1055917E+00
         -2   -1    0    0    0  501 -0.00000000000E+00  0.00000000000E+00  0.17872929133E+03  0.17872929133E+03  0.00000000000E+00 0.  1.
          2   -1    0    0  501    0  0.00000000000E+00 -0.00000000000E+00 -0.77737379060E+03  0.77737379060E+03  0.00000000000E+00 0. -1.
         25    2    1    2    0    0  0.11062577780E+03 -0.33668243355E+03 -0.27216908958E+03  0.46402477518E+03  0.12509938003E+03 0.  0.
          5    1    3    3  502    0  0.10197592131E+03 -0.14657178719E+03 -0.87788292360E+02  0.19901415528E+03  0.41800000000E+01 0. -1.
         -5    1    3    3    0  502  0.86498564932E+01 -0.19011064636E+03 -0.18438079722E+03  0.26501061990E+03  0.41800000000E+01 0. -1.
        -11    1    1    2    0    0 -0.17017846473E+02  0.18939645247E+03 -0.13627952489E+03  0.23395027722E+03  0.00000000000E+00 0.  1.
         11    1    1    2    0    0 -0.93607931331E+02  0.14728598108E+03 -0.19019588480E+03  0.25812802953E+03  0.00000000000E+00 0. -1.
</event>
<event>
 7    1  0.2810263E-009  0.1081060E+03  0.7561462E-02  0.1264118E+00
          1   -1    0    0  501    0  0.00000000000E+00  0.00000000000E+00  0.24162485083E+03  0.24162485083E+03  0.00000000000E+00 0. -1.
         -1   -1    0    0    0  501 -0.00000000000E+00 -0.00000000000E+00 -0.76830115889E+02  0.76830115889E+02  0.00000000000E+00 0.  1.
         25    2    1    2    0    0 -0.55987860799E+02 -0.37999023957E+01  0.23533371270E+02  0.13910186292E+03  0.12508568619E+03 0.  0.
          5    1    3    3  502    0 -0.64382628076E+02  0.37383343594E+02  0.49518854272E+02  0.89511041245E+02  0.41800000000E+01 0. -1.
         -5    1    3    3    0  502  0.83947672772E+01 -0.41183245990E+02 -0.25985483002E+02  0.49590821679E+02  0.41800000000E+01 0. -1.
        -11    1    1    2    0    0  0.77451595260E+02  0.67391987781E+01  0.69114922854E+02  0.10402422299E+03  0.00000000000E+00 0.  1.
         11    1    1    2    0    0 -0.21463734461E+02 -0.29392963824E+01  0.72146440821E+02  0.75328880806E+02  0.00000000000E+00 0. -1.
</event>
<event>
 7    1  0.2810263E-009  0.1258538E+03  0.7561462E-02  0.1233741E+00
          2   -1    0    0  501    0  0.00000000000E+00  0.00000000000E+00  0.21185438125E+03  0.21185438125E+03  0.00000000000E+00 0. -1.
         -2   -1    0    0    0  501 -0.00000000000E+00 -0.00000000000E+00 -0.82524775506E+02  0.82524775506E+02  0.00000000000E+00 0.  1.
         25    2    1    2    0    0  0.64765384891E+02 -0.38639866625E+02  0.67517115468E+02  0.16091321837E+03  0.12508760368E+03 0.  0.
          5    1    3    3  502    0  0.63836239935E+02  0.33224680771E+02  0.20560259498E+02  0.74960933906E+02  0.41800000000E+01 0.  1.
         -5    1    3    3    0  502  0.92914495589E+00 -0.71864547396E+02  0.46956855970E+02  0.85952284469E+02  0.41800000000E+01 0.  1.
        -11    1    1    2    0    0 -0.44997780331E+02  0.62266517237E+02  0.16341962019E+02  0.78542848982E+02  0.00000000000E+00 0.  1.
         11    1    1    2    0    0 -0.19767604560E+02 -0.23626650612E+02  0.45470528257E+02  0.54923089400E+02  0.00000000000E+00 0. -1.
</event>
<event>
 7    1  0.2810263E-009  0.1058498E+03  0.7561462E-02  0.1268454E+00
         -1   -1    0    0    0  501 -0.00000000000E+00  0.00000000000E+00  0.28380372628E+02  0.28380372628E+02  0.00000000000E+00 0.  1.
          1   -1    0    0  501    0  0.00000000000E+00 -0.00000000000E+00 -0.67589980082E+03  0.67589980082E+03  0.00000000000E+00 0. -1.
         25    2    1    2    0    0  0.87410564152E+01  0.60145338776E+02 -0.19975088650E+03  0.24340155773E+03  0.12510009514E+03 0.  0.
          5    1    3    3  502    0 -0.67436441425E+00  0.80150017123E+02 -0.55920085681E+02  0.97821308490E+02  0.41800000000E+01 0. -1.
         -5    1    3    3    0  502  0.94154208295E+01 -0.20004678346E+02 -0.14383080082E+03  0.14558024924E+03  0.41800000000E+01 0. -1.
        -11    1    1    2    0    0 -0.93965129966E+00  0.24206462693E+02 -0.88219759058E+02  0.91485308487E+02  0.00000000000E+00 0.  1.
         11    1    1    2    0    0 -0.78014051156E+01 -0.84351801469E+02 -0.35954878264E+03  0.36939330723E+03  0.00000000000E+00 0. -1.
</event>
<event>
 7    1  0.2810263E-009  0.7896459E+02  0.7561462E-02  0.1332016E+00
          1   -1    0    0  501    0  0.00000000000E+00  0.00000000000E+00  0.18878730650E+03  0.18878730650E+03  0.00000000000E+00 0. -1.
         -1   -1    0    0    0  501 -0.00000000000E+00 -0.00000000000E+00 -0.80767629583E+02  0.80767629583E+02  0.00000000000E+00 0.  1.
         25    2    1    2    0    0 -0.15509333220E+02 -0.54206456400E+02  0.45571228712E+02  0.14457902648E+03  0.12508988240E+03 0.  0.
          5    1    3    3  502    0  0.33587377885E+01  0.95760179837E+01 -0.36927393416E+02  0.38523837094E+02  0.41800000000E+01 0. -1.
         -5    1    3    3    0  502 -0.18868071008E+02 -0.63782474384E+02  0.82498622128E+02  0.10605518938E+03  0.41800000000E+01 0. -1.
        -11    1    1    2    0    0  0.33971674163E+02  0.51431690119E+02  0.19575734819E+01  0.61669485873E+02  0.00000000000E+00 0.  1.
         11    1    1    2    0    0 -0.18462340943E+02  0.27747662812E+01  0.60490874724E+02  0.63306423734E+02  0.00000000000E+00 0. -1.
</event>
<event>
 7    1  0.2810263E-009  0.1536648E+03  0.7561462E-02  0.1196041E+00
          2   -1    0    0  501    0  0.00000000000E+00  0.00000000000E+00  0.50189928954E+02  0.50189928954E+02  0.00000000000E+00 0. -1.
         -2   -1    0    0    0  501 -0.00000000000E+00 -0.00000000000E+00 -0.65097991092E+03  0.65097991092E+03  0.00000000000E+00 0.  1.
         25    2    1    2    0    0 -0.72350746062E+02  0.10563910502E+03 -0.44952559573E+03  0.48385505918E+03  0.12509279003E+03 0.  0.
          5    1    3    3  502    0 -0.10335599748E+03  0.89253589764E+02 -0.29147270265E+03  0.32190444901E+03  0.41800000000E+01 0.  1.
         -5    1    3    3    0  502  0.31005251417E+02  0.16385515252E+02 -0.15805289308E+03  0.16195061017E+03  0.41800000000E+01 0.  1.
        -11    1    1    2    0    0  0.56845301948E+01 -0.44722857139E+02 -0.49203426809E+01  0.45350387058E+02  0.00000000000E+00 0. -1.
         11    1    1    2    0    0  0.66666215868E+02 -0.60916247877E+02 -0.14634404356E+03  0.17196439364E+03  0.00000000000E+00 0.  1.
</event>
<event>
 7    1  0.2810263E-009  0.1045725E+03  0.7561462E-02  0.1270964E+00
         -1   -1    0    0    0  501 -0.00000000000E+00  0.00000000000E+00  0.33133563199E+02  0.33133563199E+02  0.00000000000E+00 0.  1.
          1   -1    0    0  501    0  0.00000000000E+00 -0.00000000000E+00 -0.45398027344E+03  0.45398027344E+03  0.00000000000E+00 0. -1.
         25    2    1    2    0    0 -0.18670620581E+01 -0.35296152657E+02 -0.13835295084E+03  0.18983947315E+03  0.12509269461E+03 0.  0.
          5    1    3    3  502    0  0.59472197289E+02 -0.12905968860E+02 -0.88928460457E+02  0.10783899926E+03  0.41800000000E+01 0. -1.
         -5    1    3    3    0  502 -0.61339259347E+02 -0.22390183796E+02 -0.49424490384E+02  0.82000473885E+02  0.41800000000E+01 0. -1.
        -11    1    1    2    0    0  0.37170918418E+02  0.78371103595E+01 -0.19862678138E+03  0.20222684232E+03  0.00000000000E+00 0. -1.
         11    1    1    2    0    0 -0.35303856360E+02  0.27459042297E+02 -0.83866978015E+02  0.95047521163E+02  0.00000000000E+00 0.  1.
</event>
<event>
 7    1  0.2810263E-009  0.2234899E+03  0.7561462E-02  0.1131308E+00
          1   -1    0    0  501    0  0.00000000000E+00  0.00000000000E+00  0.15392455584E+04  0.15392455584E+04  0.00000000000E+00 0. -1.
         -1   -1    0    0    0  501 -0.00000000000E+00 -0.00000000000E+00 -0.40066510375E+02  0.40066510375E+02  0.00000000000E+00 0.  1.
         25    2    1    2    0    0  0.18300218483E+03 -0.77274874318E+02  0.10924320621E+04  0.11173708587E+04  0.12509444286E+03 0.  0.
          5    1    3    3  502    0  0.88927309139E+02 -0.97194094745E+02  0.75756808782E+03  0.76894839777E+03  0.41800000000E+01 0.  1.
         -5    1    3    3    0  502  0.94074875695E+02  0.19919220427E+02  0.33486397430E+03  0.34842246091E+03  0.41800000000E+01 0.  1.
        -11    1    1    2    0    0 -0.46750034789E+02 -0.20675949212E+02  0.91166545288E+02  0.10451985270E+03  0.00000000000E+00 0.  1.
         11    1    1    2    0    0 -0.13625215004E+03  0.97950823530E+02  0.31558044065E+03  0.35742135742E+03  0.00000000000E+00 0. -1.
</event>
<event>
 7    1  0.2810263E-009  0.6337238E+02  0.7561462E-02  0.1384201E+00
         -1   -1    0    0    0  501 -0.00000000000E+00  0.00000000000E+00  0.32344435950E+02  0.32344435950E+02  0.00000000000E+00 0.  1.
          1   -1    0    0  501    0  0.00000000000E+00 -0.00000000000E+00 -0.37519849888E+03  0.37519849888E+03  0.00000000000E+00 0. -1.
         25    2    1    2    0    0 -0.21744800496E+02 -0.37243821553E+01 -0.20740399936E+03  0.24320942331E+03  0.12509075611E+03 0.  0.
          5    1    3    3  502    0  0.13536922950E+02 -0.11260213337E+02 -0.20607303557E+03  0.20686616223E+03  0.41800000000E+01 0.  1.
         -5    1    3    3    0  502 -0.35281723447E+02  0.75358311817E+01 -0.13309637915E+01  0.36343261075E+02  0.41800000000E+01 0.  1.
        -11    1    1    2    0    0  0.35537560489E+02 -0.22946699446E+02 -0.12591274364E+03  0.13282879293E+03  0.00000000000E+00 0. -1.
         11    1    1    2    0    0 -0.13792759993E+02  0.26671081601E+02 -0.95373199269E+01  0.31504718589E+02  0.00000000000E+00 0.  1.
</event>
<event>
 7    1  0.2810263E-009  0.1429054E+03  0.7561462E-02  0.1209472E+00
         -1   -1    0    0    0  501 -0.00000000000E+00  0.00000000000E+00  0.83654815771E+02  0.83654815771E+02  0.00000000000E+00 0.  1.
          1   -1    0    0  501    0  0.00000000000E+00 -0.00000000000E+00 -0.28414222673E+03  0.28414222673E+03  0.00000000000E+00 0. -1.
         25    2    1    2    0    0  0.37710290335E+02 -0.10031009964E+03 -0.70129917283E+02  0.17902813739E+03  0.12509471050E+03 0.  0.
          5    1    3    3  502    0 -0.25221474851E+02 -0.98161203617E+02 -0.39171911823E+02  0.10873663488E+03  0.41800000000E+01 0. -1.
         -5    1    3    3    0  502  0.62931765187E+02 -0.21488960218E+01 -0.30958005460E+02  0.70291502514E+02  0.41800000000E+01 0. -1.
        -11    1    1    2    0    0 -0.28252084077E+02  0.92643968101E+01 -0.30610054999E+00  0.29733869585E+02  0.00000000000E+00 0.  1.
         11    1    1    2    0    0 -0.94582062588E+01  0.91045702829E+02 -0.13005139313E+03  0.15903503552E+03  0.00000000000E+00 0. -1.
</event>
<event>
 7    1  0.2810263E-009  0.1488270E+03  0.7561462E-02  0.1201922E+00
          1   -1    0    0  501    0  0.00000000000E+00  0.00000000000E+00  0.89012708329E+03  0.89012708329E+03  0.00000000000E+00 0. -1.
         -1   -1    0    0    0  501 -0.00000000000E+00 -0.00000000000E+00 -0.35227831213E+02  0.35227831213E+02  0.00000000000E+00 0.  1.
         25    2    1    2    0    0  0.76731890829E+02 -0.10963295642E+03  0.35086545891E+03  0.39580134535E+03  0.12507984057E+03 0.  0.
          5    1    3    3  502    0  0.54055252448E+02 -0.15740881227E+02  0.24915733464E+03  0.25547327740E+03  0.41800000000E+01 0.  1.
         -5    1    3    3    0  502  0.22676638381E+02 -0.93892075189E+02  0.10170812427E+03  0.14032806795E+03  0.41800000000E+01 0.  1.
        -11    1    1    2    0    0 -0.65296439919E+02  0.46020389737E+02  0.39335975619E+03  0.40138933609E+03  0.00000000000E+00 0. -1.
         11    1    1    2    0    0 -0.11435450910E+02  0.63612566679E+02  0.11067403698E+03  0.12816423307E+03  0.00000000000E+00 0.  1.
</event>
<event>
 7    1  0.2810263E-009  0.1370950E+03  0.7561462E-02  0.1217292E+00
         -1   -1    0    0    0  501 -0.00000000000E+00  0.00000000000E+00  0.60942875475E+02  0.60942875475E+02  0.00000000000E+00 0.  1.
          1   -1    0    0  501    0  0.00000000000E+00 -0.00000000000E+00 -0.53663764328E+03  0.53663764328E+03  0.00000000000E+00 0. -1.
         25    2    1    2    0    0 -0.31031927428E+02 -0.11217613966E+03 -0.39183392215E+03  0.42746672666E+03  0.12509001970E+03 0.  0.
          5    1    3    3  502    0 -0.49597963630E+02 -0.88849205032E+02 -0.38268180842E+03  0.39600123500E+03  0.41800000000E+01 0. -1.
         -5    1    3    3    0  502  0.18566036202E+02 -0.23326934633E+02 -0.91521137309E+01  0.31465491659E+02  0.41800000000E+01 0. -1.
        -11    1    1    2    0    0  0.99070383752E+01 -0.12409921816E+02  0.37909803911E+01  0.16325657756E+02  0.00000000000E+00 0.  1.
         11    1    1    2    0    0  0.21124889053E+02  0.12458606148E+03 -0.87651826047E+02  0.15378813433E+03  0.00000000000E+00 0. -1.
</event>
<event>
 7    1  0.2810263E-009  0.1019959E+03  0.7561462E-02  0.1276154E+00
         -1   -1    0    0    0  501 -0.00000000000E+00  0.00000000000E+00  0.30248334077E+02  0.30248334077E+02  0.00000000000E+00 0.  1.
          1   -1    0    0  501    0  0.00000000000E+00 -0.00000000000E+00 -0.58482712170E+03  0.58482712170E+03  0.00000000000E+00 0. -1.
         25    2    1    2    0    0  0.73552006465E+02  0.65684729005E+01 -0.36022006364E+03  0.38840601072E+03  0.12509073674E+03 0.  0.
          5    1    3    3  502    0  0.71515620707E+02 -0.28022279538E+02 -0.33887170603E+03  0.34749278799E+03  0.41800000000E+01 0. -1.
         -5    1    3    3    0  502  0.20363857579E+01  0.34590752439E+02 -0.21348357613E+02  0.40913222728E+02  0.41800000000E+01 0. -1.
        -11    1    1    2    0    0  0.78920144035E+01 -0.72544870434E+01  0.46154159055E+01  0.11671055547E+02  0.00000000000E+00 0.  1.
         11    1    1    2    0    0 -0.81444020869E+02  0.68601414286E+00 -0.19897413988E+03  0.21499838951E+03  0.00000000000E+00 0. -1.
</event>
<event>
 7    1  0.2810263E-009  0.1069902E+03  0.7561462E-02  0.1266247E+00
         -3   -1    0    0    0  501 -0.00000000000E+00  0.00000000000E+00  0.75870730424E+02  0.75870730424E+02  0.00000000000E+00 0.  1.
          3   -1    0    0  501    0  0.00000000000E+00 -0.00000000000E+00 -0.20505027352E+03  0.20505027352E+03  0.00000000000E+00 0. -1.
         25    2    1    2    0    0 -0.11090061381E+02 -0.55465437022E+02 -0.10108123833E+03  0.17048231225E+03  0.12508955945E+03 0.  0.
          5    1    3    3  502    0  0.14957075776E+02 -0.77954827776E+02 -0.19503256865E+02  0.81844478847E+02  0.41800000000E+01 0.  1.
         -5    1    3    3    0  502 -0.26047137157E+02  0.22489390754E+02 -0.81577981469E+02  0.88637833407E+02  0.41800000000E+01 0.  1.
        -11    1    1    2    0    0 -0.35511838586E+02  0.16851190708E+02 -0.30679446634E+02  0.49862628830E+02  0.00000000000E+00 0. -1.
         11    1    1    2    0    0  0.46601899967E+02  0.38614246314E+02  0.25811418695E+01  0.60576062865E+02  0.00000000000E+00 0.  1.
</event>
<event>
 7    1  0.2810263E-009  0.1031443E+03  0.7561462E-02  0.1273819E+00
         -2   -1    0    0    0  501 -0.00000000000E+00  0.00000000000E+00  0.23032483768E+03  0.23032483768E+03  0.00000000000E+00 0.  1.
          2   -1    0    0  501    0  0.00000000000E+00 -0.00000000000E+00 -0.76075939555E+02  0.76075939555E+02  0.00000000000E+00 0. -1.
         25    2    1    2    0    0 -0.60756205844E+02  0.46808722728E+02  0.88586856967E+02  0.17139915895E+03  0.12509063670E+03 0.  0.
          5    1    3    3  502    0 -0.63555054002E+02  0.25098729702E+02  0.11683761365E+03  0.13541673267E+03  0.41800000000E+01 0.  1.
         -5    1    3    3    0  502  0.27988481587E+01  0.21709993027E+02 -0.28250756685E+02  0.35982426287E+02  0.41800000000E+01 0.  1.
        -11    1    1    2    0    0 -0.12767550275E+01 -0.53170579329E+02  0.43872811446E+02  0.68946096290E+02  0.00000000000E+00 0.  1.
         11    1    1    2    0    0  0.62032960871E+02  0.63618566004E+01  0.21789229708E+02  0.66055521988E+02  0.00000000000E+00 0. -1.
</event>
<event>
 7    1  0.2810263E-009  0.7751832E+02  0.7561462E-02  0.1336245E+00
         -2   -1    0    0    0  501 -0.00000000000E+00  0.00000000000E+00  0.24236831400E+03  0.24236831400E+03  0.00000000000E+00 0.  1.
          2   -1    0    0  501    0  0.00000000000E+00 -0.00000000000E+00 -0.60611385604E+02  0.60611385604E+02  0.00000000000E+00 0. -1.
         25    2    1    2    0    0  0.53276367595E+02 -0.10463067734E+02  0.99578892175E+02  0.16885081161E+03  0.12508714436E+03 0.  0.
          5    1    3    3  502    0  0.19286456234E+02 -0.32189761376E+02 -0.19896887435E+02  0.42679112703E+02  0.41800000000E+01 0.  1.
         -5    1    3    3    0  502  0.33989911361E+02  0.21726693642E+02  0.11947577961E+03  0.12617169890E+03  0.41800000000E+01 0.  1.
        -11    1    1    2    0    0 -0.31398636640E+01  0.24466601889E+02  0.78112646725E+02  0.81914949369E+02  0.00000000000E+00 0.  1.
         11    1    1    2    0    0 -0.50136503931E+02 -0.14003534155E+02  0.40653894980E+01  0.52213938628E+02  0.00000000000E+00 0. -1.
</event>
<event>
 7    1  0.2810263E-009  0.8169690E+02  0.7561462E-02  0.1324304E+00
          1   -1    0    0  501    0  0.00000000000E+00  0.00000000000E+00  0.30478465407E+03  0.30478465407E+03  0.00000000000E+00 0. -1.
         -1   -1    0    0    0  501 -0.00000000000E+00 -0.00000000000E+00 -0.55466112446E+02  0.55466112446E+02  0.00000000000E+00 0.  1.
         25    2    1    2    0    0  0.60101387399E+02  0.27531113159E+02  0.16951437072E+03  0.22079847551E+03  0.12508679366E+03 0.  0.
          5    1    3    3  502    0  0.21198587785E+02  0.10018536587E+02  0.17585897627E+03  0.17746437145E+03  0.41800000000E+01 0. -1.
         -5    1    3    3    0  502  0.38902799614E+02  0.17512576572E+02 -0.63446055407E+01  0.43334104069E+02  0.41800000000E+01 0. -1.
        -11    1    1    2    0    0 -0.72794948234E+02 -0.36239421242E+02  0.89762417411E+02  0.12111850280E+03  0.00000000000E+00 0. -1.
         11    1    1    2    0    0  0.12693560835E+02  0.87083080825E+01 -0.99582465119E+01  0.18333788204E+02  0.00000000000E+00 0.  1.
</event>
<event>
 7    1  0.2810263E-009  0.3468368E+03  0.7561462E-02  0.1063921E+00
         -1   -1    0    0    0  501 -0.00000000000E+00  0.00000000000E+00  0.27438669842E+03  0.27438669842E+03  0.00000000000E+00 0.  1.
          1   -1    0    0  501    0  0.00000000000E+00 -0.00000000000E+00 -0.50103069958E+03  0.50103069958E+03  0.00000000000E+00 0. -1.
         25    2    1    2    0    0 -0.15207956086E+03  0.27830218222E+03 -0.24608758685E+03  0.42046001968E+03  0.12508888957E+03 0.  0.
          5    1    3    3  502    0 -0.17290477597E+03  0.25075061740E+03 -0.20787561048E+03  0.36878404996E+03  0.41800000000E+01 0. -1.
         -5    1    3    3    0  502  0.20825215105E+02  0.27551564820E+02 -0.38211976370E+02  0.51675969718E+02  0.41800000000E+01 0. -1.
        -11    1    1    2    0    0  0.17847327221E+03 -0.18396646913E+03  0.93989461856E+01  0.25648530337E+03  0.00000000000E+00 0.  1.
         11    1    1    2    0    0 -0.26393711346E+02 -0.94335713084E+02  0.10044639498E+02  0.98472074947E+02  0.00000000000E+00 0. -1.
</event>
<event>
 7    1  0.2810263E-009  0.1284531E+03  0.7561462E-02  0.1229769E+00
          2   -1    0    0  501    0  0.00000000000E+00  0.00000000000E+00  0.82833459659E+03  0.82833459659E+03  0.00000000000E+00 0. -1.
         -2   -1    0    0    0  501 -0.00000000000E+00 -0.00000000000E+00 -0.25334328978E+02  0.25334328978E+02  0.00000000000E+00 0.  1.
         25    2    1    2    0    0  0.86127997079E+02 -0.28147856898E+02  0.53282424403E+03  0.55476077385E+03  0.12508999741E+03 0.  0.
          5    1    3    3  502    0  0.24205259202E+02  0.37093998605E+02  0.67766338380E+02  0.81065457027E+02  0.41800000000E+01 0.  1.
         -5    1    3    3    0  502  0.61922737877E+02 -0.65241855504E+02  0.46505790565E+03  0.47369531682E+03  0.41800000000E+01 0.  1.
        -11    1    1    2    0    0  0.55858341947E+01 -0.18606066879E+02  0.17815267421E+02  0.26358509473E+02  0.00000000000E+00 0.  1.
         11    1    1    2    0    0 -0.91713831274E+02  0.46753923777E+02  0.25236075617E+03  0.27254964225E+03  0.00000000000E+00 0. -1.
</event>
<event>
 7    1  0.2810263E-009  0.8591754E+02  0.7561462E-02  0.1313050E+00
         -1   -1    0    0    0  501 -0.00000000000E+00  0.00000000000E+00  0.48136615314E+02  0.48136615314E+02  0.00000000000E+00 0.  1.
          1   -1    0    0  501    0  0.00000000000E+00 -0.00000000000E+00 -0.30570877516E+03  0.30570877516E+03  0.00000000000E+00 0. -1.
         25    2    1    2    0    0 -0.20988917630E+02 -0.48526784369E+02 -0.11532612714E+03  0.17816624044E+03  0.12509080768E+03 0.  0.
          5    1    3    3  502    0 -0.10261622545E+01 -0.60437950733E+02 -0.13464666568E+03  0.14765160303E+03  0.41800000000E+01 0.  1.
         -5    1    3    3    0  502 -0.19962755375E+02  0.11911166364E+02  0.19320538546E+02  0.30514637406E+02  0.41800000000E+01 0.  1.
        -11    1    1    2    0    0 -0.25163770118E+02  0.26299268098E+02 -0.10823204653E+03  0.11418862783E+03  0.00000000000E+00 0. -1.
         11    1    1    2    0    0  0.46152687748E+02  0.22227516271E+02 -0.34013986178E+02  0.61490522210E+02  0.00000000000E+00 0.  1.
</event>
<event>
 7    1  0.2810263E-009  0.4670158E+03  0.7561462E-02  0.1022766E+00
          2   -1    0    0  501    0  0.00000000000E+00  0.00000000000E+00  0.15839552283E+04  0.15839552283E+04  0.00000000000E+00 0. -1.
         -2   -1    0    0    0  501 -0.00000000000E+00 -0.00000000000E+00 -0.15607634728E+03  0.15607634728E+03  0.00000000000E+00 0.  1.
         25    2    1    2    0    0 -0.81624856185E+02 -0.45302461713E+03  0.45132102884E+03  0.65668260879E+03  0.12508979470E+03 0.  0.
          5    1    3    3  502    0 -0.39026245459E+02 -0.41299029476E+03  0.36632767676E+03  0.55344147890E+03  0.41800000000E+01 0. -1.
         -5    1    3    3    0  502 -0.42598610725E+02 -0.40034322369E+02  0.84993352086E+02  0.10324112990E+03  0.41800000000E+01 0. -1.
        -11    1    1    2    0    0  0.27573782550E+02  0.11537859422E+03  0.16998261414E+03  0.20728391785E+03  0.00000000000E+00 0. -1.
         11    1    1    2    0    0  0.54051073635E+02  0.33764602291E+03  0.80657523802E+03  0.87606504892E+03  0.00000000000E+00 0.  1.
</event>
<event>
 7    1  0.2810263E-009  0.1550787E+03  0.7561462E-02  0.1194368E+00
         -1   -1    0    0    0  501 -0.00000000000E+00  0.00000000000E+00  0.28663217258E+02  0.28663217258E+02  0.00000000000E+00 0.  1.
          1   -1    0    0  501    0  0.00000000000E+00 -0.00000000000E+00 -0.95948990346E+03  0.95948990346E+03  0.00000000000E+00 0. -1.
         25    2    1    2    0    0 -0.46843843840E+02 -0.10452859774E+03 -0.34922548254E+03  0.38823481039E+03  0.12508899591E+03 0.  0.
          5    1    3    3  502    0  0.40346002578E+02 -0.44312635819E+02 -0.90540149829E+02  0.10865726275E+03  0.41800000000E+01 0. -1.
         -5    1    3    3    0  502 -0.87189846417E+02 -0.60215961917E+02 -0.25868533271E+03  0.27957754764E+03  0.41800000000E+01 0. -1.
        -11    1    1    2    0    0 -0.25802256715E+02  0.34990574324E+02 -0.23652654333E+03  0.24048888216E+03  0.00000000000E+00 0. -1.
         11    1    1    2    0    0  0.72646100555E+02  0.69538023412E+02 -0.34507466033E+03  0.35942942817E+03  0.00000000000E+00 0.  1.
</event>
<event>
 7    1  0.2810263E-009  0.9663440E+02  0.7561462E-02  0.1287537E+00
          2   -1    0    0  501    0  0.00000000000E+00  0.00000000000E+00  0.20423755977E+03  0.20423755977E+03  0.00000000000E+00 0. -1.
         -2   -1    0    0    0  501 -0.00000000000E+00 -0.00000000000E+00 -0.58894441894E+02  0.58894441894E+02  0.00000000000E+00 0.  1.
         25    2    1    2    0    0 -0.82766747940E+00  0.12921395890E+02  0.89431880633E+02  0.15431460862E+03  0.12508912685E+03 0.  0.
          5    1    3    3  502    0  0.32791560117E+02  0.57187473531E+02  0.29119837005E+02  0.72188162818E+02  0.41800000000E+01 0.  1.
         -5    1    3    3    0  502 -0.33619227596E+02 -0.44266077641E+02  0.60312043628E+02  0.82126445805E+02  0.41800000000E+01 0.  1.
        -11    1    1    2    0    0 -0.34285328074E+02 -0.12073185566E+02  0.63235932055E+02  0.72938526402E+02  0.00000000000E+00 0. -1.
         11    1    1    2    0    0  0.35112995553E+02 -0.84821032460E+00 -0.73246948102E+01  0.35878866642E+02  0.00000000000E+00 0.  1.
</event>
<event>
 7    1  0.2810263E-009  0.1058808E+03  0.7561462E-02  0.1268394E+00
          2   -1    0    0  501    0  0.00000000000E+00  0.00000000000E+00  0.37886247334E+03  0.37886247334E+03  0.00000000000E+00 0. -1.
         -2   -1    0    0    0  501 -0.00000000000E+00 -0.00000000000E+00 -0.36626504313E+02  0.36626504313E+02  0.00000000000E+00 0.  1.
         25    2    1    2    0    0  0.71592522730E+01  0.35251554706E+02  0.22857673570E+03  0.26303744243E+03  0.12508974784E+03 0.  0.
          5    1    3    3  502    0  0.44308016519E+02 -0.18491007705E+02  0.37521683273E+02  0.61077547506E+02  0.41800000000E+01 0.  1.
         -5    1    3    3    0  502 -0.37148764246E+02  0.53742562411E+02  0.19105505243E+03  0.20195989492E+03  0.41800000000E+01 0.  1.
        -11    1    1    2    0    0 -0.48526274658E+02 -0.28240814178E+02  0.44852771507E+02  0.71861770292E+02  0.00000000000E+00 0.  1.
         11    1    1    2    0    0  0.41367022385E+02 -0.70107405277E+01  0.68806461824E+02  0.80589764936E+02  0.00000000000E+00 0. -1.
</event>
<event>
 7    1  0.2810263E-009  0.1371109E+03  0.7561462E-02  0.1217270E+00
          2   -1    0    0  501    0  0.00000000000E+00  0.00000000000E+00  0.83443635874E+03  0.83443635874E+03  0.00000000000E+00 0. -1.
         -2   -1    0    0    0  501 -0.00000000000E+00 -0.00000000000E+00 -0.26325932584E+02  0.26325932584E+02  0.00000000000E+00 0.  1.
         25    2    1    2    0    0 -0.37357596360E+02 -0.91482002139E+02  0.48826512307E+03  0.51362893310E+03  0.12508918334E+03 0.  0.
          5    1    3    3  502    0 -0.25480093190E+02  0.28624647787E+02  0.12594920628E+03  0.13171666779E+03  0.41800000000E+01 0.  1.
         -5    1    3    3    0  502 -0.11877503170E+02 -0.12010664993E+03  0.36231591679E+03  0.38191226532E+03  0.41800000000E+01 0.  1.
        -11    1    1    2    0    0  0.48873676618E+02  0.43067093412E+02  0.26579832952E+03  0.27366432500E+03  0.00000000000E+00 0. -1.
         11    1    1    2    0    0 -0.11516080258E+02  0.48414908727E+02  0.54046973560E+02  0.73469033222E+02  0.00000000000E+00 0.  1.
</event>
<event>
 7    1  0.2810263E-009  0.1788427E+03  0.7561462E-02  0.1168928E+00
         -1   -1    0    0    0  501 -0.00000000000E+00  0.00000000000E+00  0.18359291368E+03  0.18359291368E+03  0.00000000000E+00 0.  1.
          1   -1    0    0  501    0  0.00000000000E+00 -0.00000000000E+00 -0.19694862565E+03  0.19694862565E+03  0.00000000000E+00 0. -1.
         25    2    1    2    0    0  0.14342727160E+03 -0.57241863926E+02  0.22481288973E+02  0.20001047212E+03  0.12510302706E+03 0.  0.
          5    1    3    3  502    0  0.15507821946E+03 -0.40904573136E+02 -0.10934931861E+02  0.16080884115E+03  0.41800000000E+01 0. -1.
         -5    1    3    3    0  502 -0.11650947864E+02 -0.16337290790E+02  0.33416220834E+02  0.39201630978E+02  0.41800000000E+01 0. -1.
        -11    1    1    2    0    0 -0.11192031544E+03  0.58286465339E+00 -0.26676277504E+02  0.11505703160E+03  0.00000000000E+00 0. -1.
         11    1    1    2    0    0 -0.31506956160E+02  0.56658999272E+02 -0.91607234360E+01  0.65474035608E+02  0.00000000000E+00 0.  1.
</event>
<event>
 7    1  0.2810263E-009  0.1103706E+03  0.7561462E-02  0.1259885E+00
         -4   -1    0    0    0  501 -0.00000000000E+00  0.00000000000E+00  0.44651680647E+02  0.44651680647E+02  0.00000000000E+00 0.  1.
          4   -1    0    0  501    0  0.00000000000E+00 -0.00000000000E+00 -0.31581872776E+03  0.31581872776E+03  0.00000000000E+00 0. -1.
         25    2    1    2    0    0 -0.34861740510E+02  0.23876478318E+01 -0.20609435815E+03  0.24360086665E+03  0.12508179708E+03 0.  0.
          5    1    3    3  502    0 -0.78821871954E+02 -0.41044793063E+01 -0.16489584329E+03  0.18286018097E+03  0.41800000000E+01 0.  1.
         -5    1    3    3    0  502  0.43960131444E+02  0.64921271380E+01 -0.41198514854E+02  0.60740685685E+02  0.41800000000E+01 0.  1.
        -11    1    1    2    0    0 -0.20959654005E+02  0.26843527745E+02 -0.22090141627E+02  0.40593797986E+02  0.00000000000E+00 0.  1.
         11    1    1    2    0    0  0.55821394515E+02 -0.29231175577E+02 -0.42982547335E+02  0.76275743763E+02  0.00000000000E+00 0. -1.
</event>
<event>
 7    1  0.2810263E-009  0.4914045E+02  0.7561462E-02  0.1450034E+00
         -1   -1    0    0    0  501 -0.00000000000E+00  0.00000000000E+00  0.16788142240E+03  0.16788142240E+03  0.00000000000E+00 0.  1.
          1   -1    0    0  501    0  0.00000000000E+00 -0.00000000000E+00 -0.71373921249E+02  0.71373921249E+02  0.00000000000E+00 0. -1.
         25    2    1    2    0    0  0.21789016079E+00 -0.46481427278E+01  0.65582404517E+02  0.14131618507E+03  0.12509020614E+03 0.  0.
          5    1    3    3  502    0  0.21337023208E+01 -0.11482212277E+02 -0.36680996066E+02  0.38721592901E+02  0.41800000000E+01 0.  1.
         -5    1    3    3    0  502 -0.19158121600E+01  0.68340695493E+01  0.10226340058E+03  0.10259459217E+03  0.41800000000E+01 0.  1.
        -11    1    1    2    0    0 -0.32278692978E+02  0.23971132872E+02 -0.11050083813E+02  0.41696925351E+02  0.00000000000E+00 0. -1.
         11    1    1    2    0    0  0.32060802817E+02 -0.19322990144E+02  0.41975180448E+02  0.56242233233E+02  0.00000000000E+00 0.  1.
</event>
<event>
 7    1  0.2810263E-009  0.1077606E+03  0.7561462E-02  0.1264774E+00
          1   -1    0    0  501    0  0.00000000000E+00  0.00000000000E+00  0.33559035493E+03  0.33559035493E+03  0.00000000000E+00 0. -1.
         -1   -1    0    0    0  501 -0.00000000000E+00 -0.00000000000E+00 -0.80575768327E+02  0.80575768327E+02  0.00000000000E+00 0.  1.
         25    2    1    2    0    0 -0.37003673092E+02  0.77074737153E+02  0.18551157412E+02  0.15264401348E+03  0.12508502101E+03 0.  0.
          5    1    3    3  502    0 -0.57676468789E+02  0.11290660782E+02  0.49493124804E+02  0.76948657400E+02  0.41800000000E+01 0. -1.
         -5    1    3    3    0  502  0.20672795697E+02  0.65784076371E+02 -0.30941967391E+02  0.75695356079E+02  0.41800000000E+01 0. -1.
        -11    1    1    2    0    0  0.23548596969E+02 -0.66055802868E+02  0.23592014031E+03  0.24612236411E+03  0.00000000000E+00 0. -1.
         11    1    1    2    0    0  0.13455076123E+02 -0.11018934285E+02  0.54328887525E+00  0.17399745660E+02  0.00000000000E+00 0.  1.
</event>
<event>
 7    1  0.2810263E-009  0.1080395E+03  0.7561462E-02  0.1264244E+00
          1   -1    0    0  501    0  0.00000000000E+00  0.00000000000E+00  0.74664455932E+02  0.74664455932E+02  0.00000000000E+00 0. -1.
         -1   -1    0    0    0  501 -0.00000000000E+00 -0.00000000000E+00 -0.20486062455E+03  0.20486062455E+03  0.00000000000E+00 0.  1.
         25    2    1    2    0    0  0.34520368299E+01 -0.43054026295E+02 -0.24625130706E+02  0.13460417103E+03  0.12508525116E+03 0.  0.
          5    1    3    3  502    0  0.55681595344E+02 -0.13047060649E+01  0.13579933716E+02  0.57480686476E+02  0.41800000000E+01 0.  1.
         -5    1    3    3    0  502 -0.52229558514E+02 -0.41749320230E+02 -0.38205064423E+02  0.77123484555E+02  0.41800000000E+01 0.  1.
        -11    1    1    2    0    0 -0.39382809021E+02  0.41577795534E+02 -0.39092920277E+02  0.69339564057E+02  0.00000000000E+00 0. -1.
         11    1    1    2    0    0  0.35930772191E+02  0.14762307613E+01 -0.66478117638E+02  0.75581345398E+02  0.00000000000E+00 0.  1.
</event>
<event>
 7    1  0.2810263E-009  0.1143065E+03  0.7561462E-02  0.1252796E+00
         -3   -1    0    0    0  501 -0.00000000000E+00  0.00000000000E+00  0.15568428839E+03  0.15568428839E+03  0.00000000000E+00 0.  1.
          3   -1    0    0  501    0  0.00000000000E+00 -0.00000000000E+00 -0.15732346950E+03  0.15732346950E+03  0.00000000000E+00 0. -1.
         25    2    1    2    0    0  0.99378148596E+02 -0.21204936163E+02  0.46619926966E+02  0.16777247877E+03  0.12509404985E+03 0.  0.
          5    1    3    3  502    0  0.23277558857E+02  0.24346108393E+02  0.68392700251E+02  0.76351893152E+02  0.41800000000E+01 0. -1.
         -5    1    3    3    0  502  0.76100589739E+02 -0.45551044556E+02 -0.21772773285E+02  0.91420585621E+02  0.41800000000E+01 0. -1.
        -11    1    1    2    0    0 -0.25926680384E+02 -0.75470631940E+01 -0.59708238815E+02  0.65530334205E+02  0.00000000000E+00 0. -1.
         11    1    1    2    0    0 -0.73451468212E+02  0.28751999357E+02  0.11449130737E+02  0.79704944917E+02  0.00000000000E+00 0.  1.
</event>
<event>
 7    1  0.2810263E-009  0.1201062E+03  0.7561462E-02  0.1242922E+00
          1   -1    0    0  501    0  0.00000000000E+00  0.00000000000E+00  0.10934943728E+04  0.10934943728E+04  0.00000000000E+00 0. -1.
         -1   -1    0    0    0  501 -0.00000000000E+00 -0.00000000000E+00 -0.23815344615E+02  0.23815344615E+02  0.00000000000E+00 0.  1.
         25    2    1    2    0    0 -0.37514579873E+02  0.86090955352E+02  0.81963755824E+03  0.83443134276E+03  0.12510372738E+03 0.  0.
          5    1    3    3  502    0 -0.70599073367E+02  0.45648553430E+02  0.68157009957E+03  0.68674834737E+03  0.41800000000E+01 0. -1.
         -5    1    3    3    0  502  0.33084493494E+02  0.40442401923E+02  0.13806745867E+03  0.14768299539E+03  0.41800000000E+01 0. -1.
        -11    1    1    2    0    0  0.14312516323E+01 -0.57667678898E+02  0.46143004620E+02  0.73870065291E+02  0.00000000000E+00 0.  1.
         11    1    1    2    0    0  0.36083328241E+02 -0.28423276454E+02  0.20389846531E+03  0.20900830935E+03  0.00000000000E+00 0. -1.
</event>
<event>
 7    1  0.2810263E-009  0.1088721E+03  0.7561462E-02  0.1262673E+00
         -1   -1    0    0    0  501 -0.00000000000E+00  0.00000000000E+00  0.71852199394E+02  0.71852199394E+02  0.00000000000E+00 0.  1.
          1   -1    0    0  501    0  0.00000000000E+00 -0.00000000000E+00 -0.20543968814E+03  0.20543968814E+03  0.00000000000E+00 0. -1.
         25    2    1    2    0    0 -0.48726180002E+02 -0.45803653543E+01 -0.47149695910E+02  0.14236133705E+03  0.12509370927E+03 0.  0.
          5    1    3    3  502    0  0.36306867965E+02  0.24494970058E+02 -0.20468685114E+02  0.48524547292E+02  0.41800000000E+01 0.  1.
         -5    1    3    3    0  502 -0.85033047967E+02 -0.29075335413E+02 -0.26681010796E+02  0.93836789763E+02  0.41800000000E+01 0.  1.
        -11    1    1    2    0    0  0.30818290563E+02 -0.31149107122E+02 -0.84179017273E+02  0.94900689443E+02  0.00000000000E+00 0. -1.
         11    1    1    2    0    0  0.17907889439E+02  0.35729472476E+02 -0.22587755643E+01  0.40029861037E+02  0.00000000000E+00 0.  1.
</event>
<event>
 7    1  0.2810263E-009  0.1070580E+03  0.7561462E-02  0.1266117E+00
          2   -1    0    0  501    0  0.00000000000E+00  0.00000000000E+00  0.64858421915E+02  0.64858421915E+02  0.00000000000E+00 0. -1.
         -2   -1    0    0    0  501 -0.00000000000E+00 -0.00000000000E+00 -0.29291931549E+03  0.29291931549E+03  0.00000000000E+00 0.  1.
         25    2    1    2    0    0  0.24518464674E+02  0.29351864482E+02 -0.26658522544E+02  0.13348449095E+03  0.12507895683E+03 0.  0.
          5    1    3    3  502    0  0.67227470229E+02  0.66583574750E+01 -0.45341873697E+02  0.81469162190E+02  0.41800000000E+01 0.  1.
         -5    1    3    3    0  502 -0.42709005554E+02  0.22693507007E+02  0.18683351153E+02  0.52015328760E+02  0.41800000000E+01 0.  1.
        -11    1    1    2    0    0  0.32154647462E+02 -0.25578919566E+02 -0.99120082075E+02  0.10729861672E+03  0.00000000000E+00 0.  1.
         11    1    1    2    0    0 -0.56673112136E+02 -0.37729449156E+01 -0.10228228896E+03  0.11699462973E+03  0.00000000000E+00 0. -1.
</event>
<event>
 7    1  0.2810263E-009  0.9280910E+02  0.7561462E-02  0.1296188E+00
         -2   -1    0    0    0  501 -0.00000000000E+00  0.00000000000E+00  0.37741358036E+02  0.37741358036E+02  0.00000000000E+00 0. -1.
          2   -1    0    0  501    0  0.00000000000E+00 -0.00000000000E+00 -0.33813921430E+03  0.33813921430E+03  0.00000000000E+00 0.  1.
         25    2    1    2    0    0 -0.26611218431E+02  0.17048872298E+02 -0.23200765274E+03  0.26547163248E+03  0.12509522666E+03 0.  0.
          5    1    3    3  502    0 -0.65817117106E+02 -0.12559302234E+02 -0.18709580099E+03  0.19877610552E+03  0.41800000000E+01 0. -1.
         -5    1    3    3    0  502  0.39205898675E+02  0.29608174532E+02 -0.44911851745E+02  0.66695526965E+02  0.41800000000E+01 0. -1.
        -11    1    1    2    0    0 -0.28858350458E+01 -0.34687476817E+02 -0.67595839282E+02  0.76031221088E+02  0.00000000000E+00 0.  1.
         11    1    1    2    0    0  0.29497053477E+02  0.17638604519E+02 -0.79436425028E+00  0.34377718769E+02  0.00000000000E+00 0. -1.
</event>
<event>
 7    1  0.2810263E-009  0.1581223E+03  0.7561462E-02  0.1190833E+00
         -1   -1    0    0    0  501 -0.00000000000E+00  0.00000000000E+00  0.41482199633E+03  0.41482199633E+03  0.00000000000E+00 0.  1.
          1   -1    0    0  501    0  0.00000000000E+00 -0.00000000000E+00 -0.64496727491E+02  0.64496727491E+02  0.00000000000E+00 0. -1.
         25    2    1    2    0    0 -0.79046960404E+02  0.92770064741E+02  0.15656061736E+03  0.23454836118E+03  0.12508796890E+03 0.  0.
          5    1    3    3  502    0  0.98923738402E+01  0.77630903023E+02  0.10341773327E+03  0.12975791351E+03  0.41800000000E+01 0. -1.
         -5    1    3    3    0  502 -0.88939334244E+02  0.15139161718E+02  0.53142884087E+02  0.10479044767E+03  0.41800000000E+01 0. -1.
        -11    1    1    2    0    0  0.62910747521E+02 -0.10572981612E+02  0.10388456334E+03  0.12190796772E+03  0.00000000000E+00 0.  1.
         11    1    1    2    0    0  0.16136212883E+02 -0.82197083129E+02  0.89880088141E+02  0.12286239492E+03  0.00000000000E+00 0. -1.
</event>
<event>
 7    1  0.2810263E-009  0.1316430E+03  0.7561462E-02  0.1225038E+00
          2   -1    0    0  501    0  0.00000000000E+00  0.00000000000E+00  0.26009187948E+03  0.26009187948E+03  0.00000000000E+00 0.  1.
         -2   -1    0    0    0  501 -0.00000000000E+00 -0.00000000000E+00 -0.81947439006E+02  0.81947439006E+02  0.00000000000E+00 0. -1.
         25    2    1    2    0    0 -0.20207888893E+02  0.91816436176E+02  0.11462590238E+03  0.19397021477E+03  0.12508688978E+03 0.  0.
          5    1    3    3  502    0  0.64389541327E+01  0.10082073037E+03  0.31177878606E+02  0.10581026565E+03  0.41800000000E+01 0.  1.
         -5    1    3    3    0  502 -0.26646843025E+02 -0.90042941912E+01  0.83448023775E+02  0.88159949122E+02  0.41800000000E+01 0.  1.
        -11    1    1    2    0    0  0.57504954749E+02 -0.69761544593E+02  0.41878539351E+02  0.99635861932E+02  0.00000000000E+00 0. -1.
         11    1    1    2    0    0 -0.37297065857E+02 -0.22054891583E+02  0.21639998739E+02  0.48433241784E+02  0.00000000000E+00 0.  1.
</event>
<event>
 7    1  0.2810263E-009  0.5798184E+02  0.7561462E-02  0.1406502E+00
          2   -1    0    0  501    0  0.00000000000E+00  0.00000000000E+00  0.30471090974E+03  0.30471090974E+03  0.00000000000E+00 0.  1.
         -2   -1    0    0    0  501 -0.00000000000E+00 -0.00000000000E+00 -0.50097490961E+02  0.50097490961E+02  0.00000000000E+00 0. -1.
         25    2    1    2    0    0 -0.31247511130E+02 -0.11314510922E+02  0.71641392173E+02  0.14793239138E+03  0.12508828178E+03 0.  0.
          5    1    3    3  502    0  0.31664552583E+01 -0.59398141691E+01 -0.34887462614E+02  0.35775903607E+02  0.41800000000E+01 0.  1.
         -5    1    3    3    0  502 -0.34413966389E+02 -0.53746967532E+01  0.10652885479E+03  0.11215648777E+03  0.41800000000E+01 0.  1.
        -11    1    1    2    0    0  0.31172683849E+02 -0.22940557904E+02  0.27011121544E+02  0.47197522206E+02  0.00000000000E+00 0. -1.
         11    1    1    2    0    0  0.74827280997E-01  0.34255068826E+02  0.15596090507E+03  0.15967848712E+03  0.00000000000E+00 0.  1.
</event>
<event>
 7    1  0.2810263E-009  0.1082425E+03  0.7561462E-02  0.1263860E+00
          1   -1    0    0  501    0  0.00000000000E+00  0.00000000000E+00  0.13688319599E+03  0.13688319599E+03  0.00000000000E+00 0. -1.
         -1   -1    0    0    0  501 -0.00000000000E+00 -0.00000000000E+00 -0.13870109005E+03  0.13870109005E+03  0.00000000000E+00 0.  1.
         25    2    1    2    0    0 -0.26773879119E+02  0.70314821494E+02 -0.20126672963E+02  0.14735815055E+03  0.12509327258E+03 0.  0.
          5    1    3    3  502    0  0.47334487992E+02  0.33933456019E+02  0.10263414978E+02  0.59286113702E+02  0.41800000000E+01 0.  1.
         -5    1    3    3    0  502 -0.74108367111E+02  0.36381365475E+02 -0.30390087941E+02  0.88072036849E+02  0.41800000000E+01 0.  1.
        -11    1    1    2    0    0  0.25595172921E+01 -0.12342912070E+02 -0.40349935737E+02  0.42273111089E+02  0.00000000000E+00 0.  1.
         11    1    1    2    0    0  0.24214361827E+02 -0.57971909424E+02  0.58658714634E+02  0.85953024400E+02  0.00000000000E+00 0. -1.
</event>
<event>
 7    1  0.2810263E-009  0.1485515E+03  0.7561462E-02  0.1202264E+00
         -3   -1    0    0    0  501 -0.00000000000E+00  0.00000000000E+00  0.12336215016E+04  0.12336215016E+04  0.00000000000E+00 0. -1.
          3   -1    0    0  501    0  0.00000000000E+00 -0.00000000000E+00 -0.21727439267E+02  0.21727439267E+02  0.00000000000E+00 0.  1.
         25    2    1    2    0    0  0.10885951649E+03 -0.32488862300E+02  0.82380241315E+03  0.84095405957E+03  0.12508954343E+03 0.  0.
          5    1    3    3  502    0  0.11960544215E+03  0.94419060408E+01  0.68686759165E+03  0.69727983783E+03  0.41800000000E+01 0.  1.
         -5    1    3    3    0  502 -0.10745925654E+02 -0.41930768341E+02  0.13693482150E+03  0.14367422174E+03  0.41800000000E+01 0.  1.
        -11    1    1    2    0    0 -0.88215769359E+00  0.25336065528E+02  0.25331847975E+02  0.35838484071E+02  0.00000000000E+00 0.  1.
         11    1    1    2    0    0 -0.10797735880E+03  0.71527967720E+01  0.36275980118E+03  0.37855639721E+03  0.00000000000E+00 0. -1.
</event>
<event>
 7    1  0.2810263E-009  0.2099402E+03  0.7561462E-02  0.1141613E+00
          2   -1    0    0  501    0  0.00000000000E+00  0.00000000000E+00  0.11383314312E+03  0.11383314312E+03  0.00000000000E+00 0. -1.
         -2   -1    0    0    0  501 -0.00000000000E+00 -0.00000000000E+00 -0.42373544499E+03  0.42373544499E+03  0.00000000000E+00 0.  1.
         25    2    1    2    0    0 -0.41213130553E+02  0.17517505711E+03 -0.23956185685E+03  0.32468831433E+03  0.12509114854E+03 0.  0.
          5    1    3    3  502    0  0.37633643176E+02  0.11135459035E+03 -0.12627902932E+03  0.17256883130E+03  0.41800000000E+01 0. -1.
         -5    1    3    3    0  502 -0.78846773729E+02  0.63820466762E+02 -0.11328282753E+03  0.15211948303E+03  0.41800000000E+01 0. -1.
        -11    1    1    2    0    0  0.47986258623E+02 -0.32621301435E+02 -0.16224084624E+02  0.60249906604E+02  0.00000000000E+00 0.  1.
         11    1    1    2    0    0 -0.67731280700E+01 -0.14255375567E+03 -0.54116360399E+02  0.15263036717E+03  0.00000000000E+00 0. -1.
</event>
<event>
 7    1  0.2810263E-009  0.1097635E+03  0.7561462E-02  0.1261009E+00
          2   -1    0    0  501    0  0.00000000000E+00  0.00000000000E+00  0.19956503031E+02  0.19956503031E+02  0.00000000000E+00 0. -1.
         -2   -1    0    0    0  501 -0.00000000000E+00 -0.00000000000E+00 -0.70868285354E+03  0.70868285354E+03  0.00000000000E+00 0.  1.
         25    2    1    2    0    0  0.25344716124E+02 -0.36000159066E+02 -0.45658230351E+03  0.47545112425E+03  0.12509198847E+03 0.  0.
          5    1    3    3  502    0  0.63176280318E+02 -0.59093629365E+02 -0.33359454925E+03  0.34465358712E+03  0.41800000000E+01 0.  1.
         -5    1    3    3    0  502 -0.37831564194E+02  0.23093470299E+02 -0.12298775426E+03  0.13079753713E+03  0.41800000000E+01 0.  1.
        -11    1    1    2    0    0 -0.53041197873E+02  0.23688000132E+02 -0.20296978869E+03  0.21111898338E+03  0.00000000000E+00 0.  1.
         11    1    1    2    0    0  0.27696481749E+02  0.12312158934E+02 -0.29174258298E+02  0.42069248937E+02  0.00000000000E+00 0. -1.
</event>
<event>
 7    1  0.2810263E-009  0.1427914E+03  0.7561462E-02  0.1209622E+00
         -2   -1    0    0    0  501 -0.00000000000E+00  0.00000000000E+00  0.25468807046E+02  0.25468807046E+02  0.00000000000E+00 0.  1.
          2   -1    0    0  501    0  0.00000000000E+00 -0.00000000000E+00 -0.11449334041E+04  0.11449334041E+04  0.00000000000E+00 0. -1.
         25    2    1    2    0    0  0.10559337385E+03 -0.47811657277E+01 -0.86147217312E+03  0.87690069201E+03  0.12509076086E+03 0.  0.
          5    1    3    3  502    0  0.10184974547E+03 -0.40400160895E+02 -0.78175967593E+03  0.78941193744E+03  0.41800000000E+01 0.  1.
         -5    1    3    3    0  502  0.37436283788E+01  0.35618995168E+02 -0.79712497186E+02  0.87488754579E+02  0.41800000000E+01 0.  1.
        -11    1    1    2    0    0 -0.58897272848E+02 -0.43108166083E+02 -0.13016807400E+03  0.14923448067E+03  0.00000000000E+00 0. -1.
         11    1    1    2    0    0 -0.46696100998E+02  0.47889331811E+02 -0.12782434994E+03  0.14426703846E+03  0.00000000000E+00 0.  1.
</event>
<event>
 7    1  0.2810263E-009  0.9178456E+02  0.7561462E-02  0.1298587E+00
          1   -1    0    0  501    0  0.00000000000E+00  0.00000000000E+00  0.34021130802E+02  0.34021130802E+02  0.00000000000E+00 0. -1.
         -1   -1    0    0    0  501 -0.00000000000E+00 -0.00000000000E+00 -0.46955518554E+03  0.46955518554E+03  0.00000000000E+00 0.  1.
         25    2    1    2    0    0  0.30617360691E+02  0.11986042969E+02 -0.35160068352E+03  0.37463502761E+03  0.12508906931E+03 0.  0.
          5    1    3    3  502    0  0.11592843904E+02 -0.50114041366E+02 -0.23962396626E+03  0.24511819349E+03  0.41800000000E+01 0.  1.
         -5    1    3    3    0  502  0.19024516787E+02  0.62100084335E+02 -0.11197671726E+03  0.12951683412E+03  0.41800000000E+01 0.  1.
        -11    1    1    2    0    0  0.43694948447E+01  0.19394627774E+02  0.11209714626E+02  0.22823272633E+02  0.00000000000E+00 0. -1.
         11    1    1    2    0    0 -0.34986855535E+02 -0.31380670743E+02 -0.95143085841E+02  0.10611801609E+03  0.00000000000E+00 0.  1.
</event>
<event>
 7    1  0.2810263E-009  0.9066918E+02  0.7561462E-02  0.1301239E+00
          1   -1    0    0  501    0  0.00000000000E+00  0.00000000000E+00  0.13178388278E+03  0.13178388278E+03  0.00000000000E+00 0. -1.
         -1   -1    0    0    0  501 -0.00000000000E+00 -0.00000000000E+00 -0.91159564134E+02  0.91159564134E+02  0.00000000000E+00 0.  1.
         25    2    1    2    0    0  0.68493894880E+01  0.93330246260E+01  0.25094623613E+02  0.12810767230E+03  0.12509123104E+03 0.  0.
          5    1    3    3  502    0  0.55591416731E+02 -0.24858011692E+02 -0.50394883749E+01  0.61247001580E+02  0.41800000000E+01 0.  1.
         -5    1    3    3    0  502 -0.48742027243E+02  0.34191036318E+02  0.30134111988E+02  0.66860670723E+02  0.41800000000E+01 0.  1.
        -11    1    1    2    0    0 -0.27737763156E-02 -0.34516541419E+02 -0.27755528724E+02  0.44291771403E+02  0.00000000000E+00 0. -1.
         11    1    1    2    0    0 -0.68466157117E+01  0.25183516793E+02  0.43285223760E+02  0.50544003212E+02  0.00000000000E+00 0.  1.
</event>
<event>
 7    1  0.2810263E-009  0.9483126E+02  0.7561462E-02  0.1291557E+00
         -1   -1    0    0    0  501 -0.00000000000E+00  0.00000000000E+00  0.51317556113E+02  0.51317556113E+02  0.00000000000E+00 0.  1.
          1   -1    0    0  501    0  0.00000000000E+00 -0.00000000000E+00 -0.26721321814E+03  0.26721321814E+03  0.00000000000E+00 0. -1.
         25    2    1    2    0    0 -0.25037479862E+02 -0.35159359705E+02 -0.12953939384E+03  0.18518020338E+03  0.12509275436E+03 0.  0.
          5    1    3    3  502    0 -0.42866490038E+02 -0.71619887918E+02 -0.11436983093E+03  0.14165053808E+03  0.41800000000E+01 0.  1.
         -5    1    3    3    0  502  0.17829010176E+02  0.36460528213E+02 -0.15169562919E+02  0.43529665294E+02  0.41800000000E+01 0.  1.
        -11    1    1    2    0    0  0.20783428468E+02  0.47708094335E+02 -0.65469287621E+01  0.52448788739E+02  0.00000000000E+00 0.  1.
         11    1    1    2    0    0  0.42540513940E+01 -0.12548734630E+02 -0.79809339423E+02  0.80901782138E+02  0.00000000000E+00 0. -1.
</event>
<event>
 7    1  0.2810263E-009  0.1132488E+03  0.7561462E-02  0.1254669E+00
         -3   -1    0    0    0  501 -0.00000000000E+00  0.00000000000E+00  0.42923277558E+02  0.42923277558E+02  0.00000000000E+00 0.  1.
          3   -1    0    0  501    0  0.00000000000E+00 -0.00000000000E+00 -0.43326975574E+03  0.43326975574E+03  0.00000000000E+00 0. -1.
         25    2    1    2    0    0  0.12036456849E+02  0.46121437581E+02 -0.33025643405E+03  0.35635428599E+03  0.12508797550E+03 0.  0.
          5    1    3    3  502    0 -0.46067017946E+02  0.45150550344E+02 -0.24288482917E+03  0.25133892452E+03  0.41800000000E+01 0.  1.
         -5    1    3    3    0  502  0.58103474795E+02  0.97088723740E+00 -0.87371604887E+02  0.10501536148E+03  0.41800000000E+01 0.  1.
        -11    1    1    2    0    0 -0.51856239422E+02 -0.33859927035E+02 -0.38331985203E+02  0.72834780946E+02  0.00000000000E+00 0. -1.
         11    1    1    2    0    0  0.39819782573E+02 -0.12261510546E+02 -0.21758058922E+02  0.47003966355E+02  0.00000000000E+00 0.  1.
</event>
<event>
 7    1  0.2810263E-009  0.1844350E+03  0.7561462E-02  0.1163579E+00
          3   -1    0    0  501    0  0.00000000000E+00  0.00000000000E+00  0.11115996489E+03  0.11115996489E+03  0.00000000000E+00 0. -1.
         -3   -1    0    0    0  501 -0.00000000000E+00 -0.00000000000E+00 -0.42309340379E+03  0.42309340379E+03  0.00000000000E+00 0.  1.
         25    2    1    2    0    0 -0.16898440852E+03 -0.67916080499E+02 -0.11630165903E+03  0.24968494888E+03  0.12509265961E+03 0.  0.
          5    1    3    3  502    0 -0.32836403514E+02 -0.27846834633E+02  0.24509011487E+02  0.49717598885E+02  0.41800000000E+01 0. -1.
         -5    1    3    3    0  502 -0.13614800501E+03 -0.40069245866E+02 -0.14081067052E+03  0.19996735000E+03  0.41800000000E+01 0. -1.
        -11    1    1    2    0    0  0.61586927422E+02  0.37101325479E+02 -0.17015566522E+02  0.73884961160E+02  0.00000000000E+00 0. -1.
         11    1    1    2    0    0  0.10739748110E+03  0.30814755020E+02 -0.17861621335E+03  0.21068345864E+03  0.00000000000E+00 0.  1.
</event>
<event>
 7    1  0.2810263E-009  0.1143100E+03  0.7561462E-02  0.1252790E+00
         -3   -1    0    0    0  501 -0.00000000000E+00  0.00000000000E+00  0.29125045359E+03  0.29125045359E+03  0.00000000000E+00 0.  1.
          3   -1    0    0  501    0  0.00000000000E+00 -0.00000000000E+00 -0.73895926675E+02  0.73895926675E+02  0.00000000000E+00 0. -1.
         25    2    1    2    0    0  0.66708630171E+02  0.69124094393E+02  0.90806000655E+02  0.18199282825E+03  0.12508987974E+03 0.  0.
          5    1    3    3  502    0  0.44422741650E+02  0.23854036699E+02 -0.24385560207E+02  0.56165140337E+02  0.41800000000E+01 0. -1.
         -5    1    3    3    0  502  0.22285888521E+02  0.45270057693E+02  0.11519156086E+03  0.12582768791E+03  0.41800000000E+01 0. -1.
        -11    1    1    2    0    0  0.18763828952E+02 -0.23097051312E+01  0.40457442685E+02  0.44656698079E+02  0.00000000000E+00 0.  1.
         11    1    1    2    0    0 -0.85472459122E+02 -0.66814389261E+02  0.86091083579E+02  0.13849685394E+03  0.00000000000E+00 0. -1.
</event>
<event>
 7    1  0.2810263E-009  0.1945739E+03  0.7561462E-02  0.1154399E+00
         -3   -1    0    0    0  501 -0.00000000000E+00  0.00000000000E+00  0.11561878193E+04  0.11561878193E+04  0.00000000000E+00 0.  1.
          3   -1    0    0  501    0  0.00000000000E+00 -0.00000000000E+00 -0.45119721281E+02  0.45119721281E+02  0.00000000000E+00 0. -1.
         25    2    1    2    0    0  0.10284547789E+03  0.14666055453E+03  0.81716812016E+03  0.84586994123E+03  0.12508281375E+03 0.  0.
          5    1    3    3  502    0 -0.72758879303E+01  0.26444004274E+02  0.34917792539E+03  0.35027834630E+03  0.41800000000E+01 0.  1.
         -5    1    3    3    0  502  0.11012136582E+03  0.12021655025E+03  0.46799019477E+03  0.49559159493E+03  0.41800000000E+01 0.  1.
        -11    1    1    2    0    0 -0.11005008612E+03 -0.92723992289E+02  0.19230411682E+03  0.24018666397E+03  0.00000000000E+00 0.  1.
         11    1    1    2    0    0  0.72046082250E+01 -0.53936562237E+02  0.10159586099E+03  0.11525093534E+03  0.00000000000E+00 0. -1.
</event>
<event>
 7    1  0.2810263E-009  0.1023554E+03  0.7561462E-02  0.1275419E+00
          1   -1    0    0  501    0  0.00000000000E+00  0.00000000000E+00  0.58514525770E+03  0.58514525770E+03  0.00000000000E+00 0. -1.
         -1   -1    0    0    0  501 -0.00000000000E+00 -0.00000000000E+00 -0.31930310026E+02  0.31930310026E+02  0.00000000000E+00 0.  1.
         25    2    1    2    0    0 -0.19969371667E+02  0.61092065500E+02  0.40485110931E+03  0.42858270617E+03  0.12509076324E+03 0.  0.
          5    1    3    3  502    0 -0.34510157502E+02 -0.25984487503E+02  0.21266560300E+03  0.21704901673E+03  0.41800000000E+01 0. -1.
         -5    1    3    3    0  502  0.14540785835E+02  0.87076553003E+02  0.19218550630E+03  0.21153368944E+03  0.41800000000E+01 0. -1.
        -11    1    1    2    0    0 -0.94136937595E+01 -0.22766257518E+02 -0.71506197954E+01  0.25652514010E+02  0.00000000000E+00 0.  1.
         11    1    1    2    0    0  0.29383065426E+02 -0.38325807981E+02  0.15551445816E+03  0.16284034754E+03  0.00000000000E+00 0. -1.
</event>
<event>
 7    1  0.2810263E-009  0.1866806E+03  0.7561462E-02  0.1161490E+00
         -1   -1    0    0    0  501 -0.00000000000E+00  0.00000000000E+00  0.20341821366E+03  0.20341821366E+03  0.00000000000E+00 0.  1.
          1   -1    0    0  501    0  0.00000000000E+00 -0.00000000000E+00 -0.24277258543E+03  0.24277258543E+03  0.00000000000E+00 0. -1.
         25    2    1    2    0    0  0.78730039894E+02  0.14180463646E+03 -0.12644283161E+03  0.24071185354E+03  0.12508969847E+03 0.  0.
          5    1    3    3  502    0  0.69622373727E+02  0.16221662332E+03 -0.91114033655E+02  0.19869762790E+03  0.41800000000E+01 0. -1.
         -5    1    3    3    0  502  0.91076661663E+01 -0.20411986859E+02 -0.35328797955E+02  0.42014225632E+02  0.41800000000E+01 0. -1.
        -11    1    1    2    0    0 -0.18953236861E+02 -0.98310051653E+02  0.85301950152E+02  0.13153141884E+03  0.00000000000E+00 0.  1.
         11    1    1    2    0    0 -0.59776803033E+02 -0.43494584812E+02  0.17865096856E+01  0.73947526704E+02  0.00000000000E+00 0. -1.
</event>
<event>
 7    1  0.2810263E-009  0.9587858E+02  0.7561462E-02  0.1289209E+00
          1   -1    0    0  501    0  0.00000000000E+00  0.00000000000E+00  0.80957122055E+02  0.80957122055E+02  0.00000000000E+00 0. -1.
         -1   -1    0    0    0  501 -0.00000000000E+00 -0.00000000000E+00 -0.19487336794E+03  0.19487336794E+03  0.00000000000E+00 0.  1.
         25    2    1    2    0    0  0.32050435562E+02  0.51228900004E+02 -0.56593345062E+02  0.15000563528E+03  0.12508898151E+03 0.  0.
          5    1    3    3  502    0  0.73013892299E+02  0.24891243230E+02 -0.64314297596E+02  0.10052066322E+03  0.41800000000E+01 0. -1.
         -5    1    3    3    0  502 -0.40963456738E+02  0.26337656774E+02  0.77209525342E+01  0.49484972065E+02  0.41800000000E+01 0. -1.
        -11    1    1    2    0    0  0.20261386803E+01 -0.17711858996E+02 -0.73292971370E+02  0.75429933311E+02  0.00000000000E+00 0.  1.
         11    1    1    2    0    0 -0.34076574242E+02 -0.33517041009E+02  0.15970070545E+02  0.50394921404E+02  0.00000000000E+00 0. -1.
</event>
<event>
 7    1  0.2810263E-009  0.9674739E+02  0.7561462E-02  0.1287288E+00
          1   -1    0    0  501    0  0.00000000000E+00  0.00000000000E+00  0.33602273891E+02  0.33602273891E+02  0.00000000000E+00 0. -1.
         -1   -1    0    0    0  501 -0.00000000000E+00 -0.00000000000E+00 -0.32928922355E+03  0.32928922355E+03  0.00000000000E+00 0.  1.
         25    2    1    2    0    0 -0.38937241630E+02 -0.91151496691E+01 -0.19439227508E+03  0.23459628374E+03  0.12509142653E+03 0.  0.
          5    1    3    3  502    0  0.13412393100E+02 -0.55904587919E+02 -0.61843948875E+02  0.84542070305E+02  0.41800000000E+01 0.  1.
         -5    1    3    3    0  502 -0.52349634730E+02  0.46789438250E+02 -0.13254832621E+03  0.15005421343E+03  0.41800000000E+01 0.  1.
        -11    1    1    2    0    0  0.45372240986E+02  0.22514491367E+02 -0.38113755410E+02  0.63389280837E+02  0.00000000000E+00 0. -1.
         11    1    1    2    0    0 -0.64349993559E+01 -0.13399341698E+02 -0.63180919164E+02  0.64905932865E+02  0.00000000000E+00 0.  1.
</event>
<event>
 7    1  0.2810263E-009  0.2847679E+03  0.7561462E-02  0.1093113E+00
         -2   -1    0    0    0  501 -0.00000000000E+00  0.00000000000E+00  0.32235014808E+03  0.32235014808E+03  0.00000000000E+00 0.  1.
          2   -1    0    0  501    0  0.00000000000E+00 -0.00000000000E+00 -0.29157626156E+03  0.29157626156E+03  0.00000000000E+00 0. -1.
         25    2    1    2    0    0  0.26341935474E+03 -0.87246159615E+02 -0.55994492810E+02  0.30949187654E+03  0.12509272401E+03 0.  0.
          5    1    3    3  502    0  0.20383595620E+01 -0.18542389322E+02  0.21048949704E+02  0.28434236320E+02  0.41800000000E+01 0.  1.
         -5    1    3    3    0  502  0.26138099518E+03 -0.68703770293E+02 -0.77043442514E+02  0.28105764022E+03  0.41800000000E+01 0.  1.
        -11    1    1    2    0    0 -0.76779570219E+02  0.44180552786E+02  0.68582296223E+02  0.11202925958E+03  0.00000000000E+00 0.  1.
         11    1    1    2    0    0 -0.18663978452E+03  0.43065606829E+02  0.18186083110E+02  0.19240527352E+03  0.00000000000E+00 0. -1.
</event>
<event>
 7    1  0.2810263E-009  0.1638377E+03  0.7561462E-02  0.1184431E+00
          3   -1    0    0  501    0  0.00000000000E+00  0.00000000000E+00  0.71541149099E+02  0.71541149099E+02  0.00000000000E+00 0. -1.
         -3   -1    0    0    0  501 -0.00000000000E+00 -0.00000000000E+00 -0.50114528955E+03  0.50114528955E+03  0.00000000000E+00 0.  1.
         25    2    1    2    0    0 -0.93512826049E+02 -0.87282831809E+02 -0.35572834236E+03  0.39818706498E+03  0.12508934324E+03 0.  0.
          5    1    3    3  502    0 -0.24090143583E+02 -0.10249024075E+03 -0.17977852273E+03  0.20838035920E+03  0.41800000000E+01 0.  1.
         -5    1    3    3    0  502 -0.69422682466E+02  0.15207408945E+02 -0.17594981964E+03  0.18980670578E+03  0.41800000000E+01 0.  1.
        -11    1    1    2    0    0 -0.89859535235E+01  0.34842848242E+02 -0.41442238729E+02  0.54883791644E+02  0.00000000000E+00 0.  1.
         11    1    1    2    0    0  0.10249877957E+03  0.52439983567E+02 -0.32433559356E+02  0.11961558202E+03  0.00000000000E+00 0. -1.
</event>
<event>
 7    1  0.2810263E-009  0.1122494E+03  0.7561462E-02  0.1256460E+00
          2   -1    0    0  501    0  0.00000000000E+00  0.00000000000E+00  0.50199105460E+03  0.50199105460E+03  0.00000000000E+00 0. -1.
         -2   -1    0    0    0  501 -0.00000000000E+00 -0.00000000000E+00 -0.33742919545E+02  0.33742919545E+02  0.00000000000E+00 0.  1.
         25    2    1    2    0    0 -0.15032130272E+02  0.59894325156E+02  0.24223861201E+03  0.27953559490E+03  0.12508920233E+03 0.  0.
          5    1    3    3  502    0  0.44715372207E+02  0.25273008643E+02  0.38369429055E+02  0.64248540555E+02  0.41800000000E+01 0.  1.
         -5    1    3    3    0  502 -0.59747502479E+02  0.34621316513E+02  0.20386918295E+03  0.21528705434E+03  0.41800000000E+01 0.  1.
        -11    1    1    2    0    0  0.27300123380E+02  0.12737196884E+02  0.13885567943E+03  0.14208600434E+03  0.00000000000E+00 0. -1.
         11    1    1    2    0    0 -0.12267993108E+02 -0.72631522040E+02  0.87153843621E+02  0.11411237491E+03  0.00000000000E+00 0.  1.
</event>
<event>
 7    1  0.2810263E-009  0.8257264E+02  0.7561462E-02  0.1321905E+00
          1   -1    0    0  501    0  0.00000000000E+00  0.00000000000E+00  0.64482936427E+02  0.64482936427E+02  0.00000000000E+00 0. -1.
         -1   -1    0    0    0  501 -0.00000000000E+00 -0.00000000000E+00 -0.21510383288E+03  0.21510383288E+03  0.00000000000E+00 0.  1.
         25    2    1    2    0    0  0.79553095762E+01 -0.12169621728E+02 -0.13947884433E+03  0.18791950608E+03  0.12509199058E+03 0.  0.
          5    1    3    3  502    0 -0.20308463423E+02  0.37033186922E+02 -0.12079389082E+03  0.12803330458E+03  0.41800000000E+01 0. -1.
         -5    1    3    3    0  502  0.28263772999E+02 -0.49202808651E+02 -0.18684953502E+02  0.59886201504E+02  0.41800000000E+01 0. -1.
        -11    1    1    2    0    0 -0.33410836502E+02  0.20287038291E+02 -0.37477331547E+02  0.54151623229E+02  0.00000000000E+00 0.  1.
         11    1    1    2    0    0  0.25455526926E+02 -0.81174165630E+01  0.26335279417E+02  0.37515640001E+02  0.00000000000E+00 0. -1.
</event>
<event>
 7    1  0.2810263E-009  0.1477710E+03  0.7561462E-02  0.1203239E+00
          1   -1    0    0  501    0  0.00000000000E+00  0.00000000000E+00  0.74071879786E+02  0.74071879786E+02  0.00000000000E+00 0. -1.
         -1   -1    0    0    0  501 -0.00000000000E+00 -0.00000000000E+00 -0.55352175604E+03  0.55352175604E+03  0.00000000000E+00 0.  1.
         25    2    1    2    0    0 -0.22302625674E+02  0.13269541023E+03 -0.41252832334E+03  0.45158735953E+03  0.12508415854E+03 0.  0.
          5    1    3    3  502    0  0.30680687220E+02  0.21586060546E+02 -0.21872370865E+03  0.22195674287E+03  0.41800000000E+01 0. -1.
         -5    1    3    3    0  502 -0.52983312894E+02  0.11110934968E+03 -0.19380461469E+03  0.22963061666E+03  0.41800000000E+01 0. -1.
        -11    1    1    2    0    0  0.41029124290E+01 -0.36312758064E+02  0.22801349910E+02  0.43073795355E+02  0.00000000000E+00 0. -1.
         11    1    1    2    0    0  0.18199713245E+02 -0.96382652162E+02 -0.89722902826E+02  0.13293248095E+03  0.00000000000E+00 0.  1.
</event>
<event>
 7    1  0.2810263E-009  0.1077874E+03  0.7561462E-02  0.1264723E+00
         -1   -1    0    0    0  501 -0.00000000000E+00  0.00000000000E+00  0.19422175202E+03  0.19422175202E+03  0.00000000000E+00 0.  1.
          1   -1    0    0  501    0  0.00000000000E+00 -0.00000000000E+00 -0.91973988125E+02  0.91973988125E+02  0.00000000000E+00 0. -1.
         25    2    1    2    0    0 -0.54360176135E+02  0.43861180475E+02  0.94983309496E+02  0.17189838859E+03  0.12509354506E+03 0.  0.
          5    1    3    3  502    0 -0.29259500453E+02 -0.32610732538E+02  0.77960297797E+02  0.89525743091E+02  0.41800000000E+01 0.  1.
         -5    1    3    3    0  502 -0.25100675682E+02  0.76471913013E+02  0.17023011698E+02  0.82372645501E+02  0.41800000000E+01 0.  1.
        -11    1    1    2    0    0  0.10996339318E+02 -0.46249612714E+02  0.38192677590E+02  0.60980544242E+02  0.00000000000E+00 0.  1.
         11    1    1    2    0    0  0.43363836817E+02  0.23884322388E+01 -0.30928223191E+02  0.53316807311E+02  0.00000000000E+00 0. -1.
</event>
<event>
 7    1  0.2810263E-009  0.1749637E+03  0.7561462E-02  0.1172768E+00
         -2   -1    0    0    0  501 -0.00000000000E+00  0.00000000000E+00  0.27952728137E+03  0.27952728137E+03  0.00000000000E+00 0.  1.
          2   -1    0    0  501    0  0.00000000000E+00 -0.00000000000E+00 -0.14116144486E+03  0.14116144486E+03  0.00000000000E+00 0. -1.
         25    2    1    2    0    0 -0.92971053456E+02  0.10121777524E+03  0.89900876113E+02  0.20644120836E+03  0.12508856933E+03 0.  0.
          5    1    3    3  502    0 -0.10496026183E+03  0.24563812200E+02  0.57650410405E+02  0.12231549228E+03  0.41800000000E+01 0.  1.
         -5    1    3    3    0  502  0.11989208371E+02  0.76653963038E+02  0.32250465707E+02  0.84125716075E+02  0.41800000000E+01 0.  1.
        -11    1    1    2    0    0  0.49921369608E+02  0.45797080513E+01  0.81200169668E+02  0.95428425658E+02  0.00000000000E+00 0.  1.
         11    1    1    2    0    0  0.43049683848E+02 -0.10579748329E+03 -0.32735209272E+02  0.11881909222E+03  0.00000000000E+00 0. -1.
</event>
<event>
 7    1  0.2810263E-009  0.1931431E+03  0.7561462E-02  0.1155657E+00
          2   -1    0    0  501    0  0.00000000000E+00  0.00000000000E+00  0.30443139099E+03  0.30443139099E+03  0.00000000000E+00 0.  1.
         -2   -1    0    0    0  501 -0.00000000000E+00 -0.00000000000E+00 -0.13048326724E+03  0.13048326724E+03  0.00000000000E+00 0. -1.
         25    2    1    2    0    0 -0.16583941295E+03 -0.14262012029E+02  0.96841152579E+02  0.22963295019E+03  0.12508783756E+03 0.  0.
          5    1    3    3  502    0  0.10170578454E+02  0.19233703792E+02 -0.60676686666E+01  0.22970960596E+02  0.41800000000E+01 0. -1.
         -5    1    3    3    0  502 -0.17600999141E+03 -0.33495715821E+02  0.10290882125E+03  0.20666198960E+03  0.41800000000E+01 0. -1.
        -11    1    1    2    0    0  0.97963125944E+01 -0.22550851460E+02  0.28732309015E+02  0.37816057745E+02  0.00000000000E+00 0.  1.
         11    1    1    2    0    0  0.15604310036E+03  0.36812863489E+02  0.48374662157E+02  0.16746565029E+03  0.00000000000E+00 0. -1.
</event>
<event>
 7    1  0.2810263E-009  0.1049186E+03  0.7561462E-02  0.1270280E+00
         -1   -1    0    0    0  501 -0.00000000000E+00  0.00000000000E+00  0.30586093391E+03  0.30586093391E+03  0.00000000000E+00 0.  1.
          1   -1    0    0  501    0  0.00000000000E+00 -0.00000000000E+00 -0.47113160191E+02  0.47113160191E+02  0.00000000000E+00 0. -1.
         25    2    1    2    0    0  0.15382185866E+02  0.76407128834E+02  0.15147402015E+03  0.21134711719E+03  0.12509422122E+03 0.  0.
          5    1    3    3  502    0  0.36059728713E+02 -0.13923155681E+02  0.95244211241E+02  0.10287414872E+03  0.41800000000E+01 0.  1.
         -5    1    3    3    0  502 -0.20677542847E+02  0.90330284515E+02  0.56229808911E+02  0.10847296847E+03  0.41800000000E+01 0.  1.
        -11    1    1    2    0    0 -0.14288439955E+02 -0.57174801396E+02  0.38954702897E+02  0.70644081910E+02  0.00000000000E+00 0. -1.
         11    1    1    2    0    0 -0.10937459117E+01 -0.19232327437E+02  0.68319050672E+02  0.70982895007E+02  0.00000000000E+00 0.  1.
</event>
<event>
 7    1  0.2810263E-009  0.2137213E+03  0.7561462E-02  0.1138653E+00
          1   -1    0    0  501    0  0.00000000000E+00  0.00000000000E+00  0.74256781862E+03  0.74256781862E+03  0.00000000000E+00 0. -1.
         -1   -1    0    0    0  501 -0.00000000000E+00 -0.00000000000E+00 -0.68987092639E+02  0.68987092639E+02  0.00000000000E+00 0.  1.
         25    2    1    2    0    0 -0.18820296925E+03  0.53061566220E+02  0.42515148739E+03  0.48439301310E+03  0.12508763512E+03 0.  0.
          5    1    3    3  502    0 -0.14903356626E+03 -0.17630817485E+02  0.25349811884E+03  0.29461944649E+03  0.41800000000E+01 0.  1.
         -5    1    3    3    0  502 -0.39169402982E+02  0.70692383705E+02  0.17165336856E+03  0.18977356660E+03  0.41800000000E+01 0.  1.
        -11    1    1    2    0    0  0.53461801152E+02 -0.66464883555E+01  0.13390459791E+03  0.14433565510E+03  0.00000000000E+00 0. -1.
         11    1    1    2    0    0  0.13474116809E+03 -0.46415077864E+02  0.11452464068E+03  0.18282624307E+03  0.00000000000E+00 0.  1.
</event>
<event>
 7    1  0.2810263E-009  0.2276312E+03  0.7561462E-02  0.1128318E+00
          2   -1    0    0  501    0  0.00000000000E+00  0.00000000000E+00  0.14765128754E+04  0.14765128754E+04  0.00000000000E+00 0. -1.
         -2   -1    0    0    0  501 -0.00000000000E+00 -0.00000000000E+00 -0.39587178432E+02  0.39587178432E+02  0.00000000000E+00 0.  1.
         25    2    1    2    0    0 -0.55426588963E+02  0.20713919372E+03  0.81610205114E+03  0.85302445317E+03  0.12509759185E+03 0.  0.
          5    1    3    3  502    0 -0.71383623494E+02  0.20202005264E+03  0.80364998939E+03  0.83173222927E+03  0.41800000000E+01 0. -1.
         -5    1    3    3    0  502  0.15957034531E+02  0.51191410847E+01  0.12452061755E+02  0.21292223896E+02  0.41800000000E+01 0. -1.
        -11    1    1    2    0    0  0.14001567467E+02 -0.16129498437E+03  0.35516014474E+03  0.39032146276E+03  0.00000000000E+00 0.  1.
         11    1    1    2    0    0  0.41425021496E+02 -0.45844209353E+02  0.26566350106E+03  0.27275413789E+03  0.00000000000E+00 0. -1.
</event>
<event>
 7    1  0.2810263E-009  0.1257029E+03  0.7561462E-02  0.1233975E+00
          2   -1    0    0  501    0  0.00000000000E+00  0.00000000000E+00  0.60491536566E+03  0.60491536566E+03  0.00000000000E+00 0. -1.
         -2   -1    0    0    0  501 -0.00000000000E+00 -0.00000000000E+00 -0.42641498237E+02  0.42641498237E+02  0.00000000000E+00 0.  1.
         25    2    1    2    0    0 -0.22691595544E+02 -0.98070951020E+02  0.42875227947E+03  0.45782874140E+03  0.12508324971E+03 0.  0.
          5    1    3    3  502    0 -0.56301460736E+02 -0.37799695806E+02  0.33219983926E+03  0.33907650624E+03  0.41800000000E+01 0. -1.
         -5    1    3    3    0  502  0.33609865192E+02 -0.60271255214E+02  0.96552440216E+02  0.11875223516E+03  0.41800000000E+01 0. -1.
        -11    1    1    2    0    0  0.22645511460E+02  0.76435085191E+01 -0.48896747361E+01  0.24395723617E+02  0.00000000000E+00 0.  1.
         11    1    1    2    0    0  0.46084084097E-01  0.90427442501E+02  0.13841126269E+03  0.16533239888E+03  0.00000000000E+00 0. -1.
</event>
<event>
 7    1  0.2810263E-009  0.9389778E+02  0.7561462E-02  0.1293678E+00
         -2   -1    0    0    0  501 -0.00000000000E+00  0.00000000000E+00  0.64512897602E+02  0.64512897602E+02  0.00000000000E+00 0.  1.
          2   -1    0    0  501    0  0.00000000000E+00 -0.00000000000E+00 -0.21001196532E+03  0.21001196532E+03  0.00000000000E+00 0. -1.
         25    2    1    2    0    0  0.30161625819E+02  0.30675030392E+02 -0.10817511084E+03  0.17088228377E+03  0.12509284208E+03 0.  0.
          5    1    3    3  502    0 -0.37657409712E+02 -0.12456137267E+02 -0.52509272621E+01  0.40227857250E+02  0.41800000000E+01 0. -1.
         -5    1    3    3    0  502  0.67819035531E+02  0.43131167659E+02 -0.10292418358E+03  0.13065442652E+03  0.41800000000E+01 0. -1.
        -11    1    1    2    0    0  0.27803464302E+00 -0.36447633653E+02 -0.56477699319E+02  0.67217838574E+02  0.00000000000E+00 0. -1.
         11    1    1    2    0    0 -0.30439660462E+02  0.57726032611E+01  0.19153742434E+02  0.36424740585E+02  0.00000000000E+00 0.  1.
</event>
<event>
 7    1  0.2810263E-009  0.1359264E+03  0.7561462E-02  0.1218918E+00
         -1   -1    0    0    0  501 -0.00000000000E+00  0.00000000000E+00  0.11008034599E+03  0.11008034599E+03  0.00000000000E+00 0.  1.
          1   -1    0    0  501    0  0.00000000000E+00 -0.00000000000E+00 -0.18589193538E+03  0.18589193538E+03  0.00000000000E+00 0. -1.
         25    2    1    2    0    0 -0.30344927139E+02  0.47864147166E+02 -0.73512130311E+02  0.15576652806E+03  0.12508951504E+03 0.  0.
          5    1    3    3  502    0 -0.49314166768E+02  0.82234680281E+02 -0.63348322503E+02  0.11499961760E+03  0.41800000000E+01 0. -1.
         -5    1    3    3    0  502  0.18969239629E+02 -0.34370533115E+02 -0.10163807808E+02  0.40766910453E+02  0.41800000000E+01 0. -1.
        -11    1    1    2    0    0 -0.32399333456E+02  0.24497610369E+02 -0.15598946746E+02  0.43510652279E+02  0.00000000000E+00 0. -1.
         11    1    1    2    0    0  0.62744260595E+02 -0.72361757535E+02  0.13299487674E+02  0.96695101032E+02  0.00000000000E+00 0.  1.
</event>
<event>
 7    1  0.2810263E-009  0.1170417E+03  0.7561462E-02  0.1248059E+00
          2   -1    0    0  501    0  0.00000000000E+00  0.00000000000E+00  0.13886980011E+03  0.13886980011E+03  0.00000000000E+00 0.  1.
         -2   -1    0    0    0  501 -0.00000000000E+00 -0.00000000000E+00 -0.12321003541E+03  0.12321003541E+03  0.00000000000E+00 0. -1.
         25    2    1    2    0    0 -0.35845769123E+01  0.69408371157E+02 -0.13163687296E+02  0.14370533247E+03  0.12509024238E+03 0.  0.
          5    1    3    3  502    0 -0.43058301498E+02  0.73111601498E+02 -0.41742498252E+02  0.94653220557E+02  0.41800000000E+01 0.  1.
         -5    1    3    3    0  502  0.39473724586E+02 -0.37032303404E+01  0.28578810956E+02  0.49052111914E+02  0.41800000000E+01 0.  1.
        -11    1    1    2    0    0 -0.39618857249E+02 -0.22792801089E+02  0.30232958814E+02  0.54801436385E+02  0.00000000000E+00 0.  1.
         11    1    1    2    0    0  0.43203434161E+02 -0.46615570069E+02 -0.14095068147E+01  0.63573066668E+02  0.00000000000E+00 0. -1.
</event>
<event>
 7    1  0.2810263E-009  0.1067337E+03  0.7561462E-02  0.1266741E+00
          2   -1    0    0  501    0  0.00000000000E+00  0.00000000000E+00  0.25527779531E+03  0.25527779531E+03  0.00000000000E+00 0.  1.
         -2   -1    0    0    0  501 -0.00000000000E+00 -0.00000000000E+00 -0.56927648935E+02  0.56927648935E+02  0.00000000000E+00 0. -1.
         25    2    1    2    0    0 -0.20637869544E+02 -0.61266157606E+00  0.16425413940E+03  0.20749225403E+03  0.12508923280E+03 0.  0.
          5    1    3    3  502    0 -0.32746025154E+02  0.55255234218E+02  0.11558977033E+03  0.13230234494E+03  0.41800000000E+01 0. -1.
         -5    1    3    3    0  502  0.12108155610E+02 -0.55867895795E+02  0.48664369068E+02  0.75189909094E+02  0.41800000000E+01 0. -1.
        -11    1    1    2    0    0 -0.21973702708E+02 -0.31514301584E+02  0.34067269400E+02  0.51347576957E+02  0.00000000000E+00 0.  1.
         11    1    1    2    0    0  0.42611572252E+02  0.32126963160E+02  0.28737573488E-01  0.53365613250E+02  0.00000000000E+00 0. -1.
</event>
<event>
 7    1  0.2810263E-009  0.8262185E+02  0.7561462E-02  0.1321771E+00
          2   -1    0    0  501    0  0.00000000000E+00  0.00000000000E+00  0.10199742596E+03  0.10199742596E+03  0.00000000000E+00 0.  1.
         -2   -1    0    0    0  501 -0.00000000000E+00 -0.00000000000E+00 -0.16313658188E+03  0.16313658188E+03  0.00000000000E+00 0. -1.
         25    2    1    2    0    0 -0.41382284197E+02 -0.37776818132E+02  0.10214285797E+02  0.13745183564E+03  0.12509633908E+03 0.  0.
          5    1    3    3  502    0 -0.33574887989E+02 -0.14607719150E+02 -0.55833985301E+02  0.66899662756E+02  0.41800000000E+01 0.  1.
         -5    1    3    3    0  502 -0.78073962074E+01 -0.23169098982E+02  0.66048271098E+02  0.70552172880E+02  0.41800000000E+01 0.  1.
        -11    1    1    2    0    0 -0.18785925718E+02  0.39127477258E+02 -0.43204129564E+02  0.61241058882E+02  0.00000000000E+00 0. -1.
         11    1    1    2    0    0  0.60168209915E+02 -0.13506591257E+01 -0.28149312152E+02  0.66441113319E+02  0.00000000000E+00 0.  1.
</event>
<event>
 7    1  0.2810263E-009  0.1426312E+03  0.7561462E-02  0.1209832E+00
         -2   -1    0    0    0  501 -0.00000000000E+00  0.00000000000E+00  0.29301956875E+03  0.29301956875E+03  0.00000000000E+00 0. -1.
          2   -1    0    0  501    0  0.00000000000E+00 -0.00000000000E+00 -0.71875811414E+02  0.71875811414E+02  0.00000000000E+00 0.  1.
         25    2    1    2    0    0 -0.10167446914E+02 -0.88915903845E+02  0.15026536382E+03  0.21502778917E+03  0.12509138907E+03 0.  0.
          5    1    3    3  502    0 -0.67278017754E+02 -0.56583799564E+02  0.88421244628E+02  0.12475514798E+03  0.41800000000E+01 0.  1.
         -5    1    3    3    0  502  0.57110570840E+02 -0.32332104281E+02  0.61844119192E+02  0.90272641190E+02  0.41800000000E+01 0.  1.
        -11    1    1    2    0    0 -0.29359487622E+02  0.87110416167E+02  0.43134823543E+02  0.10154219379E+03  0.00000000000E+00 0.  1.
         11    1    1    2    0    0  0.39526934536E+02  0.18054876784E+01  0.27743569969E+02  0.48325397196E+02  0.00000000000E+00 0. -1.
</event>
<event>
 7    1  0.2810263E-009  0.1286308E+03  0.7561462E-02  0.1229502E+00
          1   -1    0    0  501    0  0.00000000000E+00  0.00000000000E+00  0.32645581261E+03  0.32645581261E+03  0.00000000000E+00 0. -1.
         -1   -1    0    0    0  501 -0.00000000000E+00 -0.00000000000E+00 -0.98037680145E+02  0.98037680145E+02  0.00000000000E+00 0.  1.
         25    2    1    2    0    0  0.15680758486E+02 -0.99944423424E+02  0.23841627583E+03  0.28761104738E+03  0.12507205936E+03 0.  0.
          5    1    3    3  502    0  0.64766737799E+02 -0.68787774627E+02  0.18839950006E+03  0.21080401393E+03  0.41800000000E+01 0.  1.
         -5    1    3    3    0  502 -0.49085979313E+02 -0.31156648796E+02  0.50016775764E+02  0.76807033449E+02  0.41800000000E+01 0.  1.
        -11    1    1    2    0    0 -0.21532761691E+02  0.54818374975E+02 -0.49260843986E+02  0.76781148801E+02  0.00000000000E+00 0.  1.
         11    1    1    2    0    0  0.58520032051E+01  0.45126048448E+02  0.39262700621E+02  0.60101296576E+02  0.00000000000E+00 0. -1.
</event>
<event>
 7    1  0.2810263E-009  0.7808060E+02  0.7561462E-02  0.1334588E+00
         -1   -1    0    0    0  501 -0.00000000000E+00  0.00000000000E+00  0.19673546351E+02  0.19673546351E+02  0.00000000000E+00 0.  1.
          1   -1    0    0  501    0  0.00000000000E+00 -0.00000000000E+00 -0.93320141948E+03  0.93320141948E+03  0.00000000000E+00 0. -1.
         25    2    1    2    0    0 -0.23234215864E+02 -0.45096379499E+02 -0.71942372224E+03  0.73197805499E+03  0.12509144109E+03 0.  0.
          5    1    3    3  502    0 -0.28855791511E+02 -0.30856826164E+02 -0.66718253253E+02  0.79079694876E+02  0.41800000000E+01 0. -1.
         -5    1    3    3    0  502  0.56215756470E+01 -0.14239553335E+02 -0.65270546899E+03  0.65289836011E+03  0.41800000000E+01 0. -1.
        -11    1    1    2    0    0 -0.10571223821E+01  0.65868429326E+02 -0.87011122872E+02  0.10913616721E+03  0.00000000000E+00 0. -1.
         11    1    1    2    0    0  0.24291338247E+02 -0.20772049827E+02 -0.10709302802E+03  0.11176074364E+03  0.00000000000E+00 0.  1.
</event>
<event>
 7    1  0.2810263E-009  0.8326260E+02  0.7561462E-02  0.1320040E+00
          1   -1    0    0  501    0  0.00000000000E+00  0.00000000000E+00  0.18360689244E+02  0.18360689244E+02  0.00000000000E+00 0. -1.
         -1   -1    0    0    0  501 -0.00000000000E+00 -0.00000000000E+00 -0.69797071741E+03  0.69797071741E+03  0.00000000000E+00 0.  1.
         25    2    1    2    0    0 -0.25573748836E+02  0.14597347602E+02 -0.41378952938E+03  0.43328554300E+03  0.12508991949E+03 0.  0.
          5    1    3    3  502    0  0.66989467439E+01 -0.20228636809E+02 -0.36294212292E+03  0.36359115862E+03  0.41800000000E+01 0. -1.
         -5    1    3    3    0  502 -0.32272695580E+02  0.34825984412E+02 -0.50847406459E+02  0.69694384378E+02  0.41800000000E+01 0. -1.
        -11    1    1    2    0    0 -0.28582376078E+02 -0.29399647884E+02 -0.10629954319E+03  0.11393368422E+03  0.00000000000E+00 0.  1.
         11    1    1    2    0    0  0.54156124914E+02  0.14802300281E+02 -0.15952095559E+03  0.16911217943E+03  0.00000000000E+00 0. -1.
</event>
<event>
 7    1  0.2810263E-009  0.1632310E+03  0.7561462E-02  0.1185097E+00
          2   -1    0    0  501    0  0.00000000000E+00  0.00000000000E+00  0.36895815360E+03  0.36895815360E+03  0.00000000000E+00 0. -1.
         -2   -1    0    0    0  501 -0.00000000000E+00 -0.00000000000E+00 -0.11515408896E+03  0.11515408896E+03  0.00000000000E+00 0.  1.
         25    2    1    2    0    0 -0.63146224057E+02  0.12458532703E+03  0.82481853122E+01  0.18768169904E+03  0.12508972087E+03 0.  0.
          5    1    3    3  502    0  0.81021109900E+01  0.10182272710E+03  0.35121048240E+02  0.10809473802E+03  0.41800000000E+01 0.  1.
         -5    1    3    3    0  502 -0.71248335047E+02  0.22762599932E+02 -0.26872862928E+02  0.79586961021E+02  0.41800000000E+01 0.  1.
        -11    1    1    2    0    0 -0.91747169343E+01 -0.21687245587E+02  0.37134214705E+01  0.23839076136E+02  0.00000000000E+00 0. -1.
         11    1    1    2    0    0  0.72320940991E+02 -0.10289808145E+03  0.24184245785E+03  0.27259146739E+03  0.00000000000E+00 0.  1.
</event>
<event>
 7    1  0.2810263E-009  0.1652976E+03  0.7561462E-02  0.1182842E+00
         -1   -1    0    0    0  501 -0.00000000000E+00  0.00000000000E+00  0.30637724933E+02  0.30637724933E+02  0.00000000000E+00 0.  1.
          1   -1    0    0  501    0  0.00000000000E+00 -0.00000000000E+00 -0.12793487435E+04  0.12793487435E+04  0.00000000000E+00 0. -1.
         25    2    1    2    0    0  0.45886176196E+02 -0.13731905335E+03 -0.87748038475E+03  0.89809873813E+03  0.12508978465E+03 0.  0.
          5    1    3    3  502    0 -0.18433886150E+02 -0.10366380197E+03 -0.67023112913E+03  0.67846387586E+03  0.41800000000E+01 0. -1.
         -5    1    3    3    0  502  0.64320062346E+02 -0.33655251389E+02 -0.20724925562E+03  0.21963486226E+03  0.41800000000E+01 0. -1.
        -11    1    1    2    0    0 -0.53422159035E+02  0.90531107575E+02 -0.13577922581E+03  0.17171431704E+03  0.00000000000E+00 0. -1.
         11    1    1    2    0    0  0.75359828388E+01  0.46787945779E+02 -0.23545140797E+03  0.24017341323E+03  0.00000000000E+00 0.  1.
</event>
<event>
 7    1  0.2810263E-009  0.1200652E+03  0.7561462E-02  0.1242990E+00
          2   -1    0    0  501    0  0.00000000000E+00  0.00000000000E+00  0.79513362770E+02  0.79513362770E+02  0.00000000000E+00 0. -1.
         -2   -1    0    0    0  501 -0.00000000000E+00 -0.00000000000E+00 -0.22809977535E+03  0.22809977535E+03  0.00000000000E+00 0.  1.
         25    2    1    2    0    0 -0.71929054043E+02  0.28818100096E+02 -0.70226202919E+02  0.16304400029E+03  0.12508938703E+03 0.  0.
          5    1    3    3  502    0  0.10240348891E+02  0.58410826714E+02 -0.33205145261E+02  0.68093637696E+02  0.41800000000E+01 0. -1.
         -5    1    3    3    0  502 -0.82169402934E+02 -0.29592726618E+02 -0.37021057658E+02  0.94950362597E+02  0.41800000000E+01 0. -1.
        -11    1    1    2    0    0  0.44097847249E+02 -0.43360255271E+02 -0.18571544232E+01  0.61872295025E+02  0.00000000000E+00 0. -1.
         11    1    1    2    0    0  0.27831206794E+02  0.14542155175E+02 -0.76503055241E+02  0.82696842805E+02  0.00000000000E+00 0.  1.
</event>
<event>
 7    1  0.2810263E-009  0.1174985E+03  0.7561462E-02  0.1247282E+00
         -1   -1    0    0    0  501 -0.00000000000E+00  0.00000000000E+00  0.18519303481E+02  0.18519303481E+02  0.00000000000E+00 0.  1.
          1   -1    0    0  501    0  0.00000000000E+00 -0.00000000000E+00 -0.81807448252E+03  0.81807448252E+03  0.00000000000E+00 0. -1.
         25    2    1    2    0    0 -0.57143385067E+01 -0.45850687715E+02 -0.35983403505E+03  0.38374799601E+03  0.12508817864E+03 0.  0.
          5    1    3    3  502    0  0.50491388397E+02 -0.53152160342E+02 -0.24252026527E+03  0.25339314103E+03  0.41800000000E+01 0. -1.
         -5    1    3    3    0  502 -0.56205726904E+02  0.73014726274E+01 -0.11731376978E+03  0.13035485499E+03  0.41800000000E+01 0. -1.
        -11    1    1    2    0    0  0.44007259730E+02  0.49541301723E+02 -0.32968844941E+03  0.33628180617E+03  0.00000000000E+00 0. -1.
         11    1    1    2    0    0 -0.38292921223E+02 -0.36906140080E+01 -0.11003269458E+03  0.11656398382E+03  0.00000000000E+00 0.  1.
</event>
<event>
 7    1  0.2810263E-009  0.1811473E+03  0.7561462E-02  0.1166697E+00
          1   -1    0    0  501    0  0.00000000000E+00  0.00000000000E+00  0.89054297982E+02  0.89054297982E+02  0.00000000000E+00 0. -1.
         -1   -1    0    0    0  501 -0.00000000000E+00 -0.00000000000E+00 -0.39142564531E+03  0.39142564531E+03  0.00000000000E+00 0.  1.
         25    2    1    2    0    0  0.13551967296E+03  0.63812553511E+02 -0.12587976631E+03  0.23222895258E+03  0.12508775761E+03 0.  0.
          5    1    3    3  502    0  0.15731300512E+03  0.61761411402E+02 -0.94295663099E+02  0.19357426998E+03  0.41800000000E+01 0.  1.
         -5    1    3    3    0  502 -0.21793332167E+02  0.20511421089E+01 -0.31584103210E+02  0.38654682595E+02  0.41800000000E+01 0.  1.
        -11    1    1    2    0    0 -0.77641024010E+02  0.87546909405E+01 -0.10605931699E+03  0.13173212191E+03  0.00000000000E+00 0.  1.
         11    1    1    2    0    0 -0.57878648947E+02 -0.72567244451E+02 -0.70432264029E+02  0.11651886880E+03  0.00000000000E+00 0. -1.
</event>
<event>
 7    1  0.2810263E-009  0.7597762E+02  0.7561462E-02  0.1340870E+00
          1   -1    0    0  501    0  0.00000000000E+00  0.00000000000E+00  0.10196579474E+03  0.10196579474E+03  0.00000000000E+00 0. -1.
         -1   -1    0    0    0  501 -0.00000000000E+00 -0.00000000000E+00 -0.14473580318E+03  0.14473580318E+03  0.00000000000E+00 0.  1.
         25    2    1    2    0    0 -0.27690838519E+02  0.39224892553E+02 -0.54534718091E+02  0.14465966306E+03  0.12508800065E+03 0.  0.
          5    1    3    3  502    0 -0.20007665975E+02  0.35775451862E+02 -0.94770580453E+02  0.10333985181E+03  0.41800000000E+01 0.  1.
         -5    1    3    3    0  502 -0.76831725438E+01  0.34494406911E+01  0.40235862362E+02  0.41319811246E+02  0.41800000000E+01 0.  1.
        -11    1    1    2    0    0  0.57860141669E+02 -0.41333602143E+02  0.89464886434E+01  0.71668000663E+02  0.00000000000E+00 0.  1.
         11    1    1    2    0    0 -0.30169303150E+02  0.21087095901E+01  0.28182210076E+01  0.30373934192E+02  0.00000000000E+00 0. -1.
</event>
<event>
 7    1  0.2810263E-009  0.9222574E+02  0.7561462E-02  0.1297550E+00
         -1   -1    0    0    0  501 -0.00000000000E+00  0.00000000000E+00  0.28189450412E+02  0.28189450412E+02  0.00000000000E+00 0.  1.
          1   -1    0    0  501    0  0.00000000000E+00 -0.00000000000E+00 -0.49019449135E+03  0.49019449135E+03  0.00000000000E+00 0. -1.
         25    2    1    2    0    0 -0.33298339441E+01  0.42686716294E+02 -0.23490792936E+03  0.26956085480E+03  0.12509226842E+03 0.  0.
          5    1    3    3  502    0  0.32797019879E+02  0.33884563349E+02 -0.19955710248E+02  0.51376170720E+02  0.41800000000E+01 0.  1.
         -5    1    3    3    0  502 -0.36126853823E+02  0.88021529443E+01 -0.21495221911E+03  0.21818468408E+03  0.41800000000E+01 0.  1.
        -11    1    1    2    0    0  0.37466622991E+02 -0.52199743354E+02 -0.16860554695E+03  0.18043389789E+03  0.00000000000E+00 0. -1.
         11    1    1    2    0    0 -0.34136789047E+02  0.95130270608E+01 -0.58491564619E+02  0.68389189071E+02  0.00000000000E+00 0.  1.
</event>
<event>
 7    1  0.2810263E-009  0.1139846E+03  0.7561462E-02  0.1253364E+00
          2   -1    0    0  501    0  0.00000000000E+00  0.00000000000E+00  0.34544556098E+03  0.34544556098E+03  0.00000000000E+00 0. -1.
         -2   -1    0    0    0  501 -0.00000000000E+00 -0.00000000000E+00 -0.41761233094E+02  0.41761233094E+02  0.00000000000E+00 0.  1.
         25    2    1    2    0    0 -0.49968399014E+02 -0.32962040001E+01  0.16927723432E+03  0.21635515577E+03  0.12508823090E+03 0.  0.
          5    1    3    3  502    0 -0.40536229507E+02  0.52214799354E+02  0.45642501353E+02  0.80438060046E+02  0.41800000000E+01 0. -1.
         -5    1    3    3    0  502 -0.94321695069E+01 -0.55511003354E+02  0.12363473296E+03  0.13591709572E+03  0.41800000000E+01 0. -1.
        -11    1    1    2    0    0  0.77710246250E+01  0.45165026810E+02  0.53301327344E+02  0.70294380765E+02  0.00000000000E+00 0.  1.
         11    1    1    2    0    0  0.42197374389E+02 -0.41868822810E+02  0.81105766222E+02  0.10055725754E+03  0.00000000000E+00 0. -1.
</event>
<event>
 7    1  0.2810263E-009  0.1207926E+03  0.7561462E-02  0.1241795E+00
         -3   -1    0    0    0  501 -0.00000000000E+00  0.00000000000E+00  0.93241527877E+02  0.93241527877E+02  0.00000000000E+00 0.  1.
          3   -1    0    0  501    0  0.00000000000E+00 -0.00000000000E+00 -0.17964446874E+03  0.17964446874E+03  0.00000000000E+00 0. -1.
         25    2    1    2    0    0 -0.37191686718E+02 -0.60598413988E+02 -0.50010684968E+02  0.15232913066E+03  0.12509079142E+03 0.  0.
          5    1    3    3  502    0  0.98891919644E+01 -0.76308891868E+02  0.60986478648E+01  0.77301416556E+02  0.41800000000E+01 0.  1.
         -5    1    3    3    0  502 -0.47080878683E+02  0.15710477880E+02 -0.56109332833E+02  0.75027714104E+02  0.41800000000E+01 0.  1.
        -11    1    1    2    0    0  0.16320494283E+02  0.82712990239E+02 -0.29982332766E+02  0.89480375312E+02  0.00000000000E+00 0. -1.
         11    1    1    2    0    0  0.20871192436E+02 -0.22114576251E+02 -0.64099231325E+01  0.31076490648E+02  0.00000000000E+00 0.  1.
</event>
<event>
 7    1  0.2810263E-009  0.9038468E+02  0.7561462E-02  0.1301923E+00
         -4   -1    0    0    0  501 -0.00000000000E+00  0.00000000000E+00  0.10069139445E+03  0.10069139445E+03  0.00000000000E+00 0.  1.
          4   -1    0    0  501    0  0.00000000000E+00 -0.00000000000E+00 -0.15685309980E+03  0.15685309980E+03  0.00000000000E+00 0. -1.
         25    2    1    2    0    0  0.55759223302E+02  0.24744339763E+02 -0.48738002451E+02  0.14745595206E+03  0.12508593679E+03 0.  0.
          5    1    3    3  502    0  0.60219315328E+02  0.22623188970E+02 -0.87206901726E+02  0.10844671837E+03  0.41800000000E+01 0.  1.
         -5    1    3    3    0  502 -0.44600920261E+01  0.21211507926E+01  0.38468899274E+02  0.39009233688E+02  0.41800000000E+01 0.  1.
        -11    1    1    2    0    0 -0.70944825369E+02  0.10255828845E+02 -0.44478587658E+01  0.71820148423E+02  0.00000000000E+00 0.  1.
         11    1    1    2    0    0  0.15185602067E+02 -0.35000168607E+02 -0.29758441386E+01  0.38268393761E+02  0.00000000000E+00 0. -1.
</event>
<event>
 7    1  0.2810263E-009  0.1090599E+03  0.7561462E-02  0.1262321E+00
          1   -1    0    0  501    0  0.00000000000E+00  0.00000000000E+00  0.68175773073E+03  0.68175773073E+03  0.00000000000E+00 0. -1.
         -1   -1    0    0    0  501 -0.00000000000E+00 -0.00000000000E+00 -0.21206808133E+02  0.21206808133E+02  0.00000000000E+00 0.  1.
         25    2    1    2    0    0 -0.15085599010E+02  0.37212144163E+02  0.28322493101E+03  0.31221298943E+03  0.12509304637E+03 0.  0.
          5    1    3    3  502    0 -0.31821357401E+02  0.75376209109E+02  0.23203701229E+03  0.24607482431E+03  0.41800000000E+01 0.  1.
         -5    1    3    3    0  502  0.16735758391E+02 -0.38164064946E+02  0.51187918713E+02  0.66138165112E+02  0.41800000000E+01 0.  1.
        -11    1    1    2    0    0 -0.21933842347E+02 -0.50439474581E+02  0.14418789425E+03  0.15432233437E+03  0.00000000000E+00 0.  1.
         11    1    1    2    0    0  0.37019441357E+02  0.13227330418E+02  0.23313809734E+03  0.23642921507E+03  0.00000000000E+00 0. -1.
</event>
<event>
 7    1  0.2810263E-009  0.1021277E+03  0.7561462E-02  0.1275884E+00
          4   -1    0    0  501    0  0.00000000000E+00  0.00000000000E+00  0.36212163859E+03  0.36212163859E+03  0.00000000000E+00 0. -1.
         -4   -1    0    0    0  501 -0.00000000000E+00 -0.00000000000E+00 -0.44036396245E+02  0.44036396245E+02  0.00000000000E+00 0.  1.
         25    2    1    2    0    0  0.26278099078E+02 -0.58989717546E+02  0.15886867417E+03  0.21226797314E+03  0.12509241193E+03 0.  0.
          5    1    3    3  502    0  0.59908810540E+02 -0.59895151732E+02  0.50483192118E+02  0.98704203901E+02  0.41800000000E+01 0.  1.
         -5    1    3    3    0  502 -0.33630711463E+02  0.90543418637E+00  0.10838548205E+03  0.11356376924E+03  0.41800000000E+01 0.  1.
        -11    1    1    2    0    0 -0.15063455905E+02  0.68926255865E+02  0.16369469163E+03  0.17825175600E+03  0.00000000000E+00 0. -1.
         11    1    1    2    0    0 -0.11214643173E+02 -0.99365383184E+01 -0.44781234511E+01  0.15638305691E+02  0.00000000000E+00 0.  1.
</event>
<event>
 7    1  0.2810263E-009  0.1526508E+03  0.7561462E-02  0.1197253E+00
          1   -1    0    0  501    0  0.00000000000E+00  0.00000000000E+00  0.60069858646E+03  0.60069858646E+03  0.00000000000E+00 0. -1.
         -1   -1    0    0    0  501 -0.00000000000E+00 -0.00000000000E+00 -0.39993010249E+02  0.39993010249E+02  0.00000000000E+00 0.  1.
         25    2    1    2    0    0 -0.90935703519E+02  0.62283704249E+02  0.33690003123E+03  0.37589793547E+03  0.12509622240E+03 0.  0.
          5    1    3    3  502    0 -0.50208277092E+02  0.98665881654E+02  0.24558380771E+03  0.26941549009E+03  0.41800000000E+01 0.  1.
         -5    1    3    3    0  502 -0.40727426427E+02 -0.36382177405E+02  0.91316223520E+02  0.10648244538E+03  0.41800000000E+01 0.  1.
        -11    1    1    2    0    0  0.49514751265E+02 -0.80489688715E+02  0.13079315019E+03  0.16136030713E+03  0.00000000000E+00 0. -1.
         11    1    1    2    0    0  0.41420952253E+02  0.18205984466E+02  0.93012394790E+02  0.10343335410E+03  0.00000000000E+00 0.  1.
</event>
<event>
 7    1  0.2810263E-009  0.1357099E+03  0.7561462E-02  0.1219221E+00
          1   -1    0    0  501    0  0.00000000000E+00  0.00000000000E+00  0.67098976565E+03  0.67098976565E+03  0.00000000000E+00 0. -1.
         -1   -1    0    0    0  501 -0.00000000000E+00 -0.00000000000E+00 -0.37282276554E+02  0.37282276554E+02  0.00000000000E+00 0.  1.
         25    2    1    2    0    0 -0.22209856601E+02  0.10832914476E+03  0.42442756238E+03  0.45608634787E+03  0.12509004625E+03 0.  0.
          5    1    3    3  502    0 -0.61694301149E+02  0.40995046658E+02  0.30083716096E+03  0.30985036785E+03  0.41800000000E+01 0.  1.
         -5    1    3    3    0  502  0.39484444549E+02  0.67334098102E+02  0.12359040142E+03  0.14623598002E+03  0.41800000000E+01 0.  1.
        -11    1    1    2    0    0 -0.12174640246E+02 -0.13445628156E+02  0.10689325361E+03  0.10842128227E+03  0.00000000000E+00 0. -1.
         11    1    1    2    0    0  0.34384496846E+02 -0.94883516604E+02  0.10238667311E+03  0.14376441207E+03  0.00000000000E+00 0.  1.
</event>
<event>
 7    1  0.2810263E-009  0.1436479E+03  0.7561462E-02  0.1208503E+00
          2   -1    0    0  501    0  0.00000000000E+00  0.00000000000E+00  0.28677417846E+03  0.28677417846E+03  0.00000000000E+00 0. -1.
         -2   -1    0    0    0  501 -0.00000000000E+00 -0.00000000000E+00 -0.17083711468E+03  0.17083711468E+03  0.00000000000E+00 0.  1.
         25    2    1    2    0    0 -0.77121476001E+02 -0.11379467988E+03  0.20246257171E+03  0.27483906838E+03  0.12509384212E+03 0.  0.
          5    1    3    3  502    0 -0.28223581592E+02 -0.66566397628E+02  0.13098051807E+02  0.73598146799E+02  0.41800000000E+01 0.  1.
         -5    1    3    3    0  502 -0.48897894408E+02 -0.47228282252E+02  0.18936451990E+03  0.20124092158E+03  0.41800000000E+01 0.  1.
        -11    1    1    2    0    0  0.15456498372E+02  0.68572089761E+02 -0.79288115511E+02  0.10596055916E+03  0.00000000000E+00 0.  1.
         11    1    1    2    0    0  0.61664977628E+02  0.45222590119E+02 -0.72373924162E+01  0.76811665598E+02  0.00000000000E+00 0. -1.
</event>
<event>
 7    1  0.2810263E-009  0.1112119E+03  0.7561462E-02  0.1258342E+00
          1   -1    0    0  501    0  0.00000000000E+00  0.00000000000E+00  0.11718628028E+04  0.11718628028E+04  0.00000000000E+00 0.  1.
         -1   -1    0    0    0  501 -0.00000000000E+00 -0.00000000000E+00 -0.11057196617E+02  0.11057196617E+02  0.00000000000E+00 0. -1.
         25    2    1    2    0    0 -0.93320407501E+01 -0.28960392131E+02  0.77144030702E+03  0.78210899005E+03  0.12509409948E+03 0.  0.
          5    1    3    3  502    0 -0.66035969616E+02 -0.40538431935E+01  0.36849601890E+03  0.37441149992E+03  0.41800000000E+01 0.  1.
         -5    1    3    3    0  502  0.56703928866E+02 -0.24906548938E+02  0.40294428811E+03  0.40769749012E+03  0.41800000000E+01 0.  1.
        -11    1    1    2    0    0 -0.67948294415E+01  0.59305600006E+02  0.21744008880E+03  0.22548506850E+03  0.00000000000E+00 0.  1.
         11    1    1    2    0    0  0.16126870192E+02 -0.30345207874E+02  0.17192521040E+03  0.17532594091E+03  0.00000000000E+00 0. -1.
</event>
<event>
 7    1  0.2810263E-009  0.9876557E+02  0.7561462E-02  0.1282913E+00
          1   -1    0    0  501    0  0.00000000000E+00  0.00000000000E+00  0.53280710700E+03  0.53280710700E+03  0.00000000000E+00 0. -1.
         -1   -1    0    0    0  501 -0.00000000000E+00 -0.00000000000E+00 -0.20175770063E+02  0.20175770063E+02  0.00000000000E+00 0.  1.
         25    2    1    2    0    0 -0.98980591293E+01  0.17264346630E+01  0.30463907002E+03  0.32947541490E+03  0.12509250132E+03 0.  0.
          5    1    3    3  502    0 -0.32394036466E+02  0.56035137957E+02  0.13239422118E+03  0.14742799085E+03  0.41800000000E+01 0. -1.
         -5    1    3    3    0  502  0.22495977337E+02 -0.54308703294E+02  0.17224484884E+03  0.18204742404E+03  0.41800000000E+01 0. -1.
        -11    1    1    2    0    0 -0.27733699169E+02  0.16133067064E+02  0.44936937074E+02  0.55215597761E+02  0.00000000000E+00 0.  1.
         11    1    1    2    0    0  0.37631758298E+02 -0.17859501727E+02  0.16305532984E+03  0.16829186441E+03  0.00000000000E+00 0. -1.
</event>
<event>
 7    1  0.2810263E-009  0.1064074E+03  0.7561462E-02  0.1267371E+00
         -3   -1    0    0    0  501 -0.00000000000E+00  0.00000000000E+00  0.99099299059E+02  0.99099299059E+02  0.00000000000E+00 0.  1.
          3   -1    0    0  501    0  0.00000000000E+00 -0.00000000000E+00 -0.13448093999E+03  0.13448093999E+03  0.00000000000E+00 0. -1.
         25    2    1    2    0    0  0.19587282611E+02 -0.32380827864E+01 -0.58123926936E+02  0.13935576507E+03  0.12508993387E+03 0.  0.
          5    1    3    3  502    0  0.57493753209E+02  0.38933563602E+02 -0.36201798866E+02  0.78418088946E+02  0.41800000000E+01 0.  1.
         -5    1    3    3    0  502 -0.37906470598E+02 -0.42171646389E+02 -0.21922128070E+02  0.60937676124E+02  0.41800000000E+01 0.  1.
        -11    1    1    2    0    0  0.31401176278E+02 -0.11303452888E+02 -0.60074934521E+01  0.33910055977E+02  0.00000000000E+00 0.  1.
         11    1    1    2    0    0 -0.50988458889E+02  0.14541535675E+02  0.28749779459E+02  0.60314417999E+02  0.00000000000E+00 0. -1.
</event>
<event>
 7    1  0.2810263E-009  0.1940207E+03  0.7561462E-02  0.1154884E+00
         -1   -1    0    0    0  501 -0.00000000000E+00  0.00000000000E+00  0.48868344429E+03  0.48868344429E+03  0.00000000000E+00 0.  1.
          1   -1    0    0  501    0  0.00000000000E+00 -0.00000000000E+00 -0.86909775771E+02  0.86909775771E+02  0.00000000000E+00 0. -1.
         25    2    1    2    0    0 -0.16328162886E+02  0.16745132856E+03  0.14546502304E+03  0.25517418980E+03  0.12508891987E+03 0.  0.
          5    1    3    3  502    0  0.35543669577E+02  0.14300578478E+03  0.78852854323E+02  0.16718029777E+03  0.41800000000E+01 0. -1.
         -5    1    3    3    0  502 -0.51871832463E+02  0.24445543779E+02  0.66612168717E+02  0.87993892032E+02  0.41800000000E+01 0. -1.
        -11    1    1    2    0    0  0.44943960118E+02 -0.90881128646E+02  0.92027747113E+02  0.13692496242E+03  0.00000000000E+00 0. -1.
         11    1    1    2    0    0 -0.28615797232E+02 -0.76570199909E+02  0.16428089837E+03  0.18349406784E+03  0.00000000000E+00 0.  1.
</event>
<event>
 7    1  0.2810263E-009  0.2149867E+03  0.7561462E-02  0.1137677E+00
          1   -1    0    0  501    0  0.00000000000E+00  0.00000000000E+00  0.15231199102E+04  0.15231199102E+04  0.00000000000E+00 0.  1.
         -1   -1    0    0    0  501 -0.00000000000E+00 -0.00000000000E+00 -0.34637922213E+02  0.34637922213E+02  0.00000000000E+00 0. -1.
         25    2    1    2    0    0 -0.11662124533E+03  0.16060254801E+03  0.90564103903E+03  0.93553539716E+03  0.12508834670E+03 0.  0.
          5    1    3    3  502    0 -0.92830186616E+02  0.63569381012E+02  0.67243691307E+03  0.68179717234E+03  0.41800000000E+01 0. -1.
         -5    1    3    3    0  502 -0.23791058710E+02  0.97033166999E+02  0.23320412596E+03  0.25373822483E+03  0.41800000000E+01 0. -1.
        -11    1    1    2    0    0  0.71890426602E+02 -0.27495507480E+02  0.18747515530E+03  0.20266023345E+03  0.00000000000E+00 0. -1.
         11    1    1    2    0    0  0.44730818724E+02 -0.13310704053E+03  0.39536579365E+03  0.41956220179E+03  0.00000000000E+00 0.  1.
</event>
<event>
 7    1  0.2810263E-009  0.8394328E+02  0.7561462E-02  0.1318219E+00
          3   -1    0    0  501    0  0.00000000000E+00  0.00000000000E+00  0.97096020778E+02  0.97096020778E+02  0.00000000000E+00 0. -1.
         -3   -1    0    0    0  501 -0.00000000000E+00 -0.00000000000E+00 -0.16028635573E+03  0.16028635573E+03  0.00000000000E+00 0.  1.
         25    2    1    2    0    0 -0.60214074339E+02  0.11273651407E+02 -0.35374893385E+02  0.14370674466E+03  0.12508962952E+03 0.  0.
          5    1    3    3  502    0 -0.47013874853E+02  0.16313417477E+02  0.41808446129E+02  0.65129490910E+02  0.41800000000E+01 0.  1.
         -5    1    3    3    0  502 -0.13200199486E+02 -0.50397660706E+01 -0.77183339514E+02  0.78577253751E+02  0.41800000000E+01 0.  1.
        -11    1    1    2    0    0  0.67425869827E-01 -0.37569102038E+02 -0.29875405321E+02  0.47999810596E+02  0.00000000000E+00 0.  1.
         11    1    1    2    0    0  0.60146648469E+02  0.26295450631E+02  0.20599637566E+01  0.65675821248E+02  0.00000000000E+00 0. -1.
</event>
<event>
 7    1  0.2810263E-009  0.1073367E+03  0.7561462E-02  0.1265583E+00
          1   -1    0    0  501    0  0.00000000000E+00  0.00000000000E+00  0.91439632791E+02  0.91439632791E+02  0.00000000000E+00 0. -1.
         -1   -1    0    0    0  501 -0.00000000000E+00 -0.00000000000E+00 -0.27159466809E+03  0.27159466809E+03  0.00000000000E+00 0.  1.
         25    2    1    2    0    0  0.16114206503E+01  0.70897729129E+02 -0.20117152551E+03  0.24727896528E+03  0.12509124398E+03 0.  0.
          5    1    3    3  502    0  0.89045190960E+01  0.91387355181E+02 -0.20512957924E+03  0.22478112872E+03  0.41800000000E+01 0. -1.
         -5    1    3    3    0  502 -0.72930984457E+01 -0.20489626052E+02  0.39580537283E+01  0.22497836563E+02  0.41800000000E+01 0. -1.
        -11    1    1    2    0    0 -0.35958862406E+02 -0.44955736194E+02  0.38544267306E+02  0.69280001042E+02  0.00000000000E+00 0. -1.
         11    1    1    2    0    0  0.34347441756E+02 -0.25941992935E+02 -0.17527777091E+02  0.46475334559E+02  0.00000000000E+00 0.  1.
</event>
<event>
 7    1  0.2810263E-009  0.1857915E+03  0.7561462E-02  0.1162313E+00
          1   -1    0    0  501    0  0.00000000000E+00  0.00000000000E+00  0.58547250448E+02  0.58547250448E+02  0.00000000000E+00 0. -1.
         -1   -1    0    0    0  501 -0.00000000000E+00 -0.00000000000E+00 -0.67372502213E+03  0.67372502213E+03  0.00000000000E+00 0.  1.
         25    2    1    2    0    0  0.15638452090E+03  0.46565947661E+02 -0.39055968237E+03  0.44137357168E+03  0.12509699609E+03 0.  0.
          5    1    3    3  502    0  0.78761513880E+02  0.86984091270E+02 -0.20722807761E+03  0.23818177250E+03  0.41800000000E+01 0. -1.
         -5    1    3    3    0  502  0.77623007018E+02 -0.40418143609E+02 -0.18333160476E+03  0.20319179918E+03  0.41800000000E+01 0. -1.
        -11    1    1    2    0    0 -0.14057674775E+03 -0.30177394194E+02 -0.13085598702E+03  0.19441138461E+03  0.00000000000E+00 0. -1.
         11    1    1    2    0    0 -0.15807773153E+02 -0.16388553467E+02 -0.93762102298E+02  0.96487316286E+02  0.00000000000E+00 0.  1.
</event>
<event>
 7    1  0.2810263E-009  0.1431088E+03  0.7561462E-02  0.1209206E+00
          2   -1    0    0  501    0  0.00000000000E+00  0.00000000000E+00  0.53569935081E+03  0.53569935081E+03  0.00000000000E+00 0. -1.
         -2   -1    0    0    0  501 -0.00000000000E+00 -0.00000000000E+00 -0.39598226740E+02  0.39598226740E+02  0.00000000000E+00 0.  1.
         25    2    1    2    0    0  0.73862254861E+02 -0.62095456174E+02  0.26275695865E+03  0.30659618810E+03  0.12509406408E+03 0.  0.
          5    1    3    3  502    0  0.10756549847E+03 -0.31821933372E+02  0.19446005085E+03  0.22453319506E+03  0.41800000000E+01 0. -1.
         -5    1    3    3    0  502 -0.33703243608E+02 -0.30273522802E+02  0.68296907794E+02  0.82062993041E+02  0.41800000000E+01 0. -1.
        -11    1    1    2    0    0  0.90603306920E+01 -0.13501843683E+02  0.10952675401E+02  0.19604858416E+02  0.00000000000E+00 0.  1.
         11    1    1    2    0    0 -0.82922585553E+02  0.75597299857E+02  0.22239149002E+03  0.24909653104E+03  0.00000000000E+00 0. -1.
</event>
<event>
 7    1  0.2810263E-009  0.9688521E+02  0.7561462E-02  0.1286986E+00
          2   -1    0    0  501    0  0.00000000000E+00  0.00000000000E+00  0.11154067428E+03  0.11154067428E+03  0.00000000000E+00 0. -1.
         -2   -1    0    0    0  501 -0.00000000000E+00 -0.00000000000E+00 -0.26470822603E+03  0.26470822603E+03  0.00000000000E+00 0.  1.
         25    2    1    2    0    0 -0.68609594086E+01  0.40699996028E+02 -0.21955266114E+03  0.25603695346E+03  0.12509191854E+03 0.  0.
          5    1    3    3  502    0  0.24653691036E+02 -0.32712236858E+02 -0.12798297724E+03  0.13444333299E+03  0.41800000000E+01 0. -1.
         -5    1    3    3    0  502 -0.31514650445E+02  0.73412232887E+02 -0.91569683895E+02  0.12159362047E+03  0.41800000000E+01 0. -1.
        -11    1    1    2    0    0  0.74546452253E+01 -0.56396900501E+02  0.52935226452E+01  0.57133208413E+02  0.00000000000E+00 0.  1.
         11    1    1    2    0    0 -0.59368581672E+00  0.15696904472E+02  0.61091586737E+02  0.63078738438E+02  0.00000000000E+00 0. -1.
</event>
<event>
 7    1  0.2810263E-009  0.1758917E+03  0.7561462E-02  0.1171839E+00
          1   -1    0    0  501    0  0.00000000000E+00  0.00000000000E+00  0.25394901355E+03  0.25394901355E+03  0.00000000000E+00 0. -1.
         -1   -1    0    0    0  501 -0.00000000000E+00 -0.00000000000E+00 -0.14223509979E+03  0.14223509979E+03  0.00000000000E+00 0.  1.
         25    2    1    2    0    0  0.23862427754E+02  0.15332922813E+03  0.51144713099E+02  0.20577276161E+03  0.12508948831E+03 0.  0.
          5    1    3    3  502    0 -0.30786145230E+02  0.13537840851E+03  0.51388948684E+02  0.14809927979E+03  0.41800000000E+01 0. -1.
         -5    1    3    3    0  502  0.54648572984E+02  0.17950819625E+02 -0.24423558509E+00  0.57673481822E+02  0.41800000000E+01 0. -1.
        -11    1    1    2    0    0 -0.12812234520E+02 -0.71217503442E+02 -0.19760822916E+02  0.75010507745E+02  0.00000000000E+00 0.  1.
         11    1    1    2    0    0 -0.11050193234E+02 -0.82111724690E+02  0.80330023584E+02  0.11540084398E+03  0.00000000000E+00 0. -1.
</event>
<event>
 7    1  0.2810263E-009  0.1529992E+03  0.7561462E-02  0.1196835E+00
         -2   -1    0    0    0  501 -0.00000000000E+00  0.00000000000E+00  0.43240729458E+02  0.43240729458E+02  0.00000000000E+00 0.  1.
          2   -1    0    0  501    0  0.00000000000E+00 -0.00000000000E+00 -0.58871429681E+03  0.58871429681E+03  0.00000000000E+00 0. -1.
         25    2    1    2    0    0 -0.27201763131E+01  0.11262565895E+03 -0.35336828901E+03  0.39141852506E+03  0.12508947063E+03 0.  0.
          5    1    3    3  502    0  0.56282816823E+02  0.57792594297E+02 -0.12132073886E+03  0.14575298797E+03  0.41800000000E+01 0. -1.
         -5    1    3    3    0  502 -0.59002993136E+02  0.54833064653E+02 -0.23204755015E+03  0.24566553708E+03  0.41800000000E+01 0. -1.
        -11    1    1    2    0    0 -0.27605912955E+02 -0.11079420179E+03 -0.14656587772E+03  0.18579289032E+03  0.00000000000E+00 0. -1.
         11    1    1    2    0    0  0.30326089268E+02 -0.18314571640E+01 -0.45539400616E+02  0.54743610898E+02  0.00000000000E+00 0.  1.
</event>
<event>
 7    1  0.2810263E-009  0.1433703E+03  0.7561462E-02  0.1208865E+00
          2   -1    0    0  501    0  0.00000000000E+00  0.00000000000E+00  0.83712910615E+03  0.83712910615E+03  0.00000000000E+00 0. -1.
         -2   -1    0    0    0  501 -0.00000000000E+00 -0.00000000000E+00 -0.38916102191E+02  0.38916102191E+02  0.00000000000E+00 0.  1.
         25    2    1    2    0    0 -0.96040559734E+02  0.98284924033E+02  0.52875628297E+03  0.56045884124E+03  0.12508873065E+03 0.  0.
          5    1    3    3  502    0 -0.67088234559E+02  0.79279580714E+02  0.51071664038E+03  0.52118618775E+03  0.41800000000E+01 0.  1.
         -5    1    3    3    0  502 -0.28952325175E+02  0.19005343319E+02  0.18039642591E+02  0.39272653495E+02  0.41800000000E+01 0.  1.
        -11    1    1    2    0    0  0.83594102209E+02 -0.48598028187E+02  0.10233576679E+03  0.14079187275E+03  0.00000000000E+00 0.  1.
         11    1    1    2    0    0  0.12446457525E+02 -0.49686895846E+02  0.16712095420E+03  0.17479449435E+03  0.00000000000E+00 0. -1.
</event>
<event>
 7    1  0.2810263E-009  0.2236729E+03  0.7561462E-02  0.1131174E+00
         -1   -1    0    0    0  501 -0.00000000000E+00  0.00000000000E+00  0.36495449706E+03  0.36495449706E+03  0.00000000000E+00 0.  1.
          1   -1    0    0  501    0  0.00000000000E+00 -0.00000000000E+00 -0.18926606133E+03  0.18926606133E+03  0.00000000000E+00 0. -1.
         25    2    1    2    0    0  0.20656337586E+03 -0.54570486873E+02  0.20065476264E+03  0.31867762239E+03  0.12508687764E+03 0.  0.
          5    1    3    3  502    0  0.64670199560E+02 -0.15375414293E+02  0.14797317117E+03  0.16227190103E+03  0.41800000000E+01 0.  1.
         -5    1    3    3    0  502  0.14189317630E+03 -0.39195072581E+02  0.52681591466E+02  0.15640572136E+03  0.41800000000E+01 0.  1.
        -11    1    1    2    0    0 -0.16051739282E+03  0.81614951836E+02 -0.11340613512E+02  0.18043127023E+03  0.00000000000E+00 0.  1.
         11    1    1    2    0    0 -0.46045983039E+02 -0.27044464963E+02 -0.13625713388E+02  0.55111665775E+02  0.00000000000E+00 0. -1.
</event>
<event>
 7    1  0.2810263E-009  0.1171071E+03  0.7561462E-02  0.1247947E+00
         -1   -1    0    0    0  501 -0.00000000000E+00  0.00000000000E+00  0.47946491621E+02  0.47946491621E+02  0.00000000000E+00 0.  1.
          1   -1    0    0  501    0  0.00000000000E+00 -0.00000000000E+00 -0.30749541877E+03  0.30749541877E+03  0.00000000000E+00 0. -1.
         25    2    1    2    0    0  0.49770209773E+02  0.47171289567E+01 -0.11543647513E+03  0.17740179600E+03  0.12508593985E+03 0.  0.
          5    1    3    3  502    0  0.24821346448E+02  0.64700131088E+02 -0.54942749718E+02  0.88534650555E+02  0.41800000000E+01 0.  1.
         -5    1    3    3    0  502  0.24948863325E+02 -0.59983002132E+02 -0.60493725412E+02  0.88867145449E+02  0.41800000000E+01 0.  1.
        -11    1    1    2    0    0 -0.63597587438E+02  0.23874849416E+02 -0.12098516019E+03  0.13875183079E+03  0.00000000000E+00 0. -1.
         11    1    1    2    0    0  0.13827377666E+02 -0.28591978372E+02 -0.23127291831E+02  0.39288283594E+02  0.00000000000E+00 0.  1.
</event>
<event>
 7    1  0.2810263E-009  0.1162112E+03  0.7561462E-02  0.1249481E+00
          2   -1    0    0  501    0  0.00000000000E+00  0.00000000000E+00  0.13097796938E+03  0.13097796938E+03  0.00000000000E+00 0. -1.
         -2   -1    0    0    0  501 -0.00000000000E+00 -0.00000000000E+00 -0.11285602090E+03  0.11285602090E+03  0.00000000000E+00 0.  1.
         25    2    1    2    0    0  0.92887900531E+01  0.50974438728E+02 -0.46966545937E+01  0.13547750162E+03  0.12508964728E+03 0.  0.
          5    1    3    3  502    0  0.62620865001E+02  0.32600943380E+02 -0.25545219670E+02  0.75194580195E+02  0.41800000000E+01 0.  1.
         -5    1    3    3    0  502 -0.53332074948E+02  0.18373495348E+02  0.20848565077E+02  0.60282921423E+02  0.41800000000E+01 0.  1.
        -11    1    1    2    0    0  0.11080255899E+02 -0.73752365157E+02  0.22120881604E+02  0.77791495937E+02  0.00000000000E+00 0. -1.
         11    1    1    2    0    0 -0.20369045952E+02  0.22777926429E+02  0.69772146887E+00  0.30564992731E+02  0.00000000000E+00 0.  1.
</event>
<event>
 7    1  0.2810263E-009  0.8439866E+02  0.7561462E-02  0.1317013E+00
         -1   -1    0    0    0  501 -0.00000000000E+00  0.00000000000E+00  0.30254502482E+03  0.30254502482E+03  0.00000000000E+00 0.  1.
          1   -1    0    0  501    0  0.00000000000E+00 -0.00000000000E+00 -0.52795460856E+02  0.52795460856E+02  0.00000000000E+00 0. -1.
         25    2    1    2    0    0  0.75929158202E+02 -0.23506213814E+02  0.14956009267E+03  0.21055588865E+03  0.12509109389E+03 0.  0.
          5    1    3    3  502    0  0.17498858191E+02  0.42193194998E+01  0.14436011732E+03  0.14553806570E+03  0.41800000000E+01 0. -1.
         -5    1    3    3    0  502  0.58430300012E+02 -0.27725533314E+02  0.51999753477E+01  0.65017822946E+02  0.41800000000E+01 0. -1.
        -11    1    1    2    0    0 -0.60235063813E+02  0.38534447434E+01  0.24701393924E+02  0.65217105201E+02  0.00000000000E+00 0. -1.
         11    1    1    2    0    0 -0.15694094389E+02  0.19652769070E+02  0.75488077369E+02  0.79567491827E+02  0.00000000000E+00 0.  1.
</event>
<event>
 7    1  0.2810263E-009  0.1140457E+03  0.7561462E-02  0.1253256E+00
         -1   -1    0    0    0  501 -0.00000000000E+00  0.00000000000E+00  0.54741507803E+02  0.54741507803E+02  0.00000000000E+00 0.  1.
          1   -1    0    0  501    0  0.00000000000E+00 -0.00000000000E+00 -0.30652150716E+03  0.30652150716E+03  0.00000000000E+00 0. -1.
         25    2    1    2    0    0  0.63750956267E+02 -0.38746051921E+02 -0.19643845939E+03  0.24454237273E+03  0.12508981880E+03 0.  0.
          5    1    3    3  502    0  0.82559862481E+02  0.59032207983E+01 -0.17015461011E+03  0.18926447805E+03  0.41800000000E+01 0.  1.
         -5    1    3    3    0  502 -0.18808906214E+02 -0.44649272720E+02 -0.26283849275E+02  0.55277894678E+02  0.41800000000E+01 0.  1.
        -11    1    1    2    0    0 -0.42512799966E+02 -0.97734802612E+01 -0.45158310256E+02  0.62786400299E+02  0.00000000000E+00 0. -1.
         11    1    1    2    0    0 -0.21238156301E+02  0.48519532183E+02 -0.10183229718E+02  0.53934241941E+02  0.00000000000E+00 0.  1.
</event>
<event>
 7    1  0.2810263E-009  0.1244577E+03  0.7561462E-02  0.1235919E+00
         -4   -1    0    0    0  501 -0.00000000000E+00  0.00000000000E+00  0.20376304034E+03  0.20376304034E+03  0.00000000000E+00 0.  1.
          4   -1    0    0  501    0  0.00000000000E+00 -0.00000000000E+00 -0.97994302564E+02  0.97994302564E+02  0.00000000000E+00 0. -1.
         25    2    1    2    0    0 -0.38968568371E+02  0.81376640818E+02  0.82251924482E+02  0.17481002742E+03  0.12510979024E+03 0.  0.
          5    1    3    3  502    0 -0.43296277309E+02  0.10346331155E+03  0.96355553663E+02  0.14792257971E+03  0.41800000000E+01 0.  1.
         -5    1    3    3    0  502  0.43277089374E+01 -0.22086670731E+02 -0.14103629181E+02  0.26887447716E+02  0.41800000000E+01 0.  1.
        -11    1    1    2    0    0  0.13879097148E+02  0.11223986973E+02  0.25334165934E+02  0.30990759668E+02  0.00000000000E+00 0.  1.
         11    1    1    2    0    0  0.25089471224E+02 -0.92600627791E+02 -0.18173526384E+01  0.95956555816E+02  0.00000000000E+00 0. -1.
</event>
<event>
 7    1  0.2810263E-009  0.1538254E+03  0.7561462E-02  0.1195850E+00
          2   -1    0    0  501    0  0.00000000000E+00  0.00000000000E+00  0.12357659769E+03  0.12357659769E+03  0.00000000000E+00 0. -1.
         -2   -1    0    0    0  501 -0.00000000000E+00 -0.00000000000E+00 -0.45758853935E+03  0.45758853935E+03  0.00000000000E+00 0.  1.
         25    2    1    2    0    0  0.33246376886E+02  0.14834759420E+03  0.60253244352E+01  0.19696212077E+03  0.12508174208E+03 0.  0.
          5    1    3    3  502    0  0.25123308541E+02  0.12680056133E+03 -0.48104573743E+02  0.13798943945E+03  0.41800000000E+01 0. -1.
         -5    1    3    3    0  502  0.81230683447E+01  0.21547032874E+02  0.54129898178E+02  0.58972681318E+02  0.41800000000E+01 0. -1.
        -11    1    1    2    0    0  0.53849556735E+01 -0.28172237841E+02 -0.92318334065E+01  0.30131370374E+02  0.00000000000E+00 0. -1.
         11    1    1    2    0    0 -0.38631332560E+02 -0.12017535636E+03 -0.33080543269E+03  0.35407164590E+03  0.00000000000E+00 0.  1.
</event>
<event>
 7    1  0.2810263E-009  0.1112049E+03  0.7561462E-02  0.1258355E+00
         -2   -1    0    0    0  501 -0.00000000000E+00  0.00000000000E+00  0.34140414979E+02  0.34140414979E+02  0.00000000000E+00 0. -1.
          2   -1    0    0  501    0  0.00000000000E+00 -0.00000000000E+00 -0.39348413583E+03  0.39348413583E+03  0.00000000000E+00 0.  1.
         25    2    1    2    0    0 -0.40803128313E+00 -0.31980078194E+02 -0.15993197385E+03  0.20554534817E+03  0.12509101488E+03 0.  0.
          5    1    3    3  502    0  0.17546079231E+02 -0.77066499714E+02 -0.11253402355E+03  0.13758084580E+03  0.41800000000E+01 0.  1.
         -5    1    3    3    0  502 -0.17954110515E+02  0.45086421520E+02 -0.47397950294E+02  0.67964502367E+02  0.41800000000E+01 0.  1.
        -11    1    1    2    0    0 -0.20705535390E+02  0.57683985049E+02 -0.10038598605E+03  0.11761593226E+03  0.00000000000E+00 0.  1.
         11    1    1    2    0    0  0.21113566673E+02 -0.25703906855E+02 -0.99025760952E+02  0.10446327037E+03  0.00000000000E+00 0. -1.
</event>
<event>
 7    1  0.2810263E-009  0.1042950E+03  0.7561462E-02  0.1271515E+00
         -2   -1    0    0    0  501 -0.00000000000E+00  0.00000000000E+00  0.25599299487E+03  0.25599299487E+03  0.00000000000E+00 0.  1.
          2   -1    0    0  501    0  0.00000000000E+00 -0.00000000000E+00 -0.47605392037E+02  0.47605392037E+02  0.00000000000E+00 0. -1.
         25    2    1    2    0    0  0.92018954099E+01 -0.19034445509E+02  0.14328359392E+03  0.19137544531E+03  0.12508951909E+03 0.  0.
          5    1    3    3  502    0  0.62932230221E+02 -0.30983867246E+02  0.66024163835E+02  0.96421617079E+02  0.41800000000E+01 0. -1.
         -5    1    3    3    0  502 -0.53730334811E+02  0.11949421738E+02  0.77259430089E+02  0.94953828235E+02  0.41800000000E+01 0. -1.
        -11    1    1    2    0    0 -0.31224908775E+02 -0.20857777560E+02  0.66964458785E+01  0.38142944304E+02  0.00000000000E+00 0. -1.
         11    1    1    2    0    0  0.22023013365E+02  0.39892223069E+02  0.58407563025E+02  0.74079997284E+02  0.00000000000E+00 0.  1.
</event>
<event>
 7    1  0.2810263E-009  0.1338648E+03  0.7561462E-02  0.1221831E+00
         -2   -1    0    0    0  501 -0.00000000000E+00  0.00000000000E+00  0.19944117828E+03  0.19944117828E+03  0.00000000000E+00 0. -1.
          2   -1    0    0  501    0  0.00000000000E+00 -0.00000000000E+00 -0.16413335473E+03  0.16413335473E+03  0.00000000000E+00 0.  1.
         25    2    1    2    0    0 -0.11560636486E+03  0.40263240585E+02  0.93889492852E+02  0.19861329051E+03  0.12508414032E+03 0.  0.
          5    1    3    3  502    0 -0.79788370869E+02  0.40654197468E+02  0.12304533420E+03  0.15223854495E+03  0.41800000000E+01 0.  1.
         -5    1    3    3    0  502 -0.35817993993E+02 -0.39095688321E+00 -0.29155841352E+02  0.46374745562E+02  0.41800000000E+01 0.  1.
        -11    1    1    2    0    0  0.94998361957E+02  0.19793158615E+01 -0.71491900400E+01  0.95287551045E+02  0.00000000000E+00 0. -1.
         11    1    1    2    0    0  0.20608002905E+02 -0.42242556446E+02 -0.51432479260E+02  0.69673691460E+02  0.00000000000E+00 0.  1.
</event>
<event>
 7    1  0.2810263E-009  0.7421411E+02  0.7561462E-02  0.1346322E+00
         -1   -1    0    0    0  501 -0.00000000000E+00  0.00000000000E+00  0.16254098203E+02  0.16254098203E+02  0.00000000000E+00 0.  1.
          1   -1    0    0  501    0  0.00000000000E+00 -0.00000000000E+00 -0.81157038977E+03  0.81157038977E+03  0.00000000000E+00 0. -1.
         25    2    1    2    0    0 -0.51250680642E+01 -0.37515210238E+02 -0.44559886775E+03  0.46436882596E+03  0.12508556378E+03 0.  0.
          5    1    3    3  502    0  0.12429870547E+02 -0.84448029421E+01  0.17660105622E+01  0.15697374680E+02  0.41800000000E+01 0. -1.
         -5    1    3    3    0  502 -0.17554938612E+02 -0.29070407296E+02 -0.44736487831E+03  0.44867145128E+03  0.41800000000E+01 0. -1.
        -11    1    1    2    0    0 -0.32098964147E+02 -0.14031915403E+02 -0.13962334080E+03  0.14395108699E+03  0.00000000000E+00 0. -1.
         11    1    1    2    0    0  0.37224032211E+02  0.51547125641E+02 -0.21009408303E+03  0.21950457503E+03  0.00000000000E+00 0.  1.
</event>
<event>
 7    1  0.2810263E-009  0.1502438E+03  0.7561462E-02  0.1200174E+00
          2   -1    0    0  501    0  0.00000000000E+00  0.00000000000E+00  0.14888893716E+03  0.14888893716E+03  0.00000000000E+00 0. -1.
         -2   -1    0    0    0  501 -0.00000000000E+00 -0.00000000000E+00 -0.16254213889E+03  0.16254213889E+03  0.00000000000E+00 0.  1.
         25    2    1    2    0    0  0.75267596466E+02 -0.78014399226E+02  0.18841773411E+02  0.16659258106E+03  0.12508644241E+03 0.  0.
          5    1    3    3  502    0  0.10744536736E+03 -0.57974147347E+02 -0.38393910240E+01  0.12221997403E+03  0.41800000000E+01 0.  1.
         -5    1    3    3    0  502 -0.32177770892E+02 -0.20040251879E+02  0.22681164435E+02  0.44372607035E+02  0.41800000000E+01 0.  1.
        -11    1    1    2    0    0 -0.80754985354E+02  0.21714469631E+02 -0.27599618975E+02  0.88060347595E+02  0.00000000000E+00 0.  1.
         11    1    1    2    0    0  0.54873888885E+01  0.56299929595E+02 -0.48953561722E+01  0.56778147392E+02  0.00000000000E+00 0. -1.
</event>
<event>
 7    1  0.2810263E-009  0.1053356E+03  0.7561462E-02  0.1269460E+00
         -3   -1    0    0    0  501 -0.00000000000E+00  0.00000000000E+00  0.12395514072E+03  0.12395514072E+03  0.00000000000E+00 0.  1.
          3   -1    0    0  501    0  0.00000000000E+00 -0.00000000000E+00 -0.12827530615E+03  0.12827530615E+03  0.00000000000E+00 0. -1.
         25    2    1    2    0    0 -0.45146200036E+02  0.53631425998E+01 -0.41264059829E+02  0.13934468949E+03  0.12508907698E+03 0.  0.
          5    1    3    3  502    0 -0.14004368206E+02  0.62389812237E+02 -0.37231452252E+02  0.74109813363E+02  0.41800000000E+01 0. -1.
         -5    1    3    3    0  502 -0.31141831829E+02 -0.57026669637E+02 -0.40326075766E+01  0.65234876128E+02  0.41800000000E+01 0. -1.
        -11    1    1    2    0    0  0.29571049553E+02  0.30439623249E+02 -0.17486637150E+02  0.45899892309E+02  0.00000000000E+00 0. -1.
         11    1    1    2    0    0  0.15575150483E+02 -0.35802765849E+02  0.54430531547E+02  0.66985865072E+02  0.00000000000E+00 0.  1.
</event>
<event>
 7    1  0.2810263E-009  0.9366443E+02  0.7561462E-02  0.1294213E+00
         -2   -1    0    0    0  501 -0.00000000000E+00  0.00000000000E+00  0.12462369082E+03  0.12462369082E+03  0.00000000000E+00 0.  1.
          2   -1    0    0  501    0  0.00000000000E+00 -0.00000000000E+00 -0.11378547015E+03  0.11378547015E+03  0.00000000000E+00 0. -1.
         25    2    1    2    0    0  0.48946199322E+02  0.31183127871E+01 -0.82592887693E+01  0.13460612261E+03  0.12508052643E+03 0.  0.
          5    1    3    3  502    0 -0.64866268277E+01  0.54803113176E+02  0.10700959622E+02  0.56368789930E+02  0.41800000000E+01 0. -1.
         -5    1    3    3    0  502  0.55432826150E+02 -0.51684800389E+02 -0.18960248391E+02  0.78237332682E+02  0.41800000000E+01 0. -1.
        -11    1    1    2    0    0 -0.13765037355E+02 -0.13620464936E+02 -0.34070972596E+02  0.39189596733E+02  0.00000000000E+00 0. -1.
         11    1    1    2    0    0 -0.35181161967E+02  0.10502152149E+02  0.53168482031E+02  0.64613441625E+02  0.00000000000E+00 0.  1.
</event>
<event>
 7    1  0.2810263E-009  0.8871025E+02  0.7561462E-02  0.1306005E+00
         -2   -1    0    0    0  501 -0.00000000000E+00  0.00000000000E+00  0.27306774742E+03  0.27306774742E+03  0.00000000000E+00 0. -1.
          2   -1    0    0  501    0  0.00000000000E+00 -0.00000000000E+00 -0.48970708137E+02  0.48970708137E+02  0.00000000000E+00 0.  1.
         25    2    1    2    0    0 -0.27310553336E+02  0.17523756663E+02  0.96813070488E+02  0.16147239147E+03  0.12509042416E+03 0.  0.
          5    1    3    3  502    0 -0.52188075893E+02 -0.75194172417E+01  0.11118971632E+03  0.12312904741E+03  0.41800000000E+01 0. -1.
         -5    1    3    3    0  502  0.24877522558E+02  0.25043173905E+02 -0.14376645832E+02  0.38343344054E+02  0.41800000000E+01 0. -1.
        -11    1    1    2    0    0 -0.29817116146E+02 -0.94978237681E+01  0.15834957810E+02  0.35071569119E+02  0.00000000000E+00 0.  1.
         11    1    1    2    0    0  0.57127669482E+02 -0.80259328948E+01  0.11144901099E+03  0.12549449498E+03  0.00000000000E+00 0. -1.
</event>
<event>
 7    1  0.2884732E-009  0.2468548E+03  0.7561462E-02  0.1115309E+00
         -2   -1    0    0    0  501 -0.00000000000E+00  0.00000000000E+00  0.30803166902E+02  0.30803166902E+02  0.00000000000E+00 0. -1.
          2   -1    0    0  501    0  0.00000000000E+00 -0.00000000000E+00 -0.20567855364E+04  0.20567855364E+04  0.00000000000E+00 0.  1.
         25    2    1    2    0    0  0.16692520214E+03  0.15344356384E+03 -0.10394908628E+04  0.10712590361E+04  0.12508284492E+03 0.  0.
          5    1    3    3  502    0  0.16157941340E+03  0.74961593417E+02 -0.77911780264E+03  0.79923036111E+03  0.41800000000E+01 0. -1.
         -5    1    3    3    0  502  0.53457887435E+01  0.78481970419E+02 -0.26037306019E+03  0.27202867498E+03  0.41800000000E+01 0. -1.
        -11    1    1    2    0    0 -0.43865625104E+02 -0.85741615151E+02 -0.28256700168E+03  0.29852961005E+03  0.00000000000E+00 0. -1.
         11    1    1    2    0    0 -0.12305957704E+03 -0.67701948686E+02 -0.70392450500E+03  0.71780005718E+03  0.00000000000E+00 0.  1.
</event>
<event>
 7    1  0.2810263E-009  0.7999172E+02  0.7561462E-02  0.1329075E+00
          1   -1    0    0  501    0  0.00000000000E+00  0.00000000000E+00  0.29215567134E+02  0.29215567134E+02  0.00000000000E+00 0. -1.
         -1   -1    0    0    0  501 -0.00000000000E+00 -0.00000000000E+00 -0.40766106230E+03  0.40766106230E+03  0.00000000000E+00 0.  1.
         25    2    1    2    0    0  0.99523218157E+01  0.18769689117E+02 -0.23766239036E+03  0.26941411129E+03  0.12509676907E+03 0.  0.
          5    1    3    3  502    0 -0.20061716070E+02 -0.32295348355E+02 -0.18844920711E+03  0.19229154437E+03  0.41800000000E+01 0. -1.
         -5    1    3    3    0  502  0.30014037886E+02  0.51065037472E+02 -0.49213183249E+02  0.77122566916E+02  0.41800000000E+01 0. -1.
        -11    1    1    2    0    0 -0.14580580183E+02 -0.38982193054E+02 -0.22375938156E+02  0.47253436935E+02  0.00000000000E+00 0. -1.
         11    1    1    2    0    0  0.46282583673E+01  0.20212503937E+02 -0.11840716665E+03  0.12020908121E+03  0.00000000000E+00 0.  1.
</event>
<event>
 7    1  0.2810263E-009  0.1026577E+03  0.7561462E-02  0.1274804E+00
         -2   -1    0    0    0  501 -0.00000000000E+00  0.00000000000E+00  0.12373288293E+02  0.12373288293E+02  0.00000000000E+00 0.  1.
          2   -1    0    0  501    0  0.00000000000E+00 -0.00000000000E+00 -0.10624853143E+04  0.10624853143E+04  0.00000000000E+00 0. -1.
         25    2    1    2    0    0  0.57723922382E+01 -0.52707571602E+01 -0.76803577928E+03  0.77819548123E+03  0.12509255518E+03 0.  0.
          5    1    3    3  502    0 -0.52746836096E+02 -0.15807825338E+02 -0.52755877376E+03  0.53044118263E+03  0.41800000000E+01 0. -1.
         -5    1    3    3    0  502  0.58519228334E+02  0.10537068178E+02 -0.24047700552E+03  0.24775429860E+03  0.41800000000E+01 0. -1.
        -11    1    1    2    0    0  0.42239383892E+02  0.43719315573E+01 -0.15834391022E+03  0.16393923643E+03  0.00000000000E+00 0.  1.
         11    1    1    2    0    0 -0.48011776130E+02  0.89882560289E+00 -0.12373233653E+03  0.13272388496E+03  0.00000000000E+00 0. -1.
</event>
<event>
 7    1  0.2810263E-009  0.1200267E+03  0.7561462E-02  0.1243053E+00
         -1   -1    0    0    0  501 -0.00000000000E+00  0.00000000000E+00  0.23916275085E+03  0.23916275085E+03  0.00000000000E+00 0.  1.
          1   -1    0    0  501    0  0.00000000000E+00 -0.00000000000E+00 -0.66676814740E+02  0.66676814740E+02  0.00000000000E+00 0. -1.
         25    2    1    2    0    0 -0.61559915147E+02  0.11032338518E+02  0.10775208631E+03  0.17655032851E+03  0.12509264865E+03 0.  0.
          5    1    3    3  502    0 -0.91304294721E+02 -0.97977215203E+01  0.10549882429E+03  0.13992835277E+03  0.41800000000E+01 0. -1.
         -5    1    3    3    0  502  0.29744379574E+02  0.20830060038E+02  0.22532620207E+01  0.36621975741E+02  0.41800000000E+01 0. -1.
        -11    1    1    2    0    0  0.28795059831E+02  0.40992107409E+02  0.34084203678E+02  0.60590768941E+02  0.00000000000E+00 0. -1.
         11    1    1    2    0    0  0.32764855316E+02 -0.52024445927E+02  0.30649646124E+02  0.68698468144E+02  0.00000000000E+00 0.  1.
</event>
<event>
 7    1  0.2810263E-009  0.1015473E+03  0.7561462E-02  0.1277076E+00
         -1   -1    0    0    0  501 -0.00000000000E+00  0.00000000000E+00  0.33061629973E+03  0.33061629973E+03  0.00000000000E+00 0.  1.
          1   -1    0    0  501    0  0.00000000000E+00 -0.00000000000E+00 -0.66796040556E+02  0.66796040556E+02  0.00000000000E+00 0. -1.
         25    2    1    2    0    0  0.16941498796E+02  0.29641564929E+02  0.15296745745E+02  0.13056059640E+03  0.12508573919E+03 0.  0.
          5    1    3    3  502    0 -0.47149515678E+02 -0.15806605484E+02  0.14151001235E+02  0.51871464618E+02  0.41800000000E+01 0. -1.
         -5    1    3    3    0  502  0.64091014474E+02  0.45448170413E+02  0.11457445102E+01  0.78689131783E+02  0.41800000000E+01 0. -1.
        -11    1    1    2    0    0 -0.35333795101E+02 -0.40024259410E+02  0.23670097570E+03  0.24264741976E+03  0.00000000000E+00 0.  1.
         11    1    1    2    0    0  0.18392296305E+02  0.10382694481E+02  0.11822537725E+02  0.24204324124E+02  0.00000000000E+00 0. -1.
</event>
<event>
 7    1  0.2810263E-009  0.9241438E+02  0.7561462E-02  0.1297108E+00
         -2   -1    0    0    0  501 -0.00000000000E+00  0.00000000000E+00  0.27550448514E+02  0.27550448514E+02  0.00000000000E+00 0.  1.
          2   -1    0    0  501    0  0.00000000000E+00 -0.00000000000E+00 -0.75128573887E+03  0.75128573887E+03  0.00000000000E+00 0. -1.
         25    2    1    2    0    0 -0.51644290185E+02  0.51932174178E+02 -0.55535198824E+03  0.57395739587E+03  0.12508868055E+03 0.  0.
          5    1    3    3  502    0  0.16560164098E+02  0.19749385946E+02 -0.40363371872E+03  0.40447735235E+03  0.41800000000E+01 0. -1.
         -5    1    3    3    0  502 -0.68204454283E+02  0.32182788232E+02 -0.15171826953E+03  0.16948004352E+03  0.41800000000E+01 0. -1.
        -11    1    1    2    0    0  0.38218711828E+02 -0.10501886097E+02 -0.15399250822E+03  0.15901148428E+03  0.00000000000E+00 0. -1.
         11    1    1    2    0    0  0.13425578357E+02 -0.41430288081E+02 -0.14390793902E+02  0.45867307244E+02  0.00000000000E+00 0.  1.
</event>
<event>
 7    1  0.2810263E-009  0.2276268E+03  0.7561462E-02  0.1128321E+00
         -1   -1    0    0    0  501 -0.00000000000E+00  0.00000000000E+00  0.68909528238E+02  0.68909528238E+02  0.00000000000E+00 0.  1.
          1   -1    0    0  501    0  0.00000000000E+00 -0.00000000000E+00 -0.92254653786E+03  0.92254653786E+03  0.00000000000E+00 0. -1.
         25    2    1    2    0    0  0.19487573227E+03  0.10887208938E+03 -0.51476893493E+03  0.57486003823E+03  0.12508926537E+03 0.  0.
          5    1    3    3  502    0  0.93922304232E+02  0.76941794279E+02 -0.40270130354E+03  0.42062721168E+03  0.41800000000E+01 0.  1.
         -5    1    3    3    0  502  0.10095342804E+03  0.31930295099E+02 -0.11206763139E+03  0.15423282655E+03  0.41800000000E+01 0.  1.
        -11    1    1    2    0    0 -0.30333485180E+02  0.30283215560E+00 -0.11100389515E+03  0.11507422287E+03  0.00000000000E+00 0. -1.
         11    1    1    2    0    0 -0.16454224709E+03 -0.10917492153E+03 -0.22786417954E+03  0.30152180500E+03  0.00000000000E+00 0.  1.
</event>
<event>
 7    1  0.2810263E-009  0.1032312E+03  0.7561462E-02  0.1273644E+00
          2   -1    0    0  501    0  0.00000000000E+00  0.00000000000E+00  0.59284901865E+03  0.59284901865E+03  0.00000000000E+00 0. -1.
         -2   -1    0    0    0  501 -0.00000000000E+00 -0.00000000000E+00 -0.27353410232E+02  0.27353410232E+02  0.00000000000E+00 0.  1.
         25    2    1    2    0    0  0.59576427763E+02 -0.22663537930E+02  0.36256666976E+03  0.38880029059E+03  0.12509232291E+03 0.  0.
          5    1    3    3  502    0 -0.98178783130E+01  0.33288666910E+02  0.35676834429E+02  0.49948323236E+02  0.41800000000E+01 0.  1.
         -5    1    3    3    0  502  0.69394306076E+02 -0.55952204840E+02  0.32688983533E+03  0.33885196736E+03  0.41800000000E+01 0.  1.
        -11    1    1    2    0    0 -0.29161366853E+02 -0.15850182919E+02  0.13689428520E+02  0.35902842067E+02  0.00000000000E+00 0.  1.
         11    1    1    2    0    0 -0.30415060910E+02  0.38513720849E+02  0.18923951015E+03  0.19549929622E+03  0.00000000000E+00 0. -1.
</event>
<event>
 7    1  0.2810263E-009  0.1122522E+03  0.7561462E-02  0.1256455E+00
         -1   -1    0    0    0  501 -0.00000000000E+00  0.00000000000E+00  0.94793603850E+02  0.94793603850E+02  0.00000000000E+00 0.  1.
          1   -1    0    0  501    0  0.00000000000E+00 -0.00000000000E+00 -0.15201996219E+03  0.15201996219E+03  0.00000000000E+00 0. -1.
         25    2    1    2    0    0 -0.91887982460E+01  0.33604760833E+02 -0.71582865403E+02  0.14827414927E+03  0.12508957893E+03 0.  0.
          5    1    3    3  502    0 -0.50399120428E+02  0.59560414465E+02 -0.58686551707E+02  0.97719486605E+02  0.41800000000E+01 0.  1.
         -5    1    3    3    0  502  0.41210322182E+02 -0.25955653632E+02 -0.12896313696E+02  0.50554662661E+02  0.41800000000E+01 0.  1.
        -11    1    1    2    0    0 -0.16768028998E+02  0.26872966132E+02  0.46766350731E+01  0.32018651140E+02  0.00000000000E+00 0.  1.
         11    1    1    2    0    0  0.25956827244E+02 -0.60477726965E+02  0.96798719867E+01  0.66520765639E+02  0.00000000000E+00 0. -1.
</event>
<event>
 7    1  0.2810263E-009  0.6078297E+02  0.7561462E-02  0.1394575E+00
          1   -1    0    0  501    0  0.00000000000E+00  0.00000000000E+00  0.73938736643E+03  0.73938736643E+03  0.00000000000E+00 0. -1.
         -1   -1    0    0    0  501 -0.00000000000E+00 -0.00000000000E+00 -0.18829691727E+02  0.18829691727E+02  0.00000000000E+00 0.  1.
         25    2    1    2    0    0  0.16651548186E+02 -0.30094641528E+02  0.50660864493E+03  0.52295636628E+03  0.12509228754E+03 0.  0.
          5    1    3    3  502    0  0.10994002118E+02 -0.30983313475E+02  0.25551992808E+02  0.41847467461E+02  0.41800000000E+01 0. -1.
         -5    1    3    3    0  502  0.56575460671E+01  0.88867194635E+00  0.48105665212E+03  0.48110889881E+03  0.41800000000E+01 0. -1.
        -11    1    1    2    0    0 -0.38166683020E+02 -0.66628228819E+01  0.16881342959E+03  0.17320237559E+03  0.00000000000E+00 0. -1.
         11    1    1    2    0    0  0.21515134834E+02  0.36757464410E+02  0.45135600185E+02  0.62058316291E+02  0.00000000000E+00 0.  1.
</event>
<event>
 7    1  0.2810263E-009  0.1716599E+03  0.7561462E-02  0.1176128E+00
          1   -1    0    0  501    0  0.00000000000E+00  0.00000000000E+00  0.57260636000E+02  0.57260636000E+02  0.00000000000E+00 0. -1.
         -1   -1    0    0    0  501 -0.00000000000E+00 -0.00000000000E+00 -0.80952056705E+03  0.80952056705E+03  0.00000000000E+00 0.  1.
         25    2    1    2    0    0  0.33049701119E+02  0.14148860127E+03 -0.62406266831E+03  0.65284990625E+03  0.12508988399E+03 0.  0.
          5    1    3    3  502    0  0.76205176679E+02  0.52717604722E+02 -0.31616759895E+03  0.32949324398E+03  0.41800000000E+01 0. -1.
         -5    1    3    3    0  502 -0.43155475559E+02  0.88770996548E+02 -0.30789506936E+03  0.32335666227E+03  0.41800000000E+01 0. -1.
        -11    1    1    2    0    0 -0.38240762322E+02 -0.67349797433E+02 -0.11469344408E+03  0.13839413728E+03  0.00000000000E+00 0.  1.
         11    1    1    2    0    0  0.51910612032E+01 -0.74138803837E+02 -0.13503818657E+02  0.75537159525E+02  0.00000000000E+00 0. -1.
</event>
<event>
 7    1  0.2810263E-009  0.1043687E+03  0.7561462E-02  0.1271368E+00
         -2   -1    0    0    0  501 -0.00000000000E+00  0.00000000000E+00  0.24886239674E+02  0.24886239674E+02  0.00000000000E+00 0.  1.
          2   -1    0    0  501    0  0.00000000000E+00 -0.00000000000E+00 -0.50056220495E+03  0.50056220495E+03  0.00000000000E+00 0. -1.
         25    2    1    2    0    0 -0.22661708132E+02  0.24044103104E+01 -0.30284544124E+03  0.32845224447E+03  0.12508469695E+03 0.  0.
          5    1    3    3  502    0  0.51014012529E+02 -0.30411213712E+01 -0.97126140275E+02  0.10983003878E+03  0.41800000000E+01 0.  1.
         -5    1    3    3    0  502 -0.73675720661E+02  0.54455316816E+01 -0.20571930097E+03  0.21862220569E+03  0.41800000000E+01 0.  1.
        -11    1    1    2    0    0 -0.17765494861E+02 -0.29756609647E+02 -0.29264504509E+02  0.45359451601E+02  0.00000000000E+00 0. -1.
         11    1    1    2    0    0  0.40427202993E+02  0.27352199337E+02 -0.14356601952E+03  0.15163674855E+03  0.00000000000E+00 0.  1.
</event>
<event>
 7    1  0.2810263E-009  0.2059764E+03  0.7561462E-02  0.1144792E+00
         -1   -1    0    0    0  501 -0.00000000000E+00  0.00000000000E+00  0.52898928911E+02  0.52898928911E+02  0.00000000000E+00 0.  1.
          1   -1    0    0  501    0  0.00000000000E+00 -0.00000000000E+00 -0.19183696710E+04  0.19183696710E+04  0.00000000000E+00 0. -1.
         25    2    1    2    0    0  0.11565791458E+03  0.15259205234E+03 -0.16591968746E+04  0.16748862278E+04  0.12509404333E+03 0.  0.
          5    1    3    3  502    0  0.93618249952E+02  0.36778935450E+02 -0.10147629134E+04  0.10197442374E+04  0.41800000000E+01 0. -1.
         -5    1    3    3    0  502  0.22039664631E+02  0.11581311689E+03 -0.64443396115E+03  0.65514199037E+03  0.41800000000E+01 0. -1.
        -11    1    1    2    0    0 -0.77482617951E+02 -0.12139772247E+03 -0.89331048324E+02  0.16947270960E+03  0.00000000000E+00 0. -1.
         11    1    1    2    0    0 -0.38175296632E+02 -0.31194329870E+02 -0.11694281917E+03  0.12690966254E+03  0.00000000000E+00 0.  1.
</event>
<event>
 7    1  0.2810263E-009  0.1002043E+03  0.7561462E-02  0.1279867E+00
          2   -1    0    0  501    0  0.00000000000E+00  0.00000000000E+00  0.30995672170E+03  0.30995672170E+03  0.00000000000E+00 0.  1.
         -2   -1    0    0    0  501 -0.00000000000E+00 -0.00000000000E+00 -0.40967251221E+02  0.40967251221E+02  0.00000000000E+00 0. -1.
         25    2    1    2    0    0  0.11218937095E+02 -0.89948983514E+01  0.17612351011E+03  0.21650262872E+03  0.12508846743E+03 0.  0.
          5    1    3    3  502    0  0.66076355592E+02  0.10687473855E+02  0.85313380000E+02  0.10851798041E+03  0.41800000000E+01 0.  1.
         -5    1    3    3    0  502 -0.54857418497E+02 -0.19682372207E+02  0.90810130113E+02  0.10798464831E+03  0.41800000000E+01 0.  1.
        -11    1    1    2    0    0  0.30840463868E+02 -0.34933550670E+01 -0.73652474903E+00  0.31046420243E+02  0.00000000000E+00 0. -1.
         11    1    1    2    0    0 -0.42059400963E+02  0.12488253418E+02  0.93602485114E+02  0.10337492395E+03  0.00000000000E+00 0.  1.
</event>
<event>
 7    1  0.2810263E-009  0.9866961E+02  0.7561462E-02  0.1283119E+00
          1   -1    0    0  501    0  0.00000000000E+00  0.00000000000E+00  0.12846917148E+03  0.12846917148E+03  0.00000000000E+00 0. -1.
         -1   -1    0    0    0  501 -0.00000000000E+00 -0.00000000000E+00 -0.12329935242E+03  0.12329935242E+03  0.00000000000E+00 0.  1.
         25    2    1    2    0    0  0.39040907035E+02  0.47357862538E+02  0.21878730230E+02  0.14104267763E+03  0.12508956195E+03 0.  0.
          5    1    3    3  502    0  0.56358020664E+02  0.79422579278E+02 -0.16026153722E+01  0.97489555176E+02  0.41800000000E+01 0.  1.
         -5    1    3    3    0  502 -0.17317113629E+02 -0.32064716741E+02  0.23481345602E+02  0.43553122453E+02  0.41800000000E+01 0.  1.
        -11    1    1    2    0    0 -0.18567050306E+01 -0.11072359978E+02 -0.48522590588E+02  0.49804480786E+02  0.00000000000E+00 0.  1.
         11    1    1    2    0    0 -0.37184202004E+02 -0.36285502559E+02  0.31813679422E+02  0.60921365489E+02  0.00000000000E+00 0. -1.
</event>
<event>
 7    1  0.2810263E-009  0.1054100E+03  0.7561462E-02  0.1269314E+00
          2   -1    0    0  501    0  0.00000000000E+00  0.00000000000E+00  0.60228837477E+03  0.60228837477E+03  0.00000000000E+00 0.  1.
         -2   -1    0    0    0  501 -0.00000000000E+00 -0.00000000000E+00 -0.30638361855E+02  0.30638361855E+02  0.00000000000E+00 0. -1.
         25    2    1    2    0    0  0.14144793337E+02 -0.35756304189E+02  0.48595069574E+03  0.50326243757E+03  0.12508562634E+03 0.  0.
          5    1    3    3  502    0  0.92723157730E+01 -0.78046500330E+02  0.21494611748E+03  0.22890290054E+03  0.41800000000E+01 0.  1.
         -5    1    3    3    0  502  0.48724775641E+01  0.42290196141E+02  0.27100457825E+03  0.27435953703E+03  0.41800000000E+01 0.  1.
        -11    1    1    2    0    0  0.10358590172E+02 -0.23246738283E+02  0.50911737228E+02  0.56918505064E+02  0.00000000000E+00 0.  1.
         11    1    1    2    0    0 -0.24503383509E+02  0.59003042472E+02  0.34787579948E+02  0.72745793988E+02  0.00000000000E+00 0. -1.
</event>
<event>
 7    1  0.2810263E-009  0.7874977E+02  0.7561462E-02  0.1332637E+00
          2   -1    0    0  501    0  0.00000000000E+00  0.00000000000E+00  0.10337018254E+03  0.10337018254E+03  0.00000000000E+00 0. -1.
         -2   -1    0    0    0  501 -0.00000000000E+00 -0.00000000000E+00 -0.13093334163E+03  0.13093334163E+03  0.00000000000E+00 0.  1.
         25    2    1    2    0    0  0.10408818054E+02 -0.24114461922E+02 -0.43353462098E+02  0.13496557059E+03  0.12508529810E+03 0.  0.
          5    1    3    3  502    0  0.43241597780E+02  0.21972582281E+02  0.17527842507E+02  0.51742901094E+02  0.41800000000E+01 0. -1.
         -5    1    3    3    0  502 -0.32832779726E+02 -0.46087044202E+02 -0.60881304604E+02  0.83222669497E+02  0.41800000000E+01 0. -1.
        -11    1    1    2    0    0  0.77823619858E+01  0.31496284326E+02 -0.33285428006E+02  0.46481187614E+02  0.00000000000E+00 0.  1.
         11    1    1    2    0    0 -0.18191180040E+02 -0.73818224049E+01  0.49075731012E+02  0.52856765958E+02  0.00000000000E+00 0. -1.
</event>
<event>
 7    1  0.2810263E-009  0.3911285E+03  0.7561462E-02  0.1046896E+00
         -2   -1    0    0    0  501 -0.00000000000E+00  0.00000000000E+00  0.14862786650E+04  0.14862786650E+04  0.00000000000E+00 0.  1.
          2   -1    0    0  501    0  0.00000000000E+00 -0.00000000000E+00 -0.13801374728E+03  0.13801374728E+03  0.00000000000E+00 0. -1.
         25    2    1    2    0    0 -0.80739943033E+02 -0.37228986457E+03  0.10698895189E+04  0.11425538426E+04  0.12508804522E+03 0.  0.
          5    1    3    3  502    0 -0.44341856534E+02 -0.27558773912E+02  0.18197880440E+03  0.18936589954E+03  0.41800000000E+01 0.  1.
         -5    1    3    3    0  502 -0.36398086499E+02 -0.34473109066E+03  0.88791071449E+03  0.95318794310E+03  0.41800000000E+01 0.  1.
        -11    1    1    2    0    0  0.48473203694E+02  0.30202255251E+03  0.26188094977E+03  0.40267717287E+03  0.00000000000E+00 0. -1.
         11    1    1    2    0    0  0.32266739339E+02  0.70267312058E+02  0.16494449100E+02  0.79061396791E+02  0.00000000000E+00 0.  1.
</event>
<event>
 7    1  0.2810263E-009  0.1060513E+03  0.7561462E-02  0.1268062E+00
         -1   -1    0    0    0  501 -0.00000000000E+00  0.00000000000E+00  0.71729224407E+02  0.71729224407E+02  0.00000000000E+00 0.  1.
          1   -1    0    0  501    0  0.00000000000E+00 -0.00000000000E+00 -0.40928357792E+03  0.40928357792E+03  0.00000000000E+00 0. -1.
         25    2    1    2    0    0 -0.55662758711E+02  0.10233076767E+02 -0.12110949812E+02  0.13782859422E+03  0.12508791993E+03 0.  0.
          5    1    3    3  502    0 -0.11445652482E+02  0.50458587909E+02  0.34142701019E+02  0.62131058959E+02  0.41800000000E+01 0.  1.
         -5    1    3    3    0  502 -0.44217106230E+02 -0.40225511142E+02 -0.46253650831E+02  0.75697535265E+02  0.41800000000E+01 0.  1.
        -11    1    1    2    0    0  0.35049996850E+02 -0.46695014024E+02 -0.11920649811E+03  0.13273701747E+03  0.00000000000E+00 0.  1.
         11    1    1    2    0    0  0.20612761862E+02  0.36461937257E+02 -0.20623690559E+03  0.21044719064E+03  0.00000000000E+00 0. -1.
</event>
<event>
 7    1  0.2810263E-009  0.1265601E+03  0.7561462E-02  0.1232651E+00
         -2   -1    0    0    0  501 -0.00000000000E+00  0.00000000000E+00  0.72937700796E+02  0.72937700796E+02  0.00000000000E+00 0.  1.
          2   -1    0    0  501    0  0.00000000000E+00 -0.00000000000E+00 -0.30875732493E+03  0.30875732493E+03  0.00000000000E+00 0. -1.
         25    2    1    2    0    0  0.91612363746E+02 -0.50122205740E+02 -0.11905085740E+03  0.20180531662E+03  0.12508884230E+03 0.  0.
          5    1    3    3  502    0 -0.61199994720E+01 -0.31035868252E+02 -0.93673406376E+02  0.98958875164E+02  0.41800000000E+01 0. -1.
         -5    1    3    3    0  502  0.97732363218E+02 -0.19086337489E+02 -0.25377451022E+02  0.10284644145E+03  0.41800000000E+01 0. -1.
        -11    1    1    2    0    0 -0.58396877294E+02  0.63016968936E+02 -0.11587095680E+03  0.14424774619E+03  0.00000000000E+00 0. -1.
         11    1    1    2    0    0 -0.33215486452E+02 -0.12894763196E+02 -0.89780993702E+00  0.35641962920E+02  0.00000000000E+00 0.  1.
</event>
<event>
 7    1  0.2810263E-009  0.1524557E+03  0.7561462E-02  0.1197488E+00
          2   -1    0    0  501    0  0.00000000000E+00  0.00000000000E+00  0.22041333518E+04  0.22041333518E+04  0.00000000000E+00 0.  1.
         -2   -1    0    0    0  501 -0.00000000000E+00 -0.00000000000E+00 -0.15345017168E+02  0.15345017168E+02  0.00000000000E+00 0. -1.
         25    2    1    2    0    0 -0.47937783190E+02 -0.12512786361E+03  0.15286019879E+04  0.15395538183E+04  0.12508760403E+03 0.  0.
          5    1    3    3  502    0 -0.71704383819E+02 -0.41026538929E+02  0.10314395111E+04  0.10347510005E+04  0.41800000000E+01 0.  1.
         -5    1    3    3    0  502  0.23766600629E+02 -0.84101324677E+02  0.49716247673E+03  0.50480281773E+03  0.41800000000E+01 0.  1.
        -11    1    1    2    0    0  0.69544974773E+01  0.79582819561E+01  0.28164677491E+01  0.10937631253E+02  0.00000000000E+00 0. -1.
         11    1    1    2    0    0  0.40983285713E+02  0.11716958165E+03  0.65736987899E+03  0.66898691943E+03  0.00000000000E+00 0.  1.
</event>
<event>
 7    1  0.2810263E-009  0.8451844E+02  0.7561462E-02  0.1316697E+00
         -1   -1    0    0    0  501 -0.00000000000E+00  0.00000000000E+00  0.92935052105E+02  0.92935052105E+02  0.00000000000E+00 0.  1.
          1   -1    0    0  501    0  0.00000000000E+00 -0.00000000000E+00 -0.12642097753E+03  0.12642097753E+03  0.00000000000E+00 0. -1.
         25    2    1    2    0    0  0.40668042449E+02  0.11669223538E+02 -0.25004739788E+02  0.13439647890E+03  0.12508843302E+03 0.  0.
          5    1    3    3  502    0  0.20506319973E+02  0.53952770851E+02  0.27360817994E+02  0.64011697389E+02  0.41800000000E+01 0. -1.
         -5    1    3    3    0  502  0.20161722475E+02 -0.42283547313E+02 -0.52365557782E+02  0.70384781511E+02  0.41800000000E+01 0. -1.
        -11    1    1    2    0    0 -0.46547716612E+02 -0.22585572017E+02  0.18756289884E+02  0.55032684791E+02  0.00000000000E+00 0.  1.
         11    1    1    2    0    0  0.58796741630E+01  0.10916348478E+02 -0.27237475518E+02  0.29926865939E+02  0.00000000000E+00 0. -1.
</event>
<event>
 7    1  0.2810263E-009  0.1550770E+03  0.7561462E-02  0.1194370E+00
         -3   -1    0    0    0  501 -0.00000000000E+00  0.00000000000E+00  0.10491401913E+04  0.10491401913E+04  0.00000000000E+00 0.  1.
          3   -1    0    0  501    0  0.00000000000E+00 -0.00000000000E+00 -0.29851909494E+02  0.29851909494E+02  0.00000000000E+00 0. -1.
         25    2    1    2    0    0  0.72922700311E+02 -0.85226976040E+02  0.79055120952E+03  0.80820833807E+03  0.12509254650E+03 0.  0.
          5    1    3    3  502    0  0.68462867270E+01 -0.97988129803E+02  0.40183929366E+03  0.41369171559E+03  0.41800000000E+01 0. -1.
         -5    1    3    3    0  502  0.66076413584E+02  0.12761153763E+02  0.38871191586E+03  0.39451662247E+03  0.41800000000E+01 0. -1.
        -11    1    1    2    0    0 -0.76147877896E+01  0.78375670844E+02  0.11330898878E+03  0.13798426618E+03  0.00000000000E+00 0.  1.
         11    1    1    2    0    0 -0.65307912521E+02  0.68513051961E+01  0.11542808348E+03  0.13279949652E+03  0.00000000000E+00 0. -1.
</event>
<event>
 7    1  0.2810263E-009  0.1078889E+03  0.7561462E-02  0.1264530E+00
         -1   -1    0    0    0  501 -0.00000000000E+00  0.00000000000E+00  0.57768020195E+02  0.57768020195E+02  0.00000000000E+00 0.  1.
          1   -1    0    0  501    0  0.00000000000E+00 -0.00000000000E+00 -0.28681744571E+03  0.28681744571E+03  0.00000000000E+00 0. -1.
         25    2    1    2    0    0  0.61987540033E+02 -0.14790746676E+02 -0.15809188254E+03  0.21142625251E+03  0.12508715209E+03 0.  0.
          5    1    3    3  502    0  0.42693790383E+02  0.40860515846E+02 -0.22212426166E+02  0.63270891954E+02  0.41800000000E+01 0.  1.
         -5    1    3    3    0  502  0.19293749650E+02 -0.55651262522E+02 -0.13587945638E+03  0.14815536055E+03  0.41800000000E+01 0.  1.
        -11    1    1    2    0    0  0.14664367202E+02 -0.90244577143E+01 -0.45976999807E+02  0.49095509099E+02  0.00000000000E+00 0. -1.
         11    1    1    2    0    0 -0.76651907235E+02  0.23815204391E+02 -0.24980543161E+02  0.84063704293E+02  0.00000000000E+00 0.  1.
</event>
<event>
 7    1  0.2810263E-009  0.2008793E+03  0.7561462E-02  0.1148999E+00
         -1   -1    0    0    0  501 -0.00000000000E+00  0.00000000000E+00  0.56238307055E+02  0.56238307055E+02  0.00000000000E+00 0.  1.
          1   -1    0    0  501    0  0.00000000000E+00 -0.00000000000E+00 -0.11065710043E+04  0.11065710043E+04  0.00000000000E+00 0. -1.
         25    2    1    2    0    0 -0.16036552406E+03 -0.59820394835E+02 -0.87886088446E+03  0.90406822980E+03  0.12508928396E+03 0.  0.
          5    1    3    3  502    0 -0.34714086052E+02 -0.76809603491E+02 -0.38868400419E+03  0.39774050645E+03  0.41800000000E+01 0.  1.
         -5    1    3    3    0  502 -0.12565143801E+03  0.16989208656E+02 -0.49017688027E+03  0.50632772336E+03  0.41800000000E+01 0.  1.
        -11    1    1    2    0    0  0.13610656470E+03  0.11695549868E+02 -0.14309604495E+03  0.19783392258E+03  0.00000000000E+00 0. -1.
         11    1    1    2    0    0  0.24258959364E+02  0.48124844967E+02 -0.28375767800E+02  0.60907158945E+02  0.00000000000E+00 0.  1.
</event>
<event>
 7    1  0.2810263E-009  0.1262700E+03  0.7561462E-02  0.1233098E+00
         -2   -1    0    0    0  501 -0.00000000000E+00  0.00000000000E+00  0.13353943378E+03  0.13353943378E+03  0.00000000000E+00 0.  1.
          2   -1    0    0  501    0  0.00000000000E+00 -0.00000000000E+00 -0.19973003447E+03  0.19973003447E+03  0.00000000000E+00 0. -1.
         25    2    1    2    0    0  0.18515696885E+02  0.10739768837E+03 -0.90021683355E+02  0.18876123830E+03  0.12509918909E+03 0.  0.
          5    1    3    3  502    0  0.32107469063E+02  0.46676346589E+02  0.21701056014E+02  0.60811011607E+02  0.41800000000E+01 0. -1.
         -5    1    3    3    0  502 -0.13591772178E+02  0.60721341782E+02 -0.11172273937E+03  0.12795022669E+03  0.41800000000E+01 0. -1.
        -11    1    1    2    0    0  0.16753601024E+02 -0.94251812138E+02 -0.68134306049E+01  0.95971402382E+02  0.00000000000E+00 0. -1.
         11    1    1    2    0    0 -0.35269297909E+02 -0.13145876234E+02  0.30644513264E+02  0.48536827566E+02  0.00000000000E+00 0.  1.
</event>
<event>
 7    1  0.2810263E-009  0.1083136E+03  0.7561462E-02  0.1263725E+00
         -2   -1    0    0    0  501 -0.00000000000E+00  0.00000000000E+00  0.14588660148E+03  0.14588660148E+03  0.00000000000E+00 0.  1.
          2   -1    0    0  501    0  0.00000000000E+00 -0.00000000000E+00 -0.13215693927E+03  0.13215693927E+03  0.00000000000E+00 0. -1.
         25    2    1    2    0    0  0.68477739030E+02 -0.31564235355E+02 -0.33775349554E+02  0.14991333754E+03  0.12509089831E+03 0.  0.
          5    1    3    3  502    0  0.37065385444E+02 -0.70257634776E+02  0.13976755501E+02  0.80763854148E+02  0.41800000000E+01 0.  1.
         -5    1    3    3    0  502  0.31412353586E+02  0.38693399421E+02 -0.47752105055E+02  0.69149483394E+02  0.41800000000E+01 0.  1.
        -11    1    1    2    0    0 -0.21409696179E+02  0.33728971386E+02 -0.20885300521E+02  0.45080088499E+02  0.00000000000E+00 0. -1.
         11    1    1    2    0    0 -0.47068042851E+02 -0.21647360308E+01  0.68390312278E+02  0.83050114711E+02  0.00000000000E+00 0.  1.
</event>
<event>
 7    1  0.2810263E-009  0.1255022E+03  0.7561462E-02  0.1234287E+00
         -2   -1    0    0    0  501 -0.00000000000E+00  0.00000000000E+00  0.48597740475E+02  0.48597740475E+02  0.00000000000E+00 0.  1.
          2   -1    0    0  501    0  0.00000000000E+00 -0.00000000000E+00 -0.39756361728E+03  0.39756361728E+03  0.00000000000E+00 0. -1.
         25    2    1    2    0    0 -0.27057556898E+02 -0.62910277231E+02 -0.27823601879E+03  0.31265394809E+03  0.12508954688E+03 0.  0.
          5    1    3    3  502    0  0.11461673958E+02 -0.90999356681E+02 -0.15107931295E+03  0.17678994340E+03  0.41800000000E+01 0. -1.
         -5    1    3    3    0  502 -0.38519230856E+02  0.28089079450E+02 -0.12715670584E+03  0.13586400469E+03  0.41800000000E+01 0. -1.
        -11    1    1    2    0    0 -0.78908090611E+01  0.74192099775E+02 -0.58467047035E+02  0.94789915738E+02  0.00000000000E+00 0.  1.
         11    1    1    2    0    0  0.34948365959E+02 -0.11281822544E+02 -0.12262810985E+02  0.38717493932E+02  0.00000000000E+00 0. -1.
</event>
<event>
 7    1  0.2810263E-009  0.1368212E+03  0.7561462E-02  0.1217671E+00
          2   -1    0    0  501    0  0.00000000000E+00  0.00000000000E+00  0.21831965911E+03  0.21831965911E+03  0.00000000000E+00 0. -1.
         -2   -1    0    0    0  501 -0.00000000000E+00 -0.00000000000E+00 -0.14105094314E+03  0.14105094314E+03  0.00000000000E+00 0.  1.
         25    2    1    2    0    0  0.13200247496E+03  0.19592361793E+02  0.10448427864E+02  0.18320683087E+03  0.12508820567E+03 0.  0.
          5    1    3    3  502    0  0.20857200969E+02  0.14563063468E+02  0.56977342292E+02  0.62537953152E+02  0.41800000000E+01 0. -1.
         -5    1    3    3    0  502  0.11114527399E+03  0.50292983246E+01 -0.46528914428E+02  0.12066887772E+03  0.41800000000E+01 0. -1.
        -11    1    1    2    0    0 -0.26267500581E+02 -0.15943684946E+02 -0.22190664129E+02  0.37902615357E+02  0.00000000000E+00 0.  1.
         11    1    1    2    0    0 -0.10573497438E+03 -0.36486768467E+01  0.89010952232E+02  0.13826115603E+03  0.00000000000E+00 0. -1.
</event>
<event>
 7    1  0.2810263E-009  0.1186508E+03  0.7561462E-02  0.1245340E+00
         -2   -1    0    0    0  501 -0.00000000000E+00  0.00000000000E+00  0.36292313653E+02  0.36292313653E+02  0.00000000000E+00 0.  1.
          2   -1    0    0  501    0  0.00000000000E+00 -0.00000000000E+00 -0.12320789295E+04  0.12320789295E+04  0.00000000000E+00 0. -1.
         25    2    1    2    0    0  0.46350503740E+02  0.99602998749E+02 -0.10746944631E+04  0.10875125367E+04  0.12508477857E+03 0.  0.
          5    1    3    3  502    0  0.16050117209E+02  0.56352392426E+02 -0.14693726672E+03  0.15824421363E+03  0.41800000000E+01 0. -1.
         -5    1    3    3    0  502  0.30300386530E+02  0.43250606323E+02 -0.92775719641E+03  0.92926832307E+03  0.41800000000E+01 0. -1.
        -11    1    1    2    0    0 -0.28528199355E+01 -0.76082427664E+02 -0.40323795454E+02  0.86154993243E+02  0.00000000000E+00 0.  1.
         11    1    1    2    0    0 -0.43497683804E+02 -0.23520571085E+02 -0.80768357222E+02  0.94703713174E+02  0.00000000000E+00 0. -1.
</event>
<event>
 7    1  0.2810263E-009  0.1224550E+03  0.7561462E-02  0.1239101E+00
         -1   -1    0    0    0  501 -0.00000000000E+00  0.00000000000E+00  0.82242904719E+02  0.82242904719E+02  0.00000000000E+00 0.  1.
          1   -1    0    0  501    0  0.00000000000E+00 -0.00000000000E+00 -0.29088119038E+03  0.29088119038E+03  0.00000000000E+00 0. -1.
         25    2    1    2    0    0  0.48301121681E+02 -0.95652122644E+02 -0.83996833729E+02  0.18489373094E+03  0.12509155344E+03 0.  0.
          5    1    3    3  502    0  0.24862616992E+02 -0.61801060333E+02 -0.11514846205E+03  0.13309455847E+03  0.41800000000E+01 0.  1.
         -5    1    3    3    0  502  0.23438504688E+02 -0.33851062311E+02  0.31151628320E+02  0.51799172470E+02  0.41800000000E+01 0.  1.
        -11    1    1    2    0    0 -0.64897733645E+02  0.34668216352E+02 -0.43843141198E+02  0.85649413818E+02  0.00000000000E+00 0.  1.
         11    1    1    2    0    0  0.16596611964E+02  0.60983906291E+02 -0.80798310730E+02  0.10258095034E+03  0.00000000000E+00 0. -1.
</event>
<event>
 7    1  0.2810263E-009  0.1635445E+03  0.7561462E-02  0.1184752E+00
          2   -1    0    0  501    0  0.00000000000E+00  0.00000000000E+00  0.53375317455E+03  0.53375317455E+03  0.00000000000E+00 0. -1.
         -2   -1    0    0    0  501 -0.00000000000E+00 -0.00000000000E+00 -0.11312568443E+03  0.11312568443E+03  0.00000000000E+00 0.  1.
         25    2    1    2    0    0  0.29932824973E+02 -0.15849979942E+03  0.41251417788E+03  0.46025306616E+03  0.12508707979E+03 0.  0.
          5    1    3    3  502    0 -0.46452837563E+01 -0.40289528535E+01 -0.79947589706E+01  0.10917861204E+02  0.41800000000E+01 0.  1.
         -5    1    3    3    0  502  0.34578108729E+02 -0.15447084657E+03  0.42050893685E+03  0.44933520496E+03  0.41800000000E+01 0.  1.
        -11    1    1    2    0    0 -0.39873565597E+01  0.23111180598E+02  0.38857822683E+02  0.45386738863E+02  0.00000000000E+00 0. -1.
         11    1    1    2    0    0 -0.25945468413E+02  0.13538861883E+03 -0.30744510447E+02  0.14123905395E+03  0.00000000000E+00 0.  1.
</event>
<event>
 7    1  0.2810263E-009  0.1709946E+03  0.7561462E-02  0.1176815E+00
         -1   -1    0    0    0  501 -0.00000000000E+00  0.00000000000E+00  0.35968240473E+02  0.35968240473E+02  0.00000000000E+00 0.  1.
          1   -1    0    0  501    0  0.00000000000E+00 -0.00000000000E+00 -0.97380866031E+03  0.97380866031E+03  0.00000000000E+00 0. -1.
         25    2    1    2    0    0 -0.87578142704E+02 -0.13660365451E+03 -0.44932907966E+03  0.49383685504E+03  0.12509087921E+03 0.  0.
          5    1    3    3  502    0  0.12744161019E+02 -0.32101342393E+02 -0.21872727465E+03  0.22147686764E+03  0.41800000000E+01 0.  1.
         -5    1    3    3    0  502 -0.10032230372E+03 -0.10450231212E+03 -0.23060180501E+03  0.27235998740E+03  0.41800000000E+01 0.  1.
        -11    1    1    2    0    0  0.18910612980E+02  0.30786204075E+02 -0.69190876931E+02  0.78056255964E+02  0.00000000000E+00 0.  1.
         11    1    1    2    0    0  0.68667529724E+02  0.10581745044E+03 -0.41932046324E+03  0.43788378978E+03  0.00000000000E+00 0. -1.
</event>
<event>
 7    1  0.2810263E-009  0.1878100E+03  0.7561462E-02  0.1160452E+00
          1   -1    0    0  501    0  0.00000000000E+00  0.00000000000E+00  0.10644150469E+04  0.10644150469E+04  0.00000000000E+00 0. -1.
         -1   -1    0    0    0  501 -0.00000000000E+00 -0.00000000000E+00 -0.35611467890E+02  0.35611467890E+02  0.00000000000E+00 0.  1.
         25    2    1    2    0    0  0.37417206562E+02 -0.15246022581E+03  0.63581075162E+03  0.66674219756E+03  0.12508268602E+03 0.  0.
          5    1    3    3  502    0  0.75697872334E+02 -0.13229274569E+03  0.54715063354E+03  0.56799896710E+03  0.41800000000E+01 0.  1.
         -5    1    3    3    0  502 -0.38280665772E+02 -0.20167480114E+02  0.88660118071E+02  0.98743230464E+02  0.41800000000E+01 0.  1.
        -11    1    1    2    0    0 -0.11245596285E+02  0.15308263711E+03  0.30449407192E+03  0.34099471704E+03  0.00000000000E+00 0. -1.
         11    1    1    2    0    0 -0.26171610277E+02 -0.62241130144E+00  0.88498755451E+02  0.92289600155E+02  0.00000000000E+00 0.  1.
</event>
<event>
 7    1  0.2810263E-009  0.1845967E+03  0.7561462E-02  0.1163427E+00
          1   -1    0    0  501    0  0.00000000000E+00  0.00000000000E+00  0.95754837988E+02  0.95754837988E+02  0.00000000000E+00 0. -1.
         -1   -1    0    0    0  501 -0.00000000000E+00 -0.00000000000E+00 -0.46564917707E+03  0.46564917707E+03  0.00000000000E+00 0.  1.
         25    2    1    2    0    0  0.33586267886E+02  0.11863629473E+03 -0.11132473897E+03  0.20795087584E+03  0.12509101262E+03 0.  0.
          5    1    3    3  502    0  0.54776621369E+02  0.77735474051E+02 -0.89445993348E+01  0.95607324153E+02  0.41800000000E+01 0.  1.
         -5    1    3    3    0  502 -0.21190353483E+02  0.40900820677E+02 -0.10238013964E+03  0.11234355169E+03  0.41800000000E+01 0.  1.
        -11    1    1    2    0    0  0.72684872700E+02 -0.60566217793E+01 -0.14207812459E+03  0.15970587614E+03  0.00000000000E+00 0.  1.
         11    1    1    2    0    0 -0.10627114059E+03 -0.11257967295E+03 -0.11649147552E+03  0.19374726308E+03  0.00000000000E+00 0. -1.
</event>
<event>
 7    1  0.2810263E-009  0.1028976E+03  0.7561462E-02  0.1274318E+00
         -2   -1    0    0    0  501 -0.00000000000E+00  0.00000000000E+00  0.12153050031E+03  0.12153050031E+03  0.00000000000E+00 0. -1.
          2   -1    0    0  501    0  0.00000000000E+00 -0.00000000000E+00 -0.13291004814E+03  0.13291004814E+03  0.00000000000E+00 0.  1.
         25    2    1    2    0    0 -0.28884774178E+01 -0.66009185539E+02 -0.47093745858E+01  0.14154773360E+03  0.12509207329E+03 0.  0.
          5    1    3    3  502    0  0.61383407593E+00  0.35949424614E+02 -0.14461390015E+02  0.38978739378E+02  0.41800000000E+01 0. -1.
         -5    1    3    3    0  502 -0.35023114937E+01 -0.10195861015E+03  0.97520154291E+01  0.10256899422E+03  0.41800000000E+01 0. -1.
        -11    1    1    2    0    0 -0.54081659946E+01  0.18841550629E+02 -0.46589663945E+02  0.50545514896E+02  0.00000000000E+00 0.  1.
         11    1    1    2    0    0  0.82966434123E+01  0.47167634910E+02  0.39919490695E+02  0.62347299960E+02  0.00000000000E+00 0. -1.
</event>
<event>
 7    1  0.2810263E-009  0.2594453E+03  0.7561462E-02  0.1107477E+00
          1   -1    0    0  501    0  0.00000000000E+00  0.00000000000E+00  0.10785678901E+04  0.10785678901E+04  0.00000000000E+00 0. -1.
         -1   -1    0    0    0  501 -0.00000000000E+00 -0.00000000000E+00 -0.72099972414E+02  0.72099972414E+02  0.00000000000E+00 0.  1.
         25    2    1    2    0    0  0.10303158987E+03  0.23518860076E+03  0.51486891918E+03  0.58878236230E+03  0.12508189228E+03 0.  0.
          5    1    3    3  502    0  0.10196673249E+03  0.21312072221E+03  0.34944698373E+03  0.42183921535E+03  0.41800000000E+01 0.  1.
         -5    1    3    3    0  502  0.10648573815E+01  0.22067878553E+02  0.16542193545E+03  0.16694314695E+03  0.41800000000E+01 0.  1.
        -11    1    1    2    0    0 -0.52357079300E+02 -0.70587014334E+02  0.94519312991E+02  0.12906467710E+03  0.00000000000E+00 0.  1.
         11    1    1    2    0    0 -0.50674510573E+02 -0.16460158643E+03  0.39707968549E+03  0.43282082309E+03  0.00000000000E+00 0. -1.
</event>
<event>
 7    1  0.2810263E-009  0.1119635E+03  0.7561462E-02  0.1256976E+00
          1   -1    0    0  501    0  0.00000000000E+00  0.00000000000E+00  0.66480302161E+03  0.66480302161E+03  0.00000000000E+00 0. -1.
         -1   -1    0    0    0  501 -0.00000000000E+00 -0.00000000000E+00 -0.25147477290E+02  0.25147477290E+02  0.00000000000E+00 0.  1.
         25    2    1    2    0    0  0.15106800025E+02  0.69033135552E+02  0.35788388981E+03  0.38564376898E+03  0.12508576559E+03 0.  0.
          5    1    3    3  502    0  0.43558558563E+02  0.96317169748E+01  0.37190167672E+02  0.58229708632E+02  0.41800000000E+01 0.  1.
         -5    1    3    3    0  502 -0.28451758537E+02  0.59401418578E+02  0.32069372214E+03  0.32741406035E+03  0.41800000000E+01 0.  1.
        -11    1    1    2    0    0  0.32168392816E+02 -0.55162025677E+02  0.13189462232E+03  0.14653957135E+03  0.00000000000E+00 0.  1.
         11    1    1    2    0    0 -0.47275192841E+02 -0.13871109875E+02  0.14987703219E+03  0.15776715857E+03  0.00000000000E+00 0. -1.
</event>
<event>
 7    1  0.2810263E-009  0.1762137E+03  0.7561462E-02  0.1171519E+00
          2   -1    0    0  501    0  0.00000000000E+00  0.00000000000E+00  0.46925402996E+03  0.46925402996E+03  0.00000000000E+00 0. -1.
         -2   -1    0    0    0  501 -0.00000000000E+00 -0.00000000000E+00 -0.92443857930E+02  0.92443857930E+02  0.00000000000E+00 0.  1.
         25    2    1    2    0    0  0.85093195856E+02  0.11906926452E+03  0.33295678878E+03  0.38461145160E+03  0.12508958299E+03 0.  0.
          5    1    3    3  502    0  0.98664068823E+02  0.50625628764E+02  0.13547978469E+03  0.17512794530E+03  0.41800000000E+01 0. -1.
         -5    1    3    3    0  502 -0.13570872967E+02  0.68443635758E+02  0.19747700409E+03  0.20948350630E+03  0.41800000000E+01 0. -1.
        -11    1    1    2    0    0 -0.70378957161E+02 -0.22527378151E+02  0.17639430800E+02  0.75972560154E+02  0.00000000000E+00 0. -1.
         11    1    1    2    0    0 -0.14714238696E+02 -0.96541886371E+02  0.26213952452E+02  0.10111387614E+03  0.00000000000E+00 0.  1.
</event>
<event>
 7    1  0.4246529E-009  0.9499380E+02  0.7561462E-02  0.1291190E+00
         -2   -1    0    0    0  501 -0.00000000000E+00  0.00000000000E+00  0.60667297854E+02  0.60667297854E+02  0.00000000000E+00 0.  1.
          2   -1    0    0  501    0  0.00000000000E+00 -0.00000000000E+00 -0.27835718867E+03  0.27835718867E+03  0.00000000000E+00 0. -1.
         25    2    1    2    0    0 -0.68322704425E+01  0.44117815290E+02 -0.19399712882E+03  0.23511411999E+03  0.12510276528E+03 0.  0.
          5    1    3    3  502    0 -0.16947751523E+02 -0.30821106954E+02 -0.11039793098E+02  0.37101433223E+02  0.41800000000E+01 0. -1.
         -5    1    3    3    0  502  0.10115481080E+02  0.74938922244E+02 -0.18295733572E+03  0.19801268676E+03  0.41800000000E+01 0. -1.
        -11    1    1    2    0    0 -0.24127319473E+02  0.96091029364E+00 -0.40106178396E+02  0.46814062407E+02  0.00000000000E+00 0. -1.
         11    1    1    2    0    0  0.30959589916E+02 -0.45078725584E+02  0.16413416397E+02  0.57096304135E+02  0.00000000000E+00 0.  1.
</event>
<event>
 7    1  0.2810263E-009  0.1274371E+03  0.7561462E-02  0.1231309E+00
         -2   -1    0    0    0  501 -0.00000000000E+00  0.00000000000E+00  0.44165441598E+03  0.44165441598E+03  0.00000000000E+00 0.  1.
          2   -1    0    0  501    0  0.00000000000E+00 -0.00000000000E+00 -0.47842748625E+02  0.47842748625E+02  0.00000000000E+00 0. -1.
         25    2    1    2    0    0 -0.69335096534E+02  0.40859315528E+02  0.12132039200E+03  0.19194785647E+03  0.12509397592E+03 0.  0.
          5    1    3    3  502    0 -0.86633339157E+02  0.69294570304E+02  0.11066230848E+03  0.15675041258E+03  0.41800000000E+01 0. -1.
         -5    1    3    3    0  502  0.17298242622E+02 -0.28435254777E+02  0.10658083525E+02  0.35197443891E+02  0.41800000000E+01 0. -1.
        -11    1    1    2    0    0  0.55805010603E+02 -0.63127310087E+02  0.14748254140E+03  0.16985392697E+03  0.00000000000E+00 0. -1.
         11    1    1    2    0    0  0.13530085931E+02  0.22267994559E+02  0.12500873395E+03  0.12769538117E+03  0.00000000000E+00 0.  1.
</event>
<event>
 7    1  0.2810263E-009  0.2203633E+03  0.7561462E-02  0.1133613E+00
         -2   -1    0    0    0  501 -0.00000000000E+00  0.00000000000E+00  0.12604438110E+03  0.12604438110E+03  0.00000000000E+00 0.  1.
          2   -1    0    0  501    0  0.00000000000E+00 -0.00000000000E+00 -0.41688441032E+03  0.41688441032E+03  0.00000000000E+00 0. -1.
         25    2    1    2    0    0  0.19455839335E+03  0.21544829658E+02 -0.20688057786E+03  0.31106484052E+03  0.12507842900E+03 0.  0.
          5    1    3    3  502    0  0.94516030063E+02 -0.49352420356E+02 -0.12086041992E+03  0.16122547825E+03  0.41800000000E+01 0. -1.
         -5    1    3    3    0  502  0.10004236329E+03  0.70897250014E+02 -0.86020157936E+02  0.14983936226E+03  0.41800000000E+01 0. -1.
        -11    1    1    2    0    0 -0.78913324574E+02  0.30386188999E+02 -0.10139901461E+02  0.85167193677E+02  0.00000000000E+00 0.  1.
         11    1    1    2    0    0 -0.11564506878E+03 -0.51931018656E+02 -0.73819549897E+02  0.14669675722E+03  0.00000000000E+00 0. -1.
</event>
<event>
 7    1  0.2810263E-009  0.8599939E+02  0.7561462E-02  0.1312840E+00
          2   -1    0    0  501    0  0.00000000000E+00  0.00000000000E+00  0.15929534976E+03  0.15929534976E+03  0.00000000000E+00 0. -1.
         -2   -1    0    0    0  501 -0.00000000000E+00 -0.00000000000E+00 -0.12301452555E+03  0.12301452555E+03  0.00000000000E+00 0.  1.
         25    2    1    2    0    0  0.45564215147E+02  0.27262861642E+02 -0.53294395103E+02  0.14597029602E+03  0.12509066090E+03 0.  0.
          5    1    3    3  502    0  0.10913695651E+02  0.48156196999E+02  0.26654718720E+02  0.56267881533E+02  0.41800000000E+01 0. -1.
         -5    1    3    3    0  502  0.34650519496E+02 -0.20893335356E+02 -0.79949113824E+02  0.89702414487E+02  0.41800000000E+01 0. -1.
        -11    1    1    2    0    0 -0.85497926214E+01  0.19990830187E+02  0.69851735364E+02  0.73157345351E+02  0.00000000000E+00 0. -1.
         11    1    1    2    0    0 -0.37014422525E+02 -0.47253691829E+02  0.19723483956E+02  0.63182233941E+02  0.00000000000E+00 0.  1.
</event>
<event>
 7    1  0.2810263E-009  0.1869339E+03  0.7561462E-02  0.1161256E+00
          2   -1    0    0  501    0  0.00000000000E+00  0.00000000000E+00  0.35429095816E+03  0.35429095816E+03  0.00000000000E+00 0.  1.
         -2   -1    0    0    0  501 -0.00000000000E+00 -0.00000000000E+00 -0.18206492536E+03  0.18206492536E+03  0.00000000000E+00 0. -1.
         25    2    1    2    0    0  0.16556250398E+03  0.17562969277E+02  0.25514847640E+03  0.32934339283E+03  0.12508766836E+03 0.  0.
          5    1    3    3  502    0  0.25956085476E+02  0.55128895839E+02  0.53541090523E+02  0.81222129398E+02  0.41800000000E+01 0. -1.
         -5    1    3    3    0  502  0.13960641850E+03 -0.37565926562E+02  0.20160738588E+03  0.24812126343E+03  0.41800000000E+01 0. -1.
        -11    1    1    2    0    0 -0.15185078411E+02 -0.87433742284E+01 -0.49779886306E+02  0.52773765072E+02  0.00000000000E+00 0. -1.
         11    1    1    2    0    0 -0.15037742557E+03 -0.88195950483E+01 -0.33142557302E+02  0.15423872562E+03  0.00000000000E+00 0.  1.
</event>
<event>
 7    1  0.2810263E-009  0.2657840E+03  0.7561462E-02  0.1103717E+00
         -3   -1    0    0    0  501 -0.00000000000E+00  0.00000000000E+00  0.54649911917E+03  0.54649911917E+03  0.00000000000E+00 0.  1.
          3   -1    0    0  501    0  0.00000000000E+00 -0.00000000000E+00 -0.17630963280E+03  0.17630963280E+03  0.00000000000E+00 0. -1.
         25    2    1    2    0    0  0.31936064769E+02  0.25014922475E+03  0.20512789740E+02  0.28223961860E+03  0.12507550075E+03 0.  0.
          5    1    3    3  502    0  0.75107127627E+02  0.11918552186E+03  0.29481843365E+02  0.14398930769E+03  0.41800000000E+01 0.  1.
         -5    1    3    3    0  502 -0.43171062858E+02  0.13096370289E+03 -0.89690536250E+01  0.13825031091E+03  0.41800000000E+01 0.  1.
        -11    1    1    2    0    0 -0.12073572625E+02 -0.15501834956E+03  0.13900929403E+03  0.20856664087E+03  0.00000000000E+00 0. -1.
         11    1    1    2    0    0 -0.19862492144E+02 -0.95130875192E+02  0.21066740260E+03  0.23200249250E+03  0.00000000000E+00 0.  1.
</event>
<event>
 7    1  0.2810263E-009  0.5660016E+02  0.7561462E-02  0.1412680E+00
          2   -1    0    0  501    0  0.00000000000E+00  0.00000000000E+00  0.46418217210E+03  0.46418217210E+03  0.00000000000E+00 0. -1.
         -2   -1    0    0    0  501 -0.00000000000E+00 -0.00000000000E+00 -0.25690338330E+02  0.25690338330E+02  0.00000000000E+00 0.  1.
         25    2    1    2    0    0 -0.74465613237E+01  0.47759820775E+01  0.27165001858E+03  0.29919845004E+03  0.12509084152E+03 0.  0.
          5    1    3    3  502    0 -0.19715365907E+01 -0.23287594181E+02 -0.21858204419E+01  0.23842172935E+02  0.41800000000E+01 0. -1.
         -5    1    3    3    0  502 -0.54750247329E+01  0.28063576258E+02  0.27383583902E+03  0.27535627710E+03  0.41800000000E+01 0. -1.
        -11    1    1    2    0    0 -0.22375980546E+02  0.12965728723E+02  0.14979708821E+03  0.15201303320E+03  0.00000000000E+00 0. -1.
         11    1    1    2    0    0  0.29822541870E+02 -0.17741710801E+02  0.17044726985E+02  0.38661027194E+02  0.00000000000E+00 0.  1.
</event>
<event>
 7    1  0.2810263E-009  0.9037951E+02  0.7561462E-02  0.1301935E+00
          2   -1    0    0  501    0  0.00000000000E+00  0.00000000000E+00  0.32846016657E+03  0.32846016657E+03  0.00000000000E+00 0. -1.
         -2   -1    0    0    0  501 -0.00000000000E+00 -0.00000000000E+00 -0.49000609973E+02  0.49000609973E+02  0.00000000000E+00 0.  1.
         25    2    1    2    0    0 -0.29493033307E+02 -0.30424373919E+02  0.93114821049E+02  0.16159478670E+03  0.12508806357E+03 0.  0.
          5    1    3    3  502    0 -0.28811675563E+02 -0.46689374989E+02 -0.11017521829E+02  0.56114780342E+02  0.41800000000E+01 0. -1.
         -5    1    3    3    0  502 -0.68135774460E+00  0.16265001070E+02  0.10413234288E+03  0.10548000636E+03  0.41800000000E+01 0. -1.
        -11    1    1    2    0    0 -0.35228487427E+02  0.26510865977E+02  0.78223135859E+02  0.89792713094E+02  0.00000000000E+00 0. -1.
         11    1    1    2    0    0  0.64721520734E+02  0.39135079416E+01  0.10812159969E+03  0.12607327675E+03  0.00000000000E+00 0.  1.
</event>
<event>
 7    1  0.2810263E-009  0.1445531E+03  0.7561462E-02  0.1207330E+00
         -2   -1    0    0    0  501 -0.00000000000E+00  0.00000000000E+00  0.25598250667E+02  0.25598250667E+02  0.00000000000E+00 0. -1.
          2   -1    0    0  501    0  0.00000000000E+00 -0.00000000000E+00 -0.10808677935E+04  0.10808677935E+04  0.00000000000E+00 0.  1.
         25    2    1    2    0    0  0.12045542640E+03  0.48585276723E+01 -0.67413620621E+03  0.69616112589E+03  0.12509026195E+03 0.  0.
          5    1    3    3  502    0 -0.54235226031E+01  0.12148633834E+02 -0.43663631776E+01  0.14613056794E+02  0.41800000000E+01 0. -1.
         -5    1    3    3    0  502  0.12587894900E+03 -0.72901061622E+01 -0.66976984304E+03  0.68154806910E+03  0.41800000000E+01 0. -1.
        -11    1    1    2    0    0 -0.41245667822E+02 -0.44288865555E+02 -0.19568131602E+03  0.20482647819E+03  0.00000000000E+00 0.  1.
         11    1    1    2    0    0 -0.79209758577E+02  0.39430337883E+02 -0.18545202063E+03  0.20547844013E+03  0.00000000000E+00 0. -1.
</event>
<event>
 7    1  0.2810263E-009  0.2606923E+03  0.7561462E-02  0.1106728E+00
          1   -1    0    0  501    0  0.00000000000E+00  0.00000000000E+00  0.58152620988E+03  0.58152620988E+03  0.00000000000E+00 0. -1.
         -1   -1    0    0    0  501 -0.00000000000E+00 -0.00000000000E+00 -0.13682261101E+03  0.13682261101E+03  0.00000000000E+00 0.  1.
         25    2    1    2    0    0  0.26743797304E+02 -0.24429469992E+03  0.12077654325E+03  0.30104608885E+03  0.12508654248E+03 0.  0.
          5    1    3    3  502    0  0.65432208392E+02 -0.81405656313E+02  0.70902569799E+02  0.12630479634E+03  0.41800000000E+01 0.  1.
         -5    1    3    3    0  502 -0.38688411088E+02 -0.16288904361E+03  0.49873973447E+02  0.17474129251E+03  0.41800000000E+01 0.  1.
        -11    1    1    2    0    0 -0.37469634935E+02  0.15575214144E+03  0.13941892926E+03  0.21236840853E+03  0.00000000000E+00 0.  1.
         11    1    1    2    0    0  0.10725837631E+02  0.88542558476E+02  0.18450812636E+03  0.20493432350E+03  0.00000000000E+00 0. -1.
</event>
<event>
 7    1  0.2810263E-009  0.8870882E+02  0.7561462E-02  0.1306009E+00
         -3   -1    0    0    0  501 -0.00000000000E+00  0.00000000000E+00  0.13704379781E+03  0.13704379781E+03  0.00000000000E+00 0.  1.
          3   -1    0    0  501    0  0.00000000000E+00 -0.00000000000E+00 -0.11537942665E+03  0.11537942665E+03  0.00000000000E+00 0. -1.
         25    2    1    2    0    0  0.61742878585E+02 -0.84971211848E+01  0.80985937199E+00  0.13975496971E+03  0.12508561693E+03 0.  0.
          5    1    3    3  502    0  0.19320298353E+02  0.89807997885E+01 -0.59801622420E+02  0.63621027478E+02  0.41800000000E+01 0.  1.
         -5    1    3    3    0  502  0.42422580231E+02 -0.17477920973E+02  0.60611481792E+02  0.76133942234E+02  0.41800000000E+01 0.  1.
        -11    1    1    2    0    0 -0.22162511625E+02  0.48521884681E+02  0.22791566012E+01  0.53392366208E+02  0.00000000000E+00 0.  1.
         11    1    1    2    0    0 -0.39580366959E+02 -0.40024763496E+02  0.18575355183E+02  0.59275888536E+02  0.00000000000E+00 0. -1.
</event>
<event>
 7    1  0.2810263E-009  0.9565916E+02  0.7561462E-02  0.1289698E+00
         -1   -1    0    0    0  501 -0.00000000000E+00  0.00000000000E+00  0.33231560821E+02  0.33231560821E+02  0.00000000000E+00 0.  1.
          1   -1    0    0  501    0  0.00000000000E+00 -0.00000000000E+00 -0.51184996312E+03  0.51184996312E+03  0.00000000000E+00 0. -1.
         25    2    1    2    0    0 -0.16247583901E+02 -0.35709447011E+02 -0.40216861528E+03  0.42299582814E+03  0.12508687747E+03 0.  0.
          5    1    3    3  502    0 -0.15466570339E+02 -0.65433512396E+02 -0.10792667590E+03  0.12722578007E+03  0.41800000000E+01 0. -1.
         -5    1    3    3    0  502 -0.78101356298E+00  0.29724065385E+02 -0.29424193938E+03  0.29577004807E+03  0.41800000000E+01 0. -1.
        -11    1    1    2    0    0  0.16129180158E+02 -0.26873469571E+02 -0.35198580513E+02  0.47130392418E+02  0.00000000000E+00 0. -1.
         11    1    1    2    0    0  0.11840374348E+00  0.62582916582E+02 -0.41251206503E+02  0.74955303384E+02  0.00000000000E+00 0.  1.
</event>
<event>
 7    1  0.2810263E-009  0.1244027E+03  0.7561462E-02  0.1236006E+00
         -2   -1    0    0    0  501 -0.00000000000E+00  0.00000000000E+00  0.31375717128E+02  0.31375717128E+02  0.00000000000E+00 0.  1.
          2   -1    0    0  501    0  0.00000000000E+00 -0.00000000000E+00 -0.82368233153E+03  0.82368233153E+03  0.00000000000E+00 0. -1.
         25    2    1    2    0    0  0.41416731238E+02  0.10102117429E+03 -0.54347234441E+03  0.56826934277E+03  0.12508890245E+03 0.  0.
          5    1    3    3  502    0  0.43016210461E+02  0.48420484355E+02 -0.85903755161E+02  0.10766552474E+03  0.41800000000E+01 0.  1.
         -5    1    3    3    0  502 -0.15994792232E+01  0.52600689940E+02 -0.45756858925E+03  0.46060381803E+03  0.41800000000E+01 0.  1.
        -11    1    1    2    0    0 -0.68957801887E+01  0.11502752366E+02 -0.23107998091E+01  0.13609000410E+02  0.00000000000E+00 0.  1.
         11    1    1    2    0    0 -0.34520951049E+02 -0.11252392666E+03 -0.24652347018E+03  0.27317970547E+03  0.00000000000E+00 0. -1.
</event>
<event>
 7    1  0.2810263E-009  0.2955506E+03  0.7561462E-02  0.1087486E+00
          2   -1    0    0  501    0  0.00000000000E+00  0.00000000000E+00  0.28905427000E+03  0.28905427000E+03  0.00000000000E+00 0. -1.
         -2   -1    0    0    0  501 -0.00000000000E+00 -0.00000000000E+00 -0.30236282230E+03  0.30236282230E+03  0.00000000000E+00 0.  1.
         25    2    1    2    0    0  0.13372933956E+03 -0.23984735501E+03 -0.11568138778E+02  0.30197860927E+03  0.12508784375E+03 0.  0.
          5    1    3    3  502    0 -0.24458506252E+02 -0.35031405965E+02 -0.11801826981E+01  0.42945118036E+02  0.41800000000E+01 0.  1.
         -5    1    3    3    0  502  0.15818784582E+03 -0.20481594905E+03 -0.10387956080E+02  0.25903349123E+03  0.41800000000E+01 0.  1.
        -11    1    1    2    0    0 -0.10658437917E+03  0.97557633610E+02 -0.44000517296E+01  0.14455823122E+03  0.00000000000E+00 0.  1.
         11    1    1    2    0    0 -0.27144960395E+02  0.14228972140E+03  0.26596382098E+01  0.14488025182E+03  0.00000000000E+00 0. -1.
</event>
<event>
 7    1  0.2810263E-009  0.1700039E+03  0.7561462E-02  0.1177844E+00
          1   -1    0    0  501    0  0.00000000000E+00  0.00000000000E+00  0.64945858611E+03  0.64945858611E+03  0.00000000000E+00 0. -1.
         -1   -1    0    0    0  501 -0.00000000000E+00 -0.00000000000E+00 -0.62394599304E+02  0.62394599304E+02  0.00000000000E+00 0.  1.
         25    2    1    2    0    0  0.14780486403E+03  0.41947518036E+02  0.43327890194E+03  0.47642820779E+03  0.12508940087E+03 0.  0.
          5    1    3    3  502    0  0.60029498469E+02 -0.31766555072E+02  0.25902348768E+03  0.26781205028E+03  0.41800000000E+01 0.  1.
         -5    1    3    3    0  502  0.87775365558E+02  0.73714073108E+02  0.17425541426E+03  0.20861615751E+03  0.41800000000E+01 0.  1.
        -11    1    1    2    0    0 -0.11888954736E+03 -0.19105073599E+02  0.15764664492E+03  0.19837387167E+03  0.00000000000E+00 0. -1.
         11    1    1    2    0    0 -0.28915316669E+02 -0.22842444437E+02 -0.38615600587E+01  0.37051105948E+02  0.00000000000E+00 0.  1.
</event>
<event>
 7    1  0.2810263E-009  0.1223538E+03  0.7561462E-02  0.1239264E+00
          2   -1    0    0  501    0  0.00000000000E+00  0.00000000000E+00  0.51700398678E+03  0.51700398678E+03  0.00000000000E+00 0. -1.
         -2   -1    0    0    0  501 -0.00000000000E+00 -0.00000000000E+00 -0.56896037551E+02  0.56896037551E+02  0.00000000000E+00 0.  1.
         25    2    1    2    0    0  0.60886900094E+02  0.45262916316E+02  0.62471088529E+02  0.15907705445E+03  0.12508767387E+03 0.  0.
          5    1    3    3  502    0 -0.26435753209E+02 -0.22883855117E+02  0.18998293483E+02  0.40011591171E+02  0.41800000000E+01 0.  1.
         -5    1    3    3    0  502  0.87322653303E+02  0.68146771433E+02  0.43472795046E+02  0.11906546328E+03  0.41800000000E+01 0.  1.
        -11    1    1    2    0    0 -0.31063238166E+02  0.12624279438E+02  0.44424547033E+02  0.55658221098E+02  0.00000000000E+00 0.  1.
         11    1    1    2    0    0 -0.29823661928E+02 -0.57887195754E+02  0.35321231367E+03  0.35916474879E+03  0.00000000000E+00 0. -1.
</event>
<event>
 7    1  0.2810263E-009  0.1202206E+03  0.7561462E-02  0.1242734E+00
         -1   -1    0    0    0  501 -0.00000000000E+00  0.00000000000E+00  0.34295131296E+02  0.34295131296E+02  0.00000000000E+00 0.  1.
          1   -1    0    0  501    0  0.00000000000E+00 -0.00000000000E+00 -0.42602107500E+03  0.42602107500E+03  0.00000000000E+00 0. -1.
         25    2    1    2    0    0  0.48372135277E+02  0.20360287819E+02 -0.22676544314E+03  0.26424433036E+03  0.12509234643E+03 0.  0.
          5    1    3    3  502    0 -0.35221377221E+02 -0.22113375323E+02 -0.70111296945E+02  0.81624831643E+02  0.41800000000E+01 0.  1.
         -5    1    3    3    0  502  0.83593512498E+02  0.42473663142E+02 -0.15665414620E+03  0.18261949872E+03  0.41800000000E+01 0.  1.
        -11    1    1    2    0    0 -0.47757989144E+02  0.28702245970E+02 -0.72939233664E+02  0.91786579947E+02  0.00000000000E+00 0.  1.
         11    1    1    2    0    0 -0.61414613303E+00 -0.49062533789E+02 -0.92021266903E+02  0.10428529599E+03  0.00000000000E+00 0. -1.
</event>
<event>
 7    1  0.2810263E-009  0.9570446E+02  0.7561462E-02  0.1289597E+00
         -1   -1    0    0    0  501 -0.00000000000E+00  0.00000000000E+00  0.44090591407E+02  0.44090591407E+02  0.00000000000E+00 0.  1.
          1   -1    0    0  501    0  0.00000000000E+00 -0.00000000000E+00 -0.61941005082E+03  0.61941005082E+03  0.00000000000E+00 0. -1.
         25    2    1    2    0    0 -0.12430652579E+02  0.51073259183E+02 -0.53719332973E+03  0.55406320312E+03  0.12508541329E+03 0.  0.
          5    1    3    3  502    0 -0.63037439137E+02  0.53392904263E+02 -0.37827845647E+03  0.38721645625E+03  0.41800000000E+01 0. -1.
         -5    1    3    3    0  502  0.50606786558E+02 -0.23196450805E+01 -0.15891487326E+03  0.16684674687E+03  0.41800000000E+01 0. -1.
        -11    1    1    2    0    0  0.36824120981E+00 -0.43744901409E+02 -0.65426540802E+02  0.78704410564E+02  0.00000000000E+00 0. -1.
         11    1    1    2    0    0  0.12062411370E+02 -0.73283577738E+01  0.27300411123E+02  0.30733028539E+02  0.00000000000E+00 0.  1.
</event>
<event>
 7    1  0.2810263E-009  0.9109215E+02  0.7561462E-02  0.1300228E+00
          2   -1    0    0  501    0  0.00000000000E+00  0.00000000000E+00  0.41700956345E+02  0.41700956345E+02  0.00000000000E+00 0. -1.
         -2   -1    0    0    0  501 -0.00000000000E+00 -0.00000000000E+00 -0.35310798483E+03  0.35310798483E+03  0.00000000000E+00 0.  1.
         25    2    1    2    0    0 -0.30715593372E+02 -0.46877354853E+01 -0.97939487272E+02  0.16188001876E+03  0.12509026647E+03 0.  0.
          5    1    3    3  502    0  0.11577601673E+02 -0.48554964580E+02 -0.45582473689E+01  0.50297867399E+02  0.41800000000E+01 0. -1.
         -5    1    3    3    0  502 -0.42293195045E+02  0.43867229095E+02 -0.93381239903E+02  0.11158215136E+03  0.41800000000E+01 0. -1.
        -11    1    1    2    0    0  0.27584691111E+02  0.32727199366E+02 -0.19396362475E+03  0.19862998889E+03  0.00000000000E+00 0.  1.
         11    1    1    2    0    0  0.31309022607E+01 -0.28039463880E+02 -0.19503916469E+02  0.34298933530E+02  0.00000000000E+00 0. -1.
</event>
<event>
 7    1  0.2810263E-009  0.1297136E+03  0.7561462E-02  0.1227881E+00
          2   -1    0    0  501    0  0.00000000000E+00  0.00000000000E+00  0.67154680060E+03  0.67154680060E+03  0.00000000000E+00 0. -1.
         -2   -1    0    0    0  501 -0.00000000000E+00 -0.00000000000E+00 -0.32070301498E+02  0.32070301498E+02  0.00000000000E+00 0.  1.
         25    2    1    2    0    0 -0.69798549785E+02 -0.65274337083E+02  0.27866953284E+03  0.32005742631E+03  0.12508985158E+03 0.  0.
          5    1    3    3  502    0 -0.10575159099E+03 -0.50469671387E+02  0.19195449511E+03  0.22493240611E+03  0.41800000000E+01 0.  1.
         -5    1    3    3    0  502  0.35953041206E+02 -0.14804665697E+02  0.86715037733E+02  0.95125020197E+02  0.41800000000E+01 0.  1.
        -11    1    1    2    0    0  0.41941296495E+02  0.13127297727E+02  0.47454501761E+02  0.64678652079E+02  0.00000000000E+00 0.  1.
         11    1    1    2    0    0  0.27857253290E+02  0.52147039356E+02  0.31335246450E+03  0.31888102371E+03  0.00000000000E+00 0. -1.
</event>
<event>
 7    1  0.2810263E-009  0.1743704E+03  0.7561462E-02  0.1173365E+00
         -3   -1    0    0    0  501 -0.00000000000E+00  0.00000000000E+00  0.33171013957E+03  0.33171013957E+03  0.00000000000E+00 0.  1.
          3   -1    0    0  501    0  0.00000000000E+00 -0.00000000000E+00 -0.10859459789E+03  0.10859459789E+03  0.00000000000E+00 0. -1.
         25    2    1    2    0    0  0.57496692868E+02  0.13038815145E+03  0.17184641501E+03  0.25590202955E+03  0.12509084158E+03 0.  0.
          5    1    3    3  502    0  0.85456298738E+02  0.95214519461E+02  0.73286279188E+02  0.14750232143E+03  0.41800000000E+01 0.  1.
         -5    1    3    3    0  502 -0.27959605871E+02  0.35173631985E+02  0.98560135818E+02  0.10839970812E+03  0.41800000000E+01 0.  1.
        -11    1    1    2    0    0 -0.99695907577E+01  0.17570399821E+02 -0.15655290547E+01  0.20262343670E+02  0.00000000000E+00 0.  1.
         11    1    1    2    0    0 -0.47527102110E+02 -0.14795855127E+03  0.52834655728E+02  0.16414036424E+03  0.00000000000E+00 0. -1.
</event>
<event>
 7    1  0.2810263E-009  0.1884745E+03  0.7561462E-02  0.1159844E+00
         -3   -1    0    0    0  501 -0.00000000000E+00  0.00000000000E+00  0.16322932816E+02  0.16322932816E+02  0.00000000000E+00 0.  1.
          3   -1    0    0  501    0  0.00000000000E+00 -0.00000000000E+00 -0.24635937875E+04  0.24635937875E+04  0.00000000000E+00 0. -1.
         25    2    1    2    0    0  0.37194836119E+02  0.15957933359E+03 -0.14954115046E+04  0.15095534868E+04  0.12508853692E+03 0.  0.
          5    1    3    3  502    0 -0.33145327631E+02  0.32447056381E+02 -0.65591643640E+03  0.65756769093E+03  0.41800000000E+01 0.  1.
         -5    1    3    3    0  502  0.70340163750E+02  0.12713227721E+03 -0.83949506816E+03  0.85198579590E+03  0.41800000000E+01 0.  1.
        -11    1    1    2    0    0 -0.52878220147E+02 -0.45170758896E+02 -0.27104855201E+03  0.27982819938E+03  0.00000000000E+00 0. -1.
         11    1    1    2    0    0  0.15683384028E+02 -0.11440857469E+03 -0.68081079807E+03  0.69053503406E+03  0.00000000000E+00 0.  1.
</event>
<event>
 7    1  0.2810263E-009  0.1587249E+03  0.7561462E-02  0.1190144E+00
          2   -1    0    0  501    0  0.00000000000E+00  0.00000000000E+00  0.15103915207E+04  0.15103915207E+04  0.00000000000E+00 0. -1.
         -2   -1    0    0    0  501 -0.00000000000E+00 -0.00000000000E+00 -0.33643805994E+02  0.33643805994E+02  0.00000000000E+00 0.  1.
         25    2    1    2    0    0 -0.49007401623E+01 -0.13954575090E+03  0.12385440114E+04  0.12526517553E+04  0.12509243811E+03 0.  0.
          5    1    3    3  502    0 -0.31789762114E+02 -0.11988691922E+03  0.57408793550E+03  0.58734818674E+03  0.41800000000E+01 0.  1.
         -5    1    3    3    0  502  0.26889021952E+02 -0.19658831676E+02  0.66445607586E+03  0.66530356854E+03  0.41800000000E+01 0.  1.
        -11    1    1    2    0    0 -0.35643384644E+02  0.81729439612E+02  0.17591729791E+03  0.19722334515E+03  0.00000000000E+00 0. -1.
         11    1    1    2    0    0  0.40544124806E+02  0.57816311283E+02  0.62286405404E+02  0.94160226236E+02  0.00000000000E+00 0.  1.
</event>
<event>
 7    1  0.2810263E-009  0.1062149E+03  0.7561462E-02  0.1267744E+00
         -1   -1    0    0    0  501 -0.00000000000E+00  0.00000000000E+00  0.29519605302E+02  0.29519605302E+02  0.00000000000E+00 0.  1.
          1   -1    0    0  501    0  0.00000000000E+00 -0.00000000000E+00 -0.71333792214E+03  0.71333792214E+03  0.00000000000E+00 0. -1.
         25    2    1    2    0    0  0.43980339384E+02 -0.42843980307E+02 -0.54890906619E+03  0.56632078509E+03  0.12509273269E+03 0.  0.
          5    1    3    3  502    0 -0.17854292128E+02 -0.42976862164E+02 -0.74915563965E+02  0.88292698186E+02  0.41800000000E+01 0. -1.
         -5    1    3    3    0  502  0.61834631513E+02  0.13288185742E+00 -0.47399350223E+03  0.47802808690E+03  0.41800000000E+01 0. -1.
        -11    1    1    2    0    0 -0.26068202588E+02 -0.23446158632E+02 -0.14535993826E+02  0.37954823899E+02  0.00000000000E+00 0.  1.
         11    1    1    2    0    0 -0.17912136797E+02  0.66290138938E+02 -0.12037325682E+03  0.13858191845E+03  0.00000000000E+00 0. -1.
</event>
<event>
 7    1  0.2810263E-009  0.9544415E+02  0.7561462E-02  0.1290179E+00
          2   -1    0    0  501    0  0.00000000000E+00  0.00000000000E+00  0.17459607011E+03  0.17459607011E+03  0.00000000000E+00 0. -1.
         -2   -1    0    0    0  501 -0.00000000000E+00 -0.00000000000E+00 -0.81885761741E+02  0.81885761741E+02  0.00000000000E+00 0.  1.
         25    2    1    2    0    0 -0.30259643127E+02  0.11560082118E+02  0.79208091964E+01  0.12946299204E+03  0.12509454660E+03 0.  0.
          5    1    3    3  502    0 -0.75878277693E+02  0.15116620000E+02  0.23464788384E+02  0.80957358651E+02  0.41800000000E+01 0.  1.
         -5    1    3    3    0  502  0.45618634566E+02 -0.35565378819E+01 -0.15543979187E+02  0.48505633387E+02  0.41800000000E+01 0.  1.
        -11    1    1    2    0    0 -0.17935604674E+01  0.21404450986E+02 -0.84318432406E+01  0.23075167640E+02  0.00000000000E+00 0.  1.
         11    1    1    2    0    0  0.32053203594E+02 -0.32964533104E+02  0.93221342412E+02  0.10394367217E+03  0.00000000000E+00 0. -1.
</event>
<event>
 7    1  0.2810263E-009  0.7125029E+02  0.7561462E-02  0.1355892E+00
         -2   -1    0    0    0  501 -0.00000000000E+00  0.00000000000E+00  0.15036578364E+02  0.15036578364E+02  0.00000000000E+00 0.  1.
          2   -1    0    0  501    0  0.00000000000E+00 -0.00000000000E+00 -0.89096083334E+03  0.89096083334E+03  0.00000000000E+00 0. -1.
         25    2    1    2    0    0 -0.17043746965E+02 -0.30702823883E+02 -0.58516646531E+03  0.59941698829E+03  0.12509109087E+03 0.  0.
          5    1    3    3  502    0  0.11780483128E+02 -0.31287425633E+02 -0.35367767835E+02  0.48847048909E+02  0.41800000000E+01 0.  1.
         -5    1    3    3    0  502 -0.28824230093E+02  0.58460174989E+00 -0.54979869748E+03  0.55056993938E+03  0.41800000000E+01 0.  1.
        -11    1    1    2    0    0 -0.28230663212E+02  0.10919662333E+02 -0.35808362597E+02  0.46887612466E+02  0.00000000000E+00 0.  1.
         11    1    1    2    0    0  0.45274410177E+02  0.19783161549E+02 -0.25494942707E+03  0.25969281095E+03  0.00000000000E+00 0. -1.
</event>
<event>
 7    1  0.3519686E-009  0.1246909E+03  0.7561462E-02  0.1235553E+00
         -1   -1    0    0    0  501 -0.00000000000E+00  0.00000000000E+00  0.51228083658E+02  0.51228083658E+02  0.00000000000E+00 0.  1.
          1   -1    0    0  501    0  0.00000000000E+00 -0.00000000000E+00 -0.39687189890E+03  0.39687189890E+03  0.00000000000E+00 0. -1.
         25    2    1    2    0    0 -0.65565982871E+02 -0.33227073939E+02 -0.27674672113E+03  0.31247255985E+03  0.12508963365E+03 0.  0.
          5    1    3    3  502    0 -0.26663072154E+02  0.47844367484E+02 -0.98366912472E+02  0.11266554392E+03  0.41800000000E+01 0.  1.
         -5    1    3    3    0  502 -0.38902910717E+02 -0.81071441423E+02 -0.17837980866E+03  0.19980701593E+03  0.41800000000E+01 0.  1.
        -11    1    1    2    0    0  0.30111784141E+02  0.55086653181E+02 -0.10121914683E+02  0.63590188391E+02  0.00000000000E+00 0.  1.
         11    1    1    2    0    0  0.35454198730E+02 -0.21859579242E+02 -0.58775179429E+02  0.72037234325E+02  0.00000000000E+00 0. -1.
</event>
<event>
 7    1  0.2810263E-009  0.7344575E+02  0.7561462E-02  0.1348753E+00
         -1   -1    0    0    0  501 -0.00000000000E+00  0.00000000000E+00  0.26261928004E+02  0.26261928004E+02  0.00000000000E+00 0.  1.
          1   -1    0    0  501    0  0.00000000000E+00 -0.00000000000E+00 -0.51988017691E+03  0.51988017691E+03  0.00000000000E+00 0. -1.
         25    2    1    2    0    0  0.32926003617E+02  0.82856616299E+01 -0.21049393082E+03  0.24720097832E+03  0.12509138606E+03 0.  0.
          5    1    3    3  502    0 -0.86499694584E+01  0.10422292005E+01  0.14950940019E+02  0.17802000471E+02  0.41800000000E+01 0. -1.
         -5    1    3    3    0  502  0.41575973075E+02  0.72434324294E+01 -0.22544487083E+03  0.22939897784E+03  0.41800000000E+01 0. -1.
        -11    1    1    2    0    0 -0.36180128435E+02  0.35632594944E+02 -0.17421446927E+03  0.18146450016E+03  0.00000000000E+00 0. -1.
         11    1    1    2    0    0  0.32541248179E+01 -0.43918256574E+02 -0.10890984883E+03  0.11747662644E+03  0.00000000000E+00 0.  1.
</event>
<event>
 7    1  0.2810263E-009  0.1099454E+03  0.7561462E-02  0.1260671E+00
          2   -1    0    0  501    0  0.00000000000E+00  0.00000000000E+00  0.47452901995E+03  0.47452901995E+03  0.00000000000E+00 0. -1.
         -2   -1    0    0    0  501 -0.00000000000E+00 -0.00000000000E+00 -0.42611169849E+02  0.42611169849E+02  0.00000000000E+00 0.  1.
         25    2    1    2    0    0 -0.22344527935E+02 -0.18422724380E+02  0.78281184975E+02  0.15038209866E+03  0.12509259361E+03 0.  0.
          5    1    3    3  502    0  0.20876734985E+02  0.44158682084E+02  0.47394091349E+02  0.68187238996E+02  0.41800000000E+01 0.  1.
         -5    1    3    3    0  502 -0.43221262920E+02 -0.62581406464E+02  0.30887093626E+02  0.82194859669E+02  0.41800000000E+01 0.  1.
        -11    1    1    2    0    0 -0.50221163204E+01 -0.34634778520E+02  0.17324318768E+03  0.17674272719E+03  0.00000000000E+00 0.  1.
         11    1    1    2    0    0  0.27366644255E+02  0.53057502899E+02  0.18039347744E+03  0.19001536394E+03  0.00000000000E+00 0. -1.
</event>
<event>
 7    1  0.2810263E-009  0.1436475E+03  0.7561462E-02  0.1208504E+00
          2   -1    0    0  501    0  0.00000000000E+00  0.00000000000E+00  0.31514083774E+03  0.31514083774E+03  0.00000000000E+00 0. -1.
         -2   -1    0    0    0  501 -0.00000000000E+00 -0.00000000000E+00 -0.84444481271E+02  0.84444481271E+02  0.00000000000E+00 0.  1.
         25    2    1    2    0    0  0.41572813843E+02  0.10829591499E+03  0.16636294446E+03  0.23828557290E+03  0.12508829246E+03 0.  0.
          5    1    3    3  502    0  0.30762036197E+02 -0.25704954831E+01 -0.72349730902E+01  0.31980111845E+02  0.41800000000E+01 0.  1.
         -5    1    3    3    0  502  0.10810777646E+02  0.11086641048E+03  0.17359791755E+03  0.20630546106E+03  0.41800000000E+01 0.  1.
        -11    1    1    2    0    0 -0.61678488719E+02 -0.10822595507E+03  0.66274118559E+02  0.14110050358E+03  0.00000000000E+00 0. -1.
         11    1    1    2    0    0  0.20105674875E+02 -0.69959927418E-01 -0.19407065488E+01  0.20199242523E+02  0.00000000000E+00 0.  1.
</event>
<event>
 7    1  0.2810263E-009  0.1320633E+03  0.7561462E-02  0.1224426E+00
          1   -1    0    0  501    0  0.00000000000E+00  0.00000000000E+00  0.53633521092E+03  0.53633521092E+03  0.00000000000E+00 0. -1.
         -1   -1    0    0    0  501 -0.00000000000E+00 -0.00000000000E+00 -0.43470945050E+02  0.43470945050E+02  0.00000000000E+00 0.  1.
         25    2    1    2    0    0  0.18364214506E+02 -0.74557198556E+02  0.40916058807E+03  0.43469097033E+03  0.12509129719E+03 0.  0.
          5    1    3    3  502    0  0.71894492391E+02 -0.42420483668E+02  0.21396059683E+03  0.22970617072E+03  0.41800000000E+01 0.  1.
         -5    1    3    3    0  502 -0.53530277885E+02 -0.32136714888E+02  0.19519999124E+03  0.20498479962E+03  0.41800000000E+01 0.  1.
        -11    1    1    2    0    0 -0.48339126790E+02  0.13879866923E+02  0.42784690754E+02  0.66029172700E+02  0.00000000000E+00 0.  1.
         11    1    1    2    0    0  0.29974912284E+02  0.60677331633E+02  0.40918987047E+02  0.79086012932E+02  0.00000000000E+00 0. -1.
</event>
<event>
 7    1  0.2810263E-009  0.1114665E+03  0.7561462E-02  0.1257878E+00
         -2   -1    0    0    0  501 -0.00000000000E+00  0.00000000000E+00  0.75439660218E+01  0.75439660218E+01  0.00000000000E+00 0. -1.
          2   -1    0    0  501    0  0.00000000000E+00 -0.00000000000E+00 -0.23052364479E+04  0.23052364479E+04  0.00000000000E+00 0.  1.
         25    2    1    2    0    0 -0.45707386603E+02 -0.35813743133E+02 -0.16872082069E+04  0.16928353840E+04  0.12509322332E+03 0.  0.
          5    1    3    3  502    0 -0.60072436877E+02 -0.61174348230E+02 -0.70802337183E+03  0.71320794023E+03  0.41800000000E+01 0.  1.
         -5    1    3    3    0  502  0.14365050274E+02  0.25360605098E+02 -0.97918483506E+03  0.97962744377E+03  0.41800000000E+01 0.  1.
        -11    1    1    2    0    0 -0.27493482450E+02  0.38057395660E+01 -0.13983401405E+03  0.14256201007E+03  0.00000000000E+00 0.  1.
         11    1    1    2    0    0  0.73200869053E+02  0.32008003567E+02 -0.47065026090E+03  0.47738301982E+03  0.00000000000E+00 0. -1.
</event>
<event>
 7    1  0.2810263E-009  0.1305284E+03  0.7561462E-02  0.1226674E+00
          2   -1    0    0  501    0  0.00000000000E+00  0.00000000000E+00  0.30964300218E+03  0.30964300218E+03  0.00000000000E+00 0.  1.
         -2   -1    0    0    0  501 -0.00000000000E+00 -0.00000000000E+00 -0.73710303347E+02  0.73710303347E+02  0.00000000000E+00 0. -1.
         25    2    1    2    0    0  0.15678497636E+02  0.10076486341E+03  0.15347851814E+03  0.22271694320E+03  0.12509119982E+03 0.  0.
          5    1    3    3  502    0  0.30458180273E+02  0.11680983713E+03  0.77391964748E+02  0.14345461792E+03  0.41800000000E+01 0. -1.
         -5    1    3    3    0  502 -0.14779682638E+02 -0.16044973726E+02  0.76086553389E+02  0.79262325271E+02  0.41800000000E+01 0. -1.
        -11    1    1    2    0    0 -0.26090127903E+02 -0.12058181695E+02 -0.11542311256E+02  0.30972882799E+02  0.00000000000E+00 0. -1.
         11    1    1    2    0    0  0.10411630267E+02 -0.88706681711E+02  0.93996491951E+02  0.12966347953E+03  0.00000000000E+00 0.  1.
</event>
<event>
 7    1  0.2810263E-009  0.1493067E+03  0.7561462E-02  0.1201327E+00
         -1   -1    0    0    0  501 -0.00000000000E+00  0.00000000000E+00  0.34712354114E+02  0.34712354114E+02  0.00000000000E+00 0.  1.
          1   -1    0    0  501    0  0.00000000000E+00 -0.00000000000E+00 -0.66764279194E+03  0.66764279194E+03  0.00000000000E+00 0. -1.
         25    2    1    2    0    0 -0.92046851176E+02 -0.48463474541E+02 -0.29702463908E+03  0.33866230946E+03  0.12508873830E+03 0.  0.
          5    1    3    3  502    0 -0.57311377740E+02  0.36707932743E+02 -0.15585269647E+03  0.17011643583E+03  0.41800000000E+01 0.  1.
         -5    1    3    3    0  502 -0.34735473436E+02 -0.85171407285E+02 -0.14117194262E+03  0.16854587362E+03  0.41800000000E+01 0.  1.
        -11    1    1    2    0    0  0.27432395497E+02  0.65934924925E+02 -0.15075163410E+03  0.16681128808E+03  0.00000000000E+00 0.  1.
         11    1    1    2    0    0  0.64614455679E+02 -0.17471450384E+02 -0.18515416465E+03  0.19688154852E+03  0.00000000000E+00 0. -1.
</event>
<event>
 7    1  0.2810263E-009  0.1026515E+03  0.7561462E-02  0.1274817E+00
          1   -1    0    0  501    0  0.00000000000E+00  0.00000000000E+00  0.13871962600E+03  0.13871962600E+03  0.00000000000E+00 0. -1.
         -1   -1    0    0    0  501 -0.00000000000E+00 -0.00000000000E+00 -0.89605329408E+02  0.89605329408E+02  0.00000000000E+00 0.  1.
         25    2    1    2    0    0 -0.19065015617E+02  0.15606640674E+02  0.20156879613E+02  0.12907698334E+03  0.12509007066E+03 0.  0.
          5    1    3    3  502    0  0.48399916440E+02  0.27567171448E+02  0.22921784877E+02  0.60376994584E+02  0.41800000000E+01 0.  1.
         -5    1    3    3    0  502 -0.67464932057E+02 -0.11960530775E+02 -0.27649052639E+01  0.68699988756E+02  0.41800000000E+01 0.  1.
        -11    1    1    2    0    0 -0.28369006246E+02  0.54778529033E+01 -0.13778596584E+02  0.32010265723E+02  0.00000000000E+00 0.  1.
         11    1    1    2    0    0  0.47434021864E+02 -0.21084493577E+02  0.42736013567E+02  0.67237706349E+02  0.00000000000E+00 0. -1.
</event>
<event>
 7    1  0.2810263E-009  0.1185623E+03  0.7561462E-02  0.1245488E+00
          2   -1    0    0  501    0  0.00000000000E+00  0.00000000000E+00  0.88571264298E+03  0.88571264298E+03  0.00000000000E+00 0. -1.
         -2   -1    0    0    0  501 -0.00000000000E+00 -0.00000000000E+00 -0.28173638170E+02  0.28173638170E+02  0.00000000000E+00 0.  1.
         25    2    1    2    0    0 -0.49556119098E+02  0.90171502053E+02  0.59826895710E+03  0.61980604449E+03  0.12508828492E+03 0.  0.
          5    1    3    3  502    0 -0.20877171739E+02  0.79854587549E+02  0.15662298235E+03  0.17708992759E+03  0.41800000000E+01 0.  1.
         -5    1    3    3    0  502 -0.28678947359E+02  0.10316914504E+02  0.44164597475E+03  0.44271611690E+03  0.41800000000E+01 0.  1.
        -11    1    1    2    0    0  0.10612049823E+02 -0.83541087362E+02  0.10377240933E+03  0.13364296396E+03  0.00000000000E+00 0.  1.
         11    1    1    2    0    0  0.38944069274E+02 -0.66304146909E+01  0.15549763838E+03  0.16043727270E+03  0.00000000000E+00 0. -1.
</event>
<event>
 7    1  0.2810263E-009  0.8827478E+02  0.7561462E-02  0.1307084E+00
          1   -1    0    0  501    0  0.00000000000E+00  0.00000000000E+00  0.41746013700E+03  0.41746013700E+03  0.00000000000E+00 0. -1.
         -1   -1    0    0    0  501 -0.00000000000E+00 -0.00000000000E+00 -0.35331285917E+02  0.35331285917E+02  0.00000000000E+00 0.  1.
         25    2    1    2    0    0 -0.33356686118E+02 -0.47775459896E+02  0.18512699761E+03  0.23089963496E+03  0.12508986012E+03 0.  0.
          5    1    3    3  502    0  0.35113850418E+02 -0.17452529951E+02  0.13511828473E+03  0.14075509426E+03  0.41800000000E+01 0. -1.
         -5    1    3    3    0  502 -0.68470536536E+02 -0.30322929945E+02  0.50008712882E+02  0.90144540701E+02  0.41800000000E+01 0. -1.
        -11    1    1    2    0    0  0.12458571550E+02  0.36070719560E+02  0.19403958647E+03  0.19775660275E+03  0.00000000000E+00 0. -1.
         11    1    1    2    0    0  0.20898114568E+02  0.11704740336E+02  0.29622669993E+01  0.24135185199E+02  0.00000000000E+00 0.  1.
</event>
<event>
 7    1  0.2810263E-009  0.1109036E+03  0.7561462E-02  0.1258906E+00
          3   -1    0    0  501    0  0.00000000000E+00  0.00000000000E+00  0.33500893585E+03  0.33500893585E+03  0.00000000000E+00 0. -1.
         -3   -1    0    0    0  501 -0.00000000000E+00 -0.00000000000E+00 -0.48849314333E+02  0.48849314333E+02  0.00000000000E+00 0.  1.
         25    2    1    2    0    0  0.33013133890E+02 -0.57560810666E+02  0.17697170956E+03  0.22664828162E+03  0.12508934264E+03 0.  0.
          5    1    3    3  502    0 -0.34699062510E+02 -0.24618699567E+02  0.10694450553E+02  0.44067550194E+02  0.41800000000E+01 0. -1.
         -5    1    3    3    0  502  0.67712196400E+02 -0.32942111099E+02  0.16627725900E+03  0.18258073142E+03  0.41800000000E+01 0. -1.
        -11    1    1    2    0    0  0.26424376439E+02  0.13644469325E+02  0.64040622787E+02  0.70608927058E+02  0.00000000000E+00 0. -1.
         11    1    1    2    0    0 -0.59437510329E+02  0.43916341341E+02  0.45147289176E+02  0.86601041511E+02  0.00000000000E+00 0.  1.
</event>
<event>
 7    1  0.2810263E-009  0.2389400E+03  0.7561462E-02  0.1120501E+00
          3   -1    0    0  501    0  0.00000000000E+00  0.00000000000E+00  0.15151782673E+03  0.15151782673E+03  0.00000000000E+00 0. -1.
         -3   -1    0    0    0  501 -0.00000000000E+00 -0.00000000000E+00 -0.44305857063E+03  0.44305857063E+03  0.00000000000E+00 0.  1.
         25    2    1    2    0    0 -0.22384745675E+03  0.30638882142E+02 -0.22334895923E+03  0.34143539940E+03  0.12508776672E+03 0.  0.
          5    1    3    3  502    0 -0.13241393855E+03  0.72760686518E+02 -0.96030866786E+02  0.17907252274E+03  0.41800000000E+01 0. -1.
         -5    1    3    3    0  502 -0.91433518206E+02 -0.42121804376E+02 -0.12731809244E+03  0.16236287666E+03  0.41800000000E+01 0. -1.
        -11    1    1    2    0    0  0.15875734136E+03 -0.19696951517E+02 -0.24651102719E+01  0.15999356270E+03  0.00000000000E+00 0. -1.
         11    1    1    2    0    0  0.65090115389E+02 -0.10941930625E+02 -0.65726674404E+02  0.93147435259E+02  0.00000000000E+00 0.  1.
</event>
<event>
 7    1  0.2810263E-009  0.1869738E+03  0.7561462E-02  0.1161219E+00
          1   -1    0    0  501    0  0.00000000000E+00  0.00000000000E+00  0.16478532027E+03  0.16478532027E+03  0.00000000000E+00 0. -1.
         -1   -1    0    0    0  501 -0.00000000000E+00 -0.00000000000E+00 -0.26128673988E+03  0.26128673988E+03  0.00000000000E+00 0.  1.
         25    2    1    2    0    0  0.16043869274E+03  0.73218737823E+02 -0.53407416964E+02  0.22271358170E+03  0.12508968620E+03 0.  0.
          5    1    3    3  502    0  0.88660652004E+02  0.13046001680E+02 -0.85190077559E+02  0.12371633315E+03  0.41800000000E+01 0.  1.
         -5    1    3    3    0  502  0.71778040735E+02  0.60172736143E+02  0.31782660595E+02  0.98997248554E+02  0.41800000000E+01 0.  1.
        -11    1    1    2    0    0 -0.14978983047E+03 -0.39203813391E+02 -0.57148007910E+02  0.16504492451E+03  0.00000000000E+00 0.  1.
         11    1    1    2    0    0 -0.10648862266E+02 -0.34014924433E+02  0.14054005257E+02  0.38313553939E+02  0.00000000000E+00 0. -1.
</event>
<event>
 7    1  0.2810263E-009  0.1296851E+03  0.7561462E-02  0.1227924E+00
         -2   -1    0    0    0  501 -0.00000000000E+00  0.00000000000E+00  0.10591948087E+02  0.10591948087E+02  0.00000000000E+00 0.  1.
          2   -1    0    0  501    0  0.00000000000E+00 -0.00000000000E+00 -0.19148724182E+04  0.19148724182E+04  0.00000000000E+00 0. -1.
         25    2    1    2    0    0 -0.39588271053E+02 -0.71976800593E+02 -0.13320308129E+04  0.13404111851E+04  0.12509263563E+03 0.  0.
          5    1    3    3  502    0  0.38493910801E+02 -0.32692179041E+02 -0.26525768303E+03  0.27005493986E+03  0.41800000000E+01 0. -1.
         -5    1    3    3    0  502 -0.78082181854E+02 -0.39284621552E+02 -0.10667731299E+04  0.10703562452E+04  0.41800000000E+01 0. -1.
        -11    1    1    2    0    0 -0.28951859451E+02  0.21912666875E+02 -0.14721989634E+03  0.15163137213E+03  0.00000000000E+00 0.  1.
         11    1    1    2    0    0  0.68540130504E+02  0.50064133718E+02 -0.42502976082E+03  0.43342180905E+03  0.00000000000E+00 0. -1.
</event>
<event>
 7    1  0.2810263E-009  0.1216159E+03  0.7561462E-02  0.1240455E+00
         -1   -1    0    0    0  501 -0.00000000000E+00  0.00000000000E+00  0.98615448807E+02  0.98615448807E+02  0.00000000000E+00 0.  1.
          1   -1    0    0  501    0  0.00000000000E+00 -0.00000000000E+00 -0.17777765163E+03  0.17777765163E+03  0.00000000000E+00 0. -1.
         25    2    1    2    0    0 -0.50023255134E+02  0.54960839247E-02  0.85815101955E+01  0.13499492193E+03  0.12509060934E+03 0.  0.
          5    1    3    3  502    0  0.24359875131E+02 -0.40582474198E+02 -0.89788140052E+01  0.48357338940E+02  0.41800000000E+01 0. -1.
         -5    1    3    3    0  502 -0.74383130265E+02  0.40587970282E+02  0.17560324201E+02  0.86637582986E+02  0.41800000000E+01 0. -1.
        -11    1    1    2    0    0  0.72752392814E+02  0.25146433531E+02 -0.61500877304E+02  0.98527212935E+02  0.00000000000E+00 0. -1.
         11    1    1    2    0    0 -0.22729137680E+02 -0.25151929615E+02 -0.26242835714E+02  0.42870965575E+02  0.00000000000E+00 0.  1.
</event>
<event>
 7    1  0.2810263E-009  0.1356419E+03  0.7561462E-02  0.1219316E+00
         -2   -1    0    0    0  501 -0.00000000000E+00  0.00000000000E+00  0.29504359938E+02  0.29504359938E+02  0.00000000000E+00 0.  1.
          2   -1    0    0  501    0  0.00000000000E+00 -0.00000000000E+00 -0.21394519642E+04  0.21394519642E+04  0.00000000000E+00 0. -1.
         25    2    1    2    0    0  0.14723957292E+02 -0.10785834038E+03 -0.19453358703E+04  0.19523909737E+04  0.12509456176E+03 0.  0.
          5    1    3    3  502    0  0.33773786813E+02 -0.63484625291E+01 -0.14442433737E+03  0.14851543110E+03  0.41800000000E+01 0. -1.
         -5    1    3    3    0  502 -0.19049829521E+02 -0.10150987785E+03 -0.18009115329E+04  0.18038755426E+04  0.41800000000E+01 0. -1.
        -11    1    1    2    0    0 -0.45068812058E+02  0.46001830794E+02 -0.11450667998E+03  0.13137406904E+03  0.00000000000E+00 0. -1.
         11    1    1    2    0    0  0.30344854766E+02  0.61856509586E+02 -0.50105053938E+02  0.85191281356E+02  0.00000000000E+00 0.  1.
</event>
<event>
 7    1  0.2810263E-009  0.1889774E+03  0.7561462E-02  0.1159387E+00
          3   -1    0    0  501    0  0.00000000000E+00  0.00000000000E+00  0.13938433725E+03  0.13938433725E+03  0.00000000000E+00 0. -1.
         -3   -1    0    0    0  501 -0.00000000000E+00 -0.00000000000E+00 -0.31572903492E+03  0.31572903492E+03  0.00000000000E+00 0.  1.
         25    2    1    2    0    0 -0.16973722170E+03  0.60908943203E+02 -0.67046084510E+02  0.22948207791E+03  0.12508486256E+03 0.  0.
          5    1    3    3  502    0 -0.12534668572E+03  0.54119166628E+02 -0.10359156968E+03  0.17143325677E+03  0.41800000000E+01 0. -1.
         -5    1    3    3    0  502 -0.44390535982E+02  0.67897765749E+01  0.36545485166E+02  0.58048821148E+02  0.41800000000E+01 0. -1.
        -11    1    1    2    0    0  0.12414762317E+03 -0.51765387355E+01 -0.80667949318E+02  0.14814434495E+03  0.00000000000E+00 0.  1.
         11    1    1    2    0    0  0.45589598528E+02 -0.55732404467E+02 -0.28630663843E+02  0.77486949312E+02  0.00000000000E+00 0. -1.
</event>
<event>
 7    1  0.2810263E-009  0.1341123E+03  0.7561462E-02  0.1221478E+00
          2   -1    0    0  501    0  0.00000000000E+00  0.00000000000E+00  0.29073194537E+03  0.29073194537E+03  0.00000000000E+00 0. -1.
         -2   -1    0    0    0  501 -0.00000000000E+00 -0.00000000000E+00 -0.80896009915E+02  0.80896009915E+02  0.00000000000E+00 0.  1.
         25    2    1    2    0    0 -0.38931270053E+02 -0.73546693650E+02  0.19710634472E+03  0.24783659500E+03  0.12508919521E+03 0.  0.
          5    1    3    3  502    0  0.13706335623E+02  0.30361896119E+02  0.40189118971E+02  0.52367414065E+02  0.41800000000E+01 0. -1.
         -5    1    3    3    0  502 -0.52637605676E+02 -0.10390858977E+03  0.15691722575E+03  0.19546918094E+03  0.41800000000E+01 0. -1.
        -11    1    1    2    0    0  0.19678241425E+02  0.90394582731E+02 -0.50288238707E+01  0.92648274901E+02  0.00000000000E+00 0.  1.
         11    1    1    2    0    0  0.19253028627E+02 -0.16847889081E+02  0.17758414601E+02  0.31143085379E+02  0.00000000000E+00 0. -1.
</event>
<event>
 7    1  0.2810263E-009  0.1190269E+03  0.7561462E-02  0.1244711E+00
          2   -1    0    0  501    0  0.00000000000E+00  0.00000000000E+00  0.28878083200E+03  0.28878083200E+03  0.00000000000E+00 0. -1.
         -2   -1    0    0    0  501 -0.00000000000E+00 -0.00000000000E+00 -0.10003081689E+03  0.10003081689E+03  0.00000000000E+00 0.  1.
         25    2    1    2    0    0  0.55299155816E+02 -0.46531791090E+02  0.22466652267E+03  0.26710096560E+03  0.12507867604E+03 0.  0.
          5    1    3    3  502    0 -0.24954936822E+02  0.20625657211E+02  0.94822630071E+02  0.10028444635E+03  0.41800000000E+01 0.  1.
         -5    1    3    3    0  502  0.80254092639E+02 -0.67157448302E+02  0.12984389259E+03  0.16681651924E+03  0.41800000000E+01 0.  1.
        -11    1    1    2    0    0 -0.72107325140E+00  0.46094389371E+02  0.13549879273E+02  0.48050097881E+02  0.00000000000E+00 0. -1.
         11    1    1    2    0    0 -0.54578082565E+02  0.43740171930E+00 -0.49466386829E+02  0.73660585408E+02  0.00000000000E+00 0.  1.
</event>
<event>
 7    1  0.2810263E-009  0.1663289E+03  0.7561462E-02  0.1181731E+00
         -1   -1    0    0    0  501 -0.00000000000E+00  0.00000000000E+00  0.20545085262E+03  0.20545085262E+03  0.00000000000E+00 0.  1.
          1   -1    0    0  501    0  0.00000000000E+00 -0.00000000000E+00 -0.15803497891E+03  0.15803497891E+03  0.00000000000E+00 0. -1.
         25    2    1    2    0    0 -0.24064273398E+02 -0.12419735110E+03 -0.42523042832E+02  0.18292308459E+03  0.12509426217E+03 0.  0.
          5    1    3    3  502    0 -0.38243289579E+02 -0.14544543477E+03 -0.44699954722E+02  0.15694738624E+03  0.41800000000E+01 0.  1.
         -5    1    3    3    0  502  0.14179016181E+02  0.21248083669E+02  0.21769118902E+01  0.25975698352E+02  0.41800000000E+01 0.  1.
        -11    1    1    2    0    0 -0.11944935187E+02 -0.11107750954E+02  0.12576438690E+02  0.20596854566E+02  0.00000000000E+00 0. -1.
         11    1    1    2    0    0  0.36009208585E+02  0.13530510206E+03  0.77362477849E+02  0.15996589238E+03  0.00000000000E+00 0.  1.
</event>
<event>
 7    1  0.2901060E-009  0.1345294E+03  0.7561462E-02  0.1220886E+00
         -2   -1    0    0    0  501 -0.00000000000E+00  0.00000000000E+00  0.71982846084E+02  0.71982846084E+02  0.00000000000E+00 0.  1.
          2   -1    0    0  501    0  0.00000000000E+00 -0.00000000000E+00 -0.47619213679E+03  0.47619213679E+03  0.00000000000E+00 0. -1.
         25    2    1    2    0    0  0.88009773368E+01  0.13265153997E+03 -0.31389816583E+03  0.36311561917E+03  0.12508799347E+03 0.  0.
          5    1    3    3  502    0 -0.87472075246E+01  0.47867256096E+02 -0.25178215733E+03  0.25647517423E+03  0.41800000000E+01 0. -1.
         -5    1    3    3    0  502  0.17548184861E+02  0.84784283878E+02 -0.62116008502E+02  0.10664044494E+03  0.41800000000E+01 0. -1.
        -11    1    1    2    0    0  0.32588152231E+01 -0.24533656943E+02  0.18724601225E+02  0.31034350174E+02  0.00000000000E+00 0.  1.
         11    1    1    2    0    0 -0.12059792560E+02 -0.10811788303E+03 -0.10903572610E+03  0.15402501353E+03  0.00000000000E+00 0. -1.
</event>
<event>
 7    1  0.3261163E-009  0.1259205E+03  0.7561462E-02  0.1233638E+00
          1   -1    0    0  501    0  0.00000000000E+00  0.00000000000E+00  0.60695135405E+03  0.60695135405E+03  0.00000000000E+00 0. -1.
         -1   -1    0    0    0  501 -0.00000000000E+00 -0.00000000000E+00 -0.36430722666E+02  0.36430722666E+02  0.00000000000E+00 0.  1.
         25    2    1    2    0    0 -0.86578204598E+02 -0.52273680724E+02  0.30022477755E+03  0.34060774412E+03  0.12510153914E+03 0.  0.
          5    1    3    3  502    0  0.18347458837E+02 -0.34517122830E+02  0.15864800057E+03  0.16344638724E+03  0.41800000000E+01 0. -1.
         -5    1    3    3    0  502 -0.10492566344E+03 -0.17756557894E+02  0.14157677698E+03  0.17716135689E+03  0.41800000000E+01 0. -1.
        -11    1    1    2    0    0  0.48200827475E+02  0.10555906992E+02  0.22462274903E+03  0.22997853448E+03  0.00000000000E+00 0. -1.
         11    1    1    2    0    0  0.38377377123E+02  0.41717773732E+02  0.45673104811E+02  0.72795798114E+02  0.00000000000E+00 0.  1.
</event>
<event>
 7    1  0.2810263E-009  0.1478502E+03  0.7561462E-02  0.1203140E+00
          3   -1    0    0  501    0  0.00000000000E+00  0.00000000000E+00  0.50666920289E+03  0.50666920289E+03  0.00000000000E+00 0. -1.
         -3   -1    0    0    0  501 -0.00000000000E+00 -0.00000000000E+00 -0.64524294596E+02  0.64524294596E+02  0.00000000000E+00 0.  1.
         25    2    1    2    0    0 -0.99532029116E+02  0.37481685956E+02  0.11116485299E+03  0.19828436597E+03  0.12509022202E+03 0.  0.
          5    1    3    3  502    0 -0.10743062645E+03  0.39887181547E+02  0.13237871250E+03  0.17513972330E+03  0.41800000000E+01 0. -1.
         -5    1    3    3    0  502  0.78985973382E+01 -0.24054955915E+01 -0.21213859514E+02  0.23144642673E+02  0.41800000000E+01 0. -1.
        -11    1    1    2    0    0  0.10632358059E+03  0.24754861505E+02  0.20750664550E+03  0.23447071221E+03  0.00000000000E+00 0.  1.
         11    1    1    2    0    0 -0.67915514759E+01 -0.62236547460E+02  0.12347340981E+03  0.13843841931E+03  0.00000000000E+00 0. -1.
</event>
<event>
 7    1  0.2810263E-009  0.1016634E+03  0.7561462E-02  0.1276836E+00
          1   -1    0    0  501    0  0.00000000000E+00  0.00000000000E+00  0.35238290593E+03  0.35238290593E+03  0.00000000000E+00 0. -1.
         -1   -1    0    0    0  501 -0.00000000000E+00 -0.00000000000E+00 -0.53708924976E+02  0.53708924976E+02  0.00000000000E+00 0.  1.
         25    2    1    2    0    0 -0.11472204046E+02  0.63936873726E+02  0.24498851016E+03  0.28264145747E+03  0.12508912057E+03 0.  0.
          5    1    3    3  502    0  0.15284732846E+02  0.89509890561E+02  0.11047356980E+03  0.14306476013E+03  0.41800000000E+01 0. -1.
         -5    1    3    3    0  502 -0.26756936893E+02 -0.25573016834E+02  0.13451494036E+03  0.13957669734E+03  0.41800000000E+01 0. -1.
        -11    1    1    2    0    0  0.23976531120E+02 -0.54406465120E+02  0.75788069210E+02  0.96326366722E+02  0.00000000000E+00 0. -1.
         11    1    1    2    0    0 -0.12504327074E+02 -0.95304086061E+01 -0.22102598411E+02  0.27124006715E+02  0.00000000000E+00 0.  1.
</event>
<event>
 7    1  0.2810263E-009  0.1062090E+03  0.7561462E-02  0.1267756E+00
         -2   -1    0    0    0  501 -0.00000000000E+00  0.00000000000E+00  0.54657856010E+02  0.54657856010E+02  0.00000000000E+00 0.  1.
          2   -1    0    0  501    0  0.00000000000E+00 -0.00000000000E+00 -0.24279364029E+03  0.24279364029E+03  0.00000000000E+00 0. -1.
         25    2    1    2    0    0  0.78190697129E+01  0.17393762242E+02 -0.14343934343E+03  0.19127195668E+03  0.12508571203E+03 0.  0.
          5    1    3    3  502    0  0.28246031539E+02  0.61505235389E+02 -0.44937619068E+02  0.81348597317E+02  0.41800000000E+01 0. -1.
         -5    1    3    3    0  502 -0.20426961827E+02 -0.44111473147E+02 -0.98501724360E+02  0.10992335937E+03  0.41800000000E+01 0. -1.
        -11    1    1    2    0    0  0.76129600020E+01 -0.54813744820E+02 -0.31098809621E+02  0.63479443452E+02  0.00000000000E+00 0. -1.
         11    1    1    2    0    0 -0.15432029715E+02  0.37419982578E+02 -0.13597631231E+02  0.42700096163E+02  0.00000000000E+00 0.  1.
</event>
<event>
 7    1  0.2810263E-009  0.1684688E+03  0.7561462E-02  0.1179454E+00
         -1   -1    0    0    0  501 -0.00000000000E+00  0.00000000000E+00  0.80094736168E+02  0.80094736168E+02  0.00000000000E+00 0.  1.
          1   -1    0    0  501    0  0.00000000000E+00 -0.00000000000E+00 -0.57480691617E+03  0.57480691617E+03  0.00000000000E+00 0. -1.
         25    2    1    2    0    0 -0.15800038044E+03 -0.21385856637E+00 -0.40325847072E+03  0.45081017154E+03  0.12509296782E+03 0.  0.
          5    1    3    3  502    0 -0.24023353340E+01 -0.80823747814E+01  0.71410625624E+01  0.11813685779E+02  0.41800000000E+01 0.  1.
         -5    1    3    3    0  502 -0.15559804510E+03  0.78685162151E+01 -0.41039953328E+03  0.43899648576E+03  0.41800000000E+01 0.  1.
        -11    1    1    2    0    0  0.42434316537E+02 -0.30306305676E+02 -0.61951628153E+02  0.80976216351E+02  0.00000000000E+00 0. -1.
         11    1    1    2    0    0  0.11556606390E+03  0.30520164242E+02 -0.29502081128E+02  0.12311526445E+03  0.00000000000E+00 0.  1.
</event>
<event>
 7    1  0.2810263E-009  0.1786083E+03  0.7561462E-02  0.1169157E+00
         -2   -1    0    0    0  501 -0.00000000000E+00  0.00000000000E+00  0.15097879547E+03  0.15097879547E+03  0.00000000000E+00 0.  1.
          2   -1    0    0  501    0  0.00000000000E+00 -0.00000000000E+00 -0.25056285532E+03  0.25056285532E+03  0.00000000000E+00 0. -1.
         25    2    1    2    0    0 -0.71108778203E+02  0.14026810696E+03 -0.86600539313E+02  0.21881391339E+03  0.12509306581E+03 0.  0.
          5    1    3    3  502    0 -0.74666565213E+02  0.53798448849E+02 -0.94297618769E+02  0.13182898909E+03  0.41800000000E+01 0.  1.
         -5    1    3    3    0  502  0.35577870093E+01  0.86469658116E+02  0.76970794555E+01  0.86984924298E+02  0.41800000000E+01 0.  1.
        -11    1    1    2    0    0  0.30792954796E+01  0.11620314107E+02  0.87758244326E+01  0.14883845440E+02  0.00000000000E+00 0.  1.
         11    1    1    2    0    0  0.68029482724E+02 -0.15188842107E+03 -0.21759344974E+02  0.16784389196E+03  0.00000000000E+00 0. -1.
</event>
<event>
 7    1  0.2810263E-009  0.7763368E+02  0.7561462E-02  0.1335904E+00
         -2   -1    0    0    0  501 -0.00000000000E+00  0.00000000000E+00  0.34296424650E+03  0.34296424650E+03  0.00000000000E+00 0.  1.
          2   -1    0    0  501    0  0.00000000000E+00 -0.00000000000E+00 -0.54624897526E+02  0.54624897526E+02  0.00000000000E+00 0. -1.
         25    2    1    2    0    0 -0.21194946444E+02  0.40836871927E+02  0.58308380821E+02  0.14547959786E+03  0.12509024844E+03 0.  0.
          5    1    3    3  502    0 -0.37967594080E+02  0.23418025909E+02 -0.29937128816E+02  0.53885491734E+02  0.41800000000E+01 0.  1.
         -5    1    3    3    0  502  0.16772647636E+02  0.17418846017E+02  0.88245509637E+02  0.91594106123E+02  0.41800000000E+01 0.  1.
        -11    1    1    2    0    0 -0.19874556436E+00 -0.58304129511E+02  0.21012707769E+03  0.21806604457E+03  0.00000000000E+00 0.  1.
         11    1    1    2    0    0  0.21393692008E+02  0.17467257585E+02  0.19903890462E+02  0.34043501594E+02  0.00000000000E+00 0. -1.
</event>
<event>
 7    1  0.2810263E-009  0.1249643E+03  0.7561462E-02  0.1235125E+00
         -1   -1    0    0    0  501 -0.00000000000E+00  0.00000000000E+00  0.21529921895E+03  0.21529921895E+03  0.00000000000E+00 0.  1.
          1   -1    0    0  501    0  0.00000000000E+00 -0.00000000000E+00 -0.81810161674E+02  0.81810161674E+02  0.00000000000E+00 0. -1.
         25    2    1    2    0    0 -0.35077498822E+01 -0.63960397373E+02  0.12151478386E+03  0.18578691737E+03  0.12509076395E+03 0.  0.
          5    1    3    3  502    0  0.29723170734E+02  0.28953347554E+02  0.33462908636E+02  0.53469635004E+02  0.41800000000E+01 0. -1.
         -5    1    3    3    0  502 -0.33230920617E+02 -0.92913744927E+02  0.88051875227E+02  0.13231728236E+03  0.41800000000E+01 0. -1.
        -11    1    1    2    0    0 -0.15511766368E+02  0.81874354930E+02  0.16097823850E+02  0.84871460596E+02  0.00000000000E+00 0.  1.
         11    1    1    2    0    0  0.19019516251E+02 -0.17913957556E+02 -0.41235504324E+01  0.26451002664E+02  0.00000000000E+00 0. -1.
</event>
<event>
 7    1  0.2911218E-009  0.1322697E+03  0.7561462E-02  0.1224126E+00
          1   -1    0    0  501    0  0.00000000000E+00  0.00000000000E+00  0.16632382935E+03  0.16632382935E+03  0.00000000000E+00 0. -1.
         -1   -1    0    0    0  501 -0.00000000000E+00 -0.00000000000E+00 -0.15894817235E+03  0.15894817235E+03  0.00000000000E+00 0.  1.
         25    2    1    2    0    0  0.40795903089E+02 -0.95111266979E+02 -0.57785058753E+02  0.17232878147E+03  0.12509051560E+03 0.  0.
          5    1    3    3  502    0  0.65336807108E+02 -0.39376540104E+01 -0.37889527003E+02  0.75746235145E+02  0.41800000000E+01 0.  1.
         -5    1    3    3    0  502 -0.24540904019E+02 -0.91173612969E+02 -0.19895531750E+02  0.96582546329E+02  0.41800000000E+01 0.  1.
        -11    1    1    2    0    0 -0.99525365880E+01  0.40653509654E+02 -0.20700199358E+02  0.46693244535E+02  0.00000000000E+00 0.  1.
         11    1    1    2    0    0 -0.30843366501E+02  0.54457757325E+02  0.85860915116E+02  0.10624997569E+03  0.00000000000E+00 0. -1.
</event>
<event>
 7    1  0.2810263E-009  0.8697014E+02  0.7561462E-02  0.1310359E+00
         -2   -1    0    0    0  501 -0.00000000000E+00  0.00000000000E+00  0.29831844380E+02  0.29831844380E+02  0.00000000000E+00 0. -1.
          2   -1    0    0  501    0  0.00000000000E+00 -0.00000000000E+00 -0.44829258814E+03  0.44829258814E+03  0.00000000000E+00 0.  1.
         25    2    1    2    0    0  0.78275796049E+01 -0.65852208332E+01 -0.31678885027E+03  0.34074505421E+03  0.12508948867E+03 0.  0.
          5    1    3    3  502    0  0.32813020332E+02 -0.36042169890E+02 -0.28866884725E+03  0.29278474702E+03  0.41800000000E+01 0. -1.
         -5    1    3    3    0  502 -0.24985440728E+02  0.29456949057E+02 -0.28120003024E+02  0.47960307194E+02  0.41800000000E+01 0. -1.
        -11    1    1    2    0    0 -0.14182880824E+02 -0.38296661588E+02 -0.23779659154E+02  0.47257386584E+02  0.00000000000E+00 0. -1.
         11    1    1    2    0    0  0.63553012187E+01  0.44881882421E+02 -0.77892234334E+02  0.90121991727E+02  0.00000000000E+00 0.  1.
</event>
<event>
 7    1  0.2810263E-009  0.1623193E+03  0.7561462E-02  0.1186103E+00
         -3   -1    0    0    0  501 -0.00000000000E+00  0.00000000000E+00  0.17831323603E+03  0.17831323603E+03  0.00000000000E+00 0.  1.
          3   -1    0    0  501    0  0.00000000000E+00 -0.00000000000E+00 -0.20976797900E+03  0.20976797900E+03  0.00000000000E+00 0. -1.
         25    2    1    2    0    0 -0.12495087268E+03  0.87132131782E+02 -0.76496684437E+02  0.21143258859E+03  0.12508903955E+03 0.  0.
          5    1    3    3  502    0 -0.68218432715E+01  0.39054029437E+02 -0.73705169689E+02  0.83795460496E+02  0.41800000000E+01 0. -1.
         -5    1    3    3    0  502 -0.11812902941E+03  0.48078102345E+02 -0.27915147480E+01  0.12763712809E+03  0.41800000000E+01 0. -1.
        -11    1    1    2    0    0  0.58257222625E+02 -0.17687910344E+02  0.52064560446E+02  0.80109204307E+02  0.00000000000E+00 0.  1.
         11    1    1    2    0    0  0.66693650054E+02 -0.69444221438E+02 -0.70226189803E+01  0.96539422134E+02  0.00000000000E+00 0. -1.
</event>
<event>
 7    1  0.2810263E-009  0.1131867E+03  0.7561462E-02  0.1254780E+00
          2   -1    0    0  501    0  0.00000000000E+00  0.00000000000E+00  0.68542211494E+02  0.68542211494E+02  0.00000000000E+00 0. -1.
         -2   -1    0    0    0  501 -0.00000000000E+00 -0.00000000000E+00 -0.30666884695E+03  0.30666884695E+03  0.00000000000E+00 0.  1.
         25    2    1    2    0    0 -0.14310279470E+02  0.76679946904E+02 -0.56678317561E+02  0.15794001923E+03  0.12509204466E+03 0.  0.
          5    1    3    3  502    0  0.11027738667E+01  0.10942730493E+03 -0.32574727458E+02  0.11425469988E+03  0.41800000000E+01 0.  1.
         -5    1    3    3    0  502 -0.15413053337E+02 -0.32747358030E+02 -0.24103590102E+02  0.43685319352E+02  0.41800000000E+01 0.  1.
        -11    1    1    2    0    0  0.13547846925E+02 -0.22657128609E+02 -0.15478816086E+03  0.15702313325E+03  0.00000000000E+00 0.  1.
         11    1    1    2    0    0  0.76243254503E+00 -0.54022818294E+02 -0.26660157032E+02  0.60247905962E+02  0.00000000000E+00 0. -1.
</event>
<event>
 7    1  0.2810263E-009  0.1144616E+03  0.7561462E-02  0.1252524E+00
          2   -1    0    0  501    0  0.00000000000E+00  0.00000000000E+00  0.13404295923E+03  0.13404295923E+03  0.00000000000E+00 0.  1.
         -2   -1    0    0    0  501 -0.00000000000E+00 -0.00000000000E+00 -0.13486921859E+03  0.13486921859E+03  0.00000000000E+00 0. -1.
         25    2    1    2    0    0  0.46558812676E+02 -0.59135912804E+02 -0.28620927623E+02  0.14876779712E+03  0.12509164936E+03 0.  0.
          5    1    3    3  502    0 -0.29451519945E+02 -0.60822031718E+02 -0.83240919588E+00  0.67711718885E+02  0.41800000000E+01 0.  1.
         -5    1    3    3    0  502  0.76010332620E+02  0.16861189134E+01 -0.27788518427E+02  0.81056078232E+02  0.41800000000E+01 0.  1.
        -11    1    1    2    0    0 -0.10059673292E+02 -0.50339966899E+01  0.43276519019E+02  0.44714597704E+02  0.00000000000E+00 0.  1.
         11    1    1    2    0    0 -0.36499139384E+02  0.64169909494E+02 -0.15481850759E+02  0.75429782998E+02  0.00000000000E+00 0. -1.
</event>
<event>
 7    1  0.2810263E-009  0.1160642E+03  0.7561462E-02  0.1249735E+00
          2   -1    0    0  501    0  0.00000000000E+00  0.00000000000E+00  0.18548876257E+04  0.18548876257E+04  0.00000000000E+00 0.  1.
         -2   -1    0    0    0  501 -0.00000000000E+00 -0.00000000000E+00 -0.82930962893E+01  0.82930962893E+01  0.00000000000E+00 0. -1.
         25    2    1    2    0    0 -0.30216456959E+02 -0.28206264600E+02  0.13437871196E+04  0.13502285346E+04  0.12507855606E+03 0.  0.
          5    1    3    3  502    0  0.44899051851E+02 -0.32413374485E+02  0.49584308001E+03  0.49894326741E+03  0.41800000000E+01 0.  1.
         -5    1    3    3    0  502 -0.75115508810E+02  0.42071098851E+01  0.84794403961E+03  0.85128526720E+03  0.41800000000E+01 0.  1.
        -11    1    1    2    0    0  0.48962023459E+02 -0.17379902059E+02  0.23941212570E+03  0.24498470701E+03  0.00000000000E+00 0. -1.
         11    1    1    2    0    0 -0.18745566500E+02  0.45586166660E+02  0.26339528412E+03  0.26796748040E+03  0.00000000000E+00 0.  1.
</event>
<event>
 7    1  0.2810263E-009  0.2125491E+03  0.7561462E-02  0.1139563E+00
         -2   -1    0    0    0  501 -0.00000000000E+00  0.00000000000E+00  0.98165019712E+02  0.98165019712E+02  0.00000000000E+00 0.  1.
          2   -1    0    0  501    0  0.00000000000E+00 -0.00000000000E+00 -0.50806893963E+03  0.50806893963E+03  0.00000000000E+00 0. -1.
         25    2    1    2    0    0 -0.10467343927E+03  0.16234866317E+03 -0.24877619581E+03  0.33889029299E+03  0.12507364935E+03 0.  0.
          5    1    3    3  502    0 -0.88163212117E+02  0.18302311375E+03 -0.21583017559E+03  0.29642933262E+03  0.41800000000E+01 0. -1.
         -5    1    3    3    0  502 -0.16510227155E+02 -0.20674450587E+02 -0.32946020218E+02  0.42460960375E+02  0.41800000000E+01 0. -1.
        -11    1    1    2    0    0  0.40788569082E+02 -0.40183246568E+02 -0.10276135364E+03  0.11763628893E+03  0.00000000000E+00 0. -1.
         11    1    1    2    0    0  0.63884870190E+02 -0.12216541660E+03 -0.58366370469E+02  0.14970737742E+03  0.00000000000E+00 0.  1.
</event>
<event>
 7    1  0.2810263E-009  0.1950310E+03  0.7561462E-02  0.1154000E+00
         -1   -1    0    0    0  501 -0.00000000000E+00  0.00000000000E+00  0.33697476912E+02  0.33697476912E+02  0.00000000000E+00 0.  1.
          1   -1    0    0  501    0  0.00000000000E+00 -0.00000000000E+00 -0.12549287747E+04  0.12549287747E+04  0.00000000000E+00 0. -1.
         25    2    1    2    0    0  0.17404825680E+03 -0.13000955499E+02 -0.66694464981E+03  0.70066077482E+03  0.12509410426E+03 0.  0.
          5    1    3    3  502    0  0.61270101496E+02  0.50851975427E+02 -0.33331472862E+03  0.34271873228E+03  0.41800000000E+01 0. -1.
         -5    1    3    3    0  502  0.11277815530E+03 -0.63852930926E+02 -0.33362992119E+03  0.35794204253E+03  0.41800000000E+01 0. -1.
        -11    1    1    2    0    0 -0.13179438247E+03 -0.10675771003E+02 -0.48968514668E+03  0.50722310103E+03  0.00000000000E+00 0. -1.
         11    1    1    2    0    0 -0.42253874329E+02  0.23676726502E+02 -0.64601501274E+02  0.80742375743E+02  0.00000000000E+00 0.  1.
</event>
<event>
 7    1  0.2845124E-009  0.2334966E+03  0.7561462E-02  0.1124203E+00
         -2   -1    0    0    0  501 -0.00000000000E+00  0.00000000000E+00  0.88558304862E+02  0.88558304862E+02  0.00000000000E+00 0. -1.
          2   -1    0    0  501    0  0.00000000000E+00 -0.00000000000E+00 -0.63250349680E+03  0.63250349680E+03  0.00000000000E+00 0.  1.
         25    2    1    2    0    0 -0.18426604926E+03 -0.99049375281E+02 -0.30597185994E+03  0.39119256232E+03  0.12509231027E+03 0.  0.
          5    1    3    3  502    0 -0.11285937108E+03  0.41280854745E+01 -0.10519650324E+03  0.15439577528E+03  0.41800000000E+01 0. -1.
         -5    1    3    3    0  502 -0.71406678178E+02 -0.10317746076E+03 -0.20077535670E+03  0.23679678704E+03  0.41800000000E+01 0. -1.
        -11    1    1    2    0    0  0.93589705165E+02 -0.75073786944E+00 -0.97787985083E+02  0.13535910219E+03  0.00000000000E+00 0.  1.
         11    1    1    2    0    0  0.90676344091E+02  0.99800113151E+02 -0.14018534692E+03  0.19451013715E+03  0.00000000000E+00 0. -1.
</event>
<event>
 7    1  0.2810263E-009  0.9488407E+02  0.7561462E-02  0.1291437E+00
          1   -1    0    0  501    0  0.00000000000E+00  0.00000000000E+00  0.98094543731E+02  0.98094543731E+02  0.00000000000E+00 0. -1.
         -1   -1    0    0    0  501 -0.00000000000E+00 -0.00000000000E+00 -0.17421239229E+03  0.17421239229E+03  0.00000000000E+00 0.  1.
         25    2    1    2    0    0 -0.30885101314E+02 -0.69670227714E+01  0.25696859017E+02  0.13156437177E+03  0.12508567650E+03 0.  0.
          5    1    3    3  502    0 -0.19149080694E+02 -0.52979441030E+02  0.52293159919E+02  0.76977629462E+02  0.41800000000E+01 0. -1.
         -5    1    3    3    0  502 -0.11736020620E+02  0.46012418259E+02 -0.26596300901E+02  0.54586742307E+02  0.41800000000E+01 0. -1.
        -11    1    1    2    0    0  0.34332554840E+02 -0.31736211983E+02 -0.87732863177E+02  0.99413111581E+02  0.00000000000E+00 0.  1.
         11    1    1    2    0    0 -0.34474535262E+01  0.38703234754E+02 -0.14081844395E+02  0.41329452668E+02  0.00000000000E+00 0. -1.
</event>
<event>
 7    1  0.2810263E-009  0.9662673E+02  0.7561462E-02  0.1287554E+00
          2   -1    0    0  501    0  0.00000000000E+00  0.00000000000E+00  0.35923237171E+03  0.35923237171E+03  0.00000000000E+00 0. -1.
         -2   -1    0    0    0  501 -0.00000000000E+00 -0.00000000000E+00 -0.54398711521E+02  0.54398711521E+02  0.00000000000E+00 0.  1.
         25    2    1    2    0    0  0.44985674535E+02  0.41424549862E+02  0.26115464888E+03  0.29595431450E+03  0.12508997319E+03 0.  0.
          5    1    3    3  502    0 -0.17806114255E+02 -0.31091433359E+02  0.11950251456E+03  0.12482811510E+03  0.41800000000E+01 0.  1.
         -5    1    3    3    0  502  0.62791788790E+02  0.72515983221E+02  0.14165213432E+03  0.17112619940E+03  0.41800000000E+01 0.  1.
        -11    1    1    2    0    0 -0.13489316348E+02 -0.11634953912E+02 -0.28423628092E+02  0.33544544146E+02  0.00000000000E+00 0.  1.
         11    1    1    2    0    0 -0.31496358187E+02 -0.29789595950E+02  0.72102639397E+02  0.84132224587E+02  0.00000000000E+00 0. -1.
</event>
<event>
 7    1  0.2810263E-009  0.8873356E+02  0.7561462E-02  0.1305948E+00
          3   -1    0    0  501    0  0.00000000000E+00  0.00000000000E+00  0.16985331316E+03  0.16985331316E+03  0.00000000000E+00 0. -1.
         -3   -1    0    0    0  501 -0.00000000000E+00 -0.00000000000E+00 -0.92671685288E+02  0.92671685288E+02  0.00000000000E+00 0.  1.
         25    2    1    2    0    0  0.51510897026E+02 -0.17913067105E+02 -0.77184428536E+01  0.13667989854E+03  0.12509024670E+03 0.  0.
          5    1    3    3  502    0  0.58040646993E+02  0.11119670390E+02  0.46082112791E+02  0.75055961071E+02  0.41800000000E+01 0. -1.
         -5    1    3    3    0  502 -0.65297499672E+01 -0.29032737495E+02 -0.53800555645E+02  0.61623937466E+02  0.41800000000E+01 0. -1.
        -11    1    1    2    0    0 -0.42688728208E+02  0.43596801632E+02  0.75575421520E+02  0.97132141779E+02  0.00000000000E+00 0.  1.
         11    1    1    2    0    0 -0.88221688182E+01 -0.25683734527E+02  0.93246492056E+01  0.28712958133E+02  0.00000000000E+00 0. -1.
</event>
<event>
 7    1  0.2810263E-009  0.1651144E+03  0.7561462E-02  0.1183041E+00
         -1   -1    0    0    0  501 -0.00000000000E+00  0.00000000000E+00  0.88673845115E+02  0.88673845115E+02  0.00000000000E+00 0.  1.
          1   -1    0    0  501    0  0.00000000000E+00 -0.00000000000E+00 -0.35688771635E+03  0.35688771635E+03  0.00000000000E+00 0. -1.
         25    2    1    2    0    0 -0.57462699070E+02 -0.12233803256E+03 -0.91296424170E+02  0.20554895472E+03  0.12508708857E+03 0.  0.
          5    1    3    3  502    0 -0.85940772079E+02 -0.11013254270E+03 -0.10142705719E+03  0.17268443357E+03  0.41800000000E+01 0. -1.
         -5    1    3    3    0  502  0.28478073009E+02 -0.12205489859E+02  0.10130633024E+02  0.32864521150E+02  0.41800000000E+01 0. -1.
        -11    1    1    2    0    0  0.79243528885E+02  0.10389087480E+03 -0.12532164178E+03  0.18104796225E+03  0.00000000000E+00 0.  1.
         11    1    1    2    0    0 -0.21780829814E+02  0.18447157764E+02 -0.51595805283E+02  0.58964644489E+02  0.00000000000E+00 0. -1.
</event>
<event>
 7    1  0.2810263E-009  0.1420643E+03  0.7561462E-02  0.1210578E+00
          1   -1    0    0  501    0  0.00000000000E+00  0.00000000000E+00  0.30503960250E+03  0.30503960250E+03  0.00000000000E+00 0. -1.
         -1   -1    0    0    0  501 -0.00000000000E+00 -0.00000000000E+00 -0.92054784604E+02  0.92054784604E+02  0.00000000000E+00 0.  1.
         25    2    1    2    0    0 -0.10616140008E+03 -0.47206828943E+02  0.48975958576E+02  0.17760642876E+03  0.12508665577E+03 0.  0.
          5    1    3    3  502    0 -0.77611824076E+02  0.20763330625E+02 -0.12637236649E+02  0.81436375688E+02  0.41800000000E+01 0. -1.
         -5    1    3    3    0  502 -0.28549576002E+02 -0.67970159568E+02  0.61613195225E+02  0.96170053070E+02  0.41800000000E+01 0. -1.
        -11    1    1    2    0    0  0.73221765660E+02  0.59835120910E+02  0.15736510506E+03  0.18359042717E+03  0.00000000000E+00 0.  1.
         11    1    1    2    0    0  0.32939634418E+02 -0.12628291966E+02  0.66437542640E+01  0.35897531173E+02  0.00000000000E+00 0. -1.
</event>
<event>
 7    1  0.2810263E-009  0.8828061E+02  0.7561462E-02  0.1307070E+00
          1   -1    0    0  501    0  0.00000000000E+00  0.00000000000E+00  0.59104466666E+02  0.59104466666E+02  0.00000000000E+00 0. -1.
         -1   -1    0    0    0  501 -0.00000000000E+00 -0.00000000000E+00 -0.24321748195E+03  0.24321748195E+03  0.00000000000E+00 0.  1.
         25    2    1    2    0    0  0.22499334566E+02 -0.35615817430E+02 -0.73935027887E+02  0.15127799257E+03  0.12507572178E+03 0.  0.
          5    1    3    3  502    0 -0.32862132103E+02 -0.24209803685E+02 -0.84211415198E+02  0.93675339180E+02  0.41800000000E+01 0. -1.
         -5    1    3    3    0  502  0.55361466668E+02 -0.11406013744E+02  0.10276387311E+02  0.57602653388E+02  0.41800000000E+01 0. -1.
        -11    1    1    2    0    0  0.64441782721E+01  0.47228294293E+02 -0.13618485836E+02  0.49573202155E+02  0.00000000000E+00 0. -1.
         11    1    1    2    0    0 -0.28943512838E+02 -0.11612476863E+02 -0.96559501563E+02  0.10147075390E+03  0.00000000000E+00 0.  1.
</event>
<event>
 7    1  0.2810263E-009  0.1385367E+03  0.7561462E-02  0.1215312E+00
         -1   -1    0    0    0  501 -0.00000000000E+00  0.00000000000E+00  0.73437966813E+02  0.73437966813E+02  0.00000000000E+00 0.  1.
          1   -1    0    0  501    0  0.00000000000E+00 -0.00000000000E+00 -0.31205249991E+03  0.31205249991E+03  0.00000000000E+00 0. -1.
         25    2    1    2    0    0  0.84558111320E+02  0.27359000953E+02 -0.19978273155E+03  0.25191146147E+03  0.12509058907E+03 0.  0.
          5    1    3    3  502    0  0.65052417550E+02 -0.44286055916E+02 -0.11024595998E+03  0.13551647822E+03  0.41800000000E+01 0.  1.
         -5    1    3    3    0  502  0.19505693770E+02  0.71645056870E+02 -0.89536771571E+02  0.11639498325E+03  0.41800000000E+01 0.  1.
        -11    1    1    2    0    0  0.17722042291E+02 -0.93673406723E+01 -0.19459172649E+02  0.27937023006E+02  0.00000000000E+00 0. -1.
         11    1    1    2    0    0 -0.10228015361E+03 -0.17991660281E+02 -0.19372628904E+02  0.10564198225E+03  0.00000000000E+00 0.  1.
</event>
<event>
 7    1  0.2810263E-009  0.8395026E+02  0.7561462E-02  0.1318201E+00
          1   -1    0    0  501    0  0.00000000000E+00  0.00000000000E+00  0.69790806679E+02  0.69790806679E+02  0.00000000000E+00 0. -1.
         -1   -1    0    0    0  501 -0.00000000000E+00 -0.00000000000E+00 -0.19779494226E+03  0.19779494226E+03  0.00000000000E+00 0.  1.
         25    2    1    2    0    0  0.29330990889E+02  0.23188355328E+02 -0.47609804224E+02  0.13896971505E+03  0.12509149209E+03 0.  0.
          5    1    3    3  502    0 -0.76574457035E+01 -0.17239504274E+02 -0.75083805486E+02  0.77529911831E+02  0.41800000000E+01 0. -1.
         -5    1    3    3    0  502  0.36988436593E+02  0.40427859602E+02  0.27474001262E+02  0.61439803214E+02  0.41800000000E+01 0. -1.
        -11    1    1    2    0    0 -0.58052583726E+02 -0.28083688604E+02 -0.75124486312E+02  0.99007497123E+02  0.00000000000E+00 0.  1.
         11    1    1    2    0    0  0.28721592837E+02  0.48953332753E+01 -0.52698450445E+01  0.29608536771E+02  0.00000000000E+00 0. -1.
</event>
<event>
 7    1  0.2810263E-009  0.1084932E+03  0.7561462E-02  0.1263386E+00
          2   -1    0    0  501    0  0.00000000000E+00  0.00000000000E+00  0.39849536067E+03  0.39849536067E+03  0.00000000000E+00 0. -1.
         -2   -1    0    0    0  501 -0.00000000000E+00 -0.00000000000E+00 -0.55684738750E+02  0.55684738750E+02  0.00000000000E+00 0.  1.
         25    2    1    2    0    0 -0.57259357510E+02  0.27073683293E+02  0.62492313916E+02  0.15350591005E+03  0.12508859569E+03 0.  0.
          5    1    3    3  502    0  0.11927382191E+02 -0.20672714692E+02  0.64930469517E+02  0.69304125781E+02  0.41800000000E+01 0. -1.
         -5    1    3    3    0  502 -0.69186739701E+02  0.47746397984E+02 -0.24381556004E+01  0.84201784267E+02  0.41800000000E+01 0. -1.
        -11    1    1    2    0    0 -0.19723117040E+02 -0.24649873573E+02  0.74252686015E+02  0.80685060534E+02  0.00000000000E+00 0.  1.
         11    1    1    2    0    0  0.76982474551E+02 -0.24238097195E+01  0.20606562199E+03  0.21998912884E+03  0.00000000000E+00 0. -1.
</event>
<event>
 7    1  0.2810263E-009  0.1173068E+03  0.7561462E-02  0.1247607E+00
         -1   -1    0    0    0  501 -0.00000000000E+00  0.00000000000E+00  0.18392184246E+03  0.18392184246E+03  0.00000000000E+00 0.  1.
          1   -1    0    0  501    0  0.00000000000E+00 -0.00000000000E+00 -0.14746330616E+03  0.14746330616E+03  0.00000000000E+00 0. -1.
         25    2    1    2    0    0  0.35223521124E+02 -0.11127659113E+03  0.58988311201E+02  0.18097162655E+03  0.12509169671E+03 0.  0.
          5    1    3    3  502    0  0.26071048551E+02 -0.66401810294E+02 -0.32555429146E+02  0.78525335719E+02  0.41800000000E+01 0.  1.
         -5    1    3    3    0  502  0.91524725737E+01 -0.44874780836E+02  0.91543740347E+02  0.10244629084E+03  0.41800000000E+01 0.  1.
        -11    1    1    2    0    0 -0.19804485069E+02  0.45804717212E+02  0.35772212807E+02  0.61399844925E+02  0.00000000000E+00 0.  1.
         11    1    1    2    0    0 -0.15419036055E+02  0.65471873918E+02 -0.58301987708E+02  0.89013677140E+02  0.00000000000E+00 0. -1.
</event>
<event>
 7    1  0.2810263E-009  0.8615488E+02  0.7561462E-02  0.1312440E+00
          2   -1    0    0  501    0  0.00000000000E+00  0.00000000000E+00  0.65313745574E+03  0.65313745574E+03  0.00000000000E+00 0. -1.
         -2   -1    0    0    0  501 -0.00000000000E+00 -0.00000000000E+00 -0.20564272324E+02  0.20564272324E+02  0.00000000000E+00 0.  1.
         25    2    1    2    0    0 -0.63538218374E+01 -0.28118741497E+02  0.43915990708E+03  0.45753620160E+03  0.12508763770E+03 0.  0.
          5    1    3    3  502    0 -0.35704428197E+02 -0.44272770793E+02  0.88686062152E+02  0.10543990917E+03  0.41800000000E+01 0.  1.
         -5    1    3    3    0  502  0.29350606359E+02  0.16154029296E+02  0.35047384493E+03  0.35209629242E+03  0.41800000000E+01 0.  1.
        -11    1    1    2    0    0  0.41338055194E+02  0.18105025689E+02  0.46444933540E+02  0.64759235742E+02  0.00000000000E+00 0.  1.
         11    1    1    2    0    0 -0.34984233357E+02  0.10013715807E+02  0.14696834279E+03  0.15140629072E+03  0.00000000000E+00 0. -1.
</event>
<event>
 7    1  0.2810263E-009  0.8875384E+02  0.7561462E-02  0.1305898E+00
         -2   -1    0    0    0  501 -0.00000000000E+00  0.00000000000E+00  0.96635691283E+02  0.96635691283E+02  0.00000000000E+00 0. -1.
          2   -1    0    0  501    0  0.00000000000E+00 -0.00000000000E+00 -0.16987196219E+03  0.16987196219E+03  0.00000000000E+00 0.  1.
         25    2    1    2    0    0 -0.28640090466E+02  0.47953153452E+02 -0.85224361086E+02  0.16134077924E+03  0.12509154893E+03 0.  0.
          5    1    3    3  502    0 -0.33606224267E+02 -0.12307786429E+02  0.19029728132E+02  0.40748777516E+02  0.41800000000E+01 0.  1.
         -5    1    3    3    0  502  0.49661338007E+01  0.60260939881E+02 -0.10425408922E+03  0.12059200172E+03  0.41800000000E+01 0.  1.
        -11    1    1    2    0    0  0.43848302921E+02 -0.48835292803E+02 -0.20935147782E+02  0.68890056647E+02  0.00000000000E+00 0.  1.
         11    1    1    2    0    0 -0.15208212455E+02  0.88213935079E+00  0.32923237966E+02  0.36276817585E+02  0.00000000000E+00 0. -1.
</event>
<event>
 7    1  0.2810263E-009  0.1064276E+03  0.7561462E-02  0.1267332E+00
         -2   -1    0    0    0  501 -0.00000000000E+00  0.00000000000E+00  0.12819620677E+02  0.12819620677E+02  0.00000000000E+00 0.  1.
          2   -1    0    0  501    0  0.00000000000E+00 -0.00000000000E+00 -0.89870003130E+03  0.89870003130E+03  0.00000000000E+00 0. -1.
         25    2    1    2    0    0  0.42848468444E+01 -0.71463059487E-01 -0.51196180500E+03  0.52703986293E+03  0.12509101614E+03 0.  0.
          5    1    3    3  502    0 -0.39574021426E+02  0.45905003617E+02 -0.27851972576E+03  0.28506855766E+03  0.41800000000E+01 0. -1.
         -5    1    3    3    0  502  0.43858868270E+02 -0.45976466677E+02 -0.23344207925E+03  0.24197130528E+03  0.41800000000E+01 0. -1.
        -11    1    1    2    0    0  0.13471209607E+02 -0.41279892196E+02 -0.15404376097E+03  0.16004681591E+03  0.00000000000E+00 0.  1.
         11    1    1    2    0    0 -0.17756056451E+02  0.41351355255E+02 -0.21987484465E+03  0.22443297314E+03  0.00000000000E+00 0. -1.
</event>
<event>
 7    1  0.2810263E-009  0.1922434E+03  0.7561462E-02  0.1156453E+00
         -1   -1    0    0    0  501 -0.00000000000E+00  0.00000000000E+00  0.15493079938E+03  0.15493079938E+03  0.00000000000E+00 0.  1.
          1   -1    0    0  501    0  0.00000000000E+00 -0.00000000000E+00 -0.37457903341E+03  0.37457903341E+03  0.00000000000E+00 0. -1.
         25    2    1    2    0    0 -0.17075849804E+03 -0.53904922388E+02  0.16994943324E+02  0.21908940041E+03  0.12508849653E+03 0.  0.
          5    1    3    3  502    0 -0.17081839621E+03 -0.23890997789E+02  0.44485372752E+02  0.17817442311E+03  0.41800000000E+01 0.  1.
         -5    1    3    3    0  502  0.59898175045E-01 -0.30013924599E+02 -0.27490429428E+02  0.40914977304E+02  0.41800000000E+01 0.  1.
        -11    1    1    2    0    0  0.14607192964E+03  0.34092411862E+02 -0.23491546371E+03  0.27871952976E+03  0.00000000000E+00 0. -1.
         11    1    1    2    0    0  0.24686568401E+02  0.19812510526E+02 -0.17277136469E+01  0.31700902624E+02  0.00000000000E+00 0.  1.
</event>
<event>
 7    1  0.2810263E-009  0.7588984E+02  0.7561462E-02  0.1341137E+00
         -1   -1    0    0    0  501 -0.00000000000E+00  0.00000000000E+00  0.17500969860E+03  0.17500969860E+03  0.00000000000E+00 0. -1.
          1   -1    0    0  501    0  0.00000000000E+00 -0.00000000000E+00 -0.90145970778E+02  0.90145970778E+02  0.00000000000E+00 0.  1.
         25    2    1    2    0    0  0.27077277455E+02 -0.36623354903E+01 -0.12207814189E+02  0.12861371786E+03  0.12508343631E+03 0.  0.
          5    1    3    3  502    0 -0.15025105935E+02  0.24527732070E+02 -0.54969381126E+02  0.62180935263E+02  0.41800000000E+01 0. -1.
         -5    1    3    3    0  502  0.42102383390E+02 -0.28190067561E+02  0.42761566937E+02  0.66432782593E+02  0.41800000000E+01 0. -1.
        -11    1    1    2    0    0  0.20927731096E+02 -0.81124074077E+01 -0.51224581177E+01  0.23022177568E+02  0.00000000000E+00 0.  1.
         11    1    1    2    0    0 -0.48005008551E+02  0.11774742898E+02  0.10219400013E+03  0.11351977396E+03  0.00000000000E+00 0. -1.
</event>
<event>
 7    1  0.2810263E-009  0.1098912E+03  0.7561462E-02  0.1260772E+00
         -1   -1    0    0    0  501 -0.00000000000E+00  0.00000000000E+00  0.15106234646E+02  0.15106234646E+02  0.00000000000E+00 0.  1.
          1   -1    0    0  501    0  0.00000000000E+00 -0.00000000000E+00 -0.14794478596E+04  0.14794478596E+04  0.00000000000E+00 0. -1.
         25    2    1    2    0    0  0.15528056801E+02 -0.88465989371E+02 -0.10386640567E+04  0.10500173316E+04  0.12508406072E+03 0.  0.
          5    1    3    3  502    0  0.17713100265E+01 -0.80593799950E+02 -0.10263398659E+04  0.10295093448E+04  0.41800000000E+01 0.  1.
         -5    1    3    3    0  502  0.13756746775E+02 -0.78721894207E+01 -0.12324190759E+02  0.20507986883E+02  0.41800000000E+01 0.  1.
        -11    1    1    2    0    0  0.12234523757E+02  0.93633613185E+02 -0.26327913779E+03  0.27970134337E+03  0.00000000000E+00 0.  1.
         11    1    1    2    0    0 -0.27762580558E+02 -0.51676238149E+01 -0.16239843046E+03  0.16483541922E+03  0.00000000000E+00 0. -1.
</event>
<event>
 7    1  0.2810263E-009  0.8950521E+02  0.7561462E-02  0.1304054E+00
          1   -1    0    0  501    0  0.00000000000E+00  0.00000000000E+00  0.48463499429E+02  0.48463499429E+02  0.00000000000E+00 0. -1.
         -1   -1    0    0    0  501 -0.00000000000E+00 -0.00000000000E+00 -0.32894304672E+03  0.32894304672E+03  0.00000000000E+00 0.  1.
         25    2    1    2    0    0 -0.70203385949E+01 -0.38256064888E+02 -0.23406511816E+03  0.26823079496E+03  0.12509383748E+03 0.  0.
          5    1    3    3  502    0  0.31300821646E+02  0.46039804389E+01 -0.19728941374E+03  0.19985375464E+03  0.41800000000E+01 0. -1.
         -5    1    3    3    0  502 -0.38321160241E+02 -0.42860045327E+02 -0.36775704419E+02  0.68377040322E+02  0.41800000000E+01 0. -1.
        -11    1    1    2    0    0  0.37290290733E+02 -0.39664911102E+01 -0.43081845604E+02  0.57116934926E+02  0.00000000000E+00 0.  1.
         11    1    1    2    0    0 -0.30269952138E+02  0.42222555998E+02 -0.33325835327E+01  0.52058816261E+02  0.00000000000E+00 0. -1.
</event>
<event>
 7    1  0.2810263E-009  0.8449180E+02  0.7561462E-02  0.1316767E+00
         -4   -1    0    0    0  501 -0.00000000000E+00  0.00000000000E+00  0.19366826267E+03  0.19366826267E+03  0.00000000000E+00 0.  1.
          4   -1    0    0  501    0  0.00000000000E+00 -0.00000000000E+00 -0.92681621803E+02  0.92681621803E+02  0.00000000000E+00 0. -1.
         25    2    1    2    0    0 -0.25941863063E+02 -0.68030153335E+02  0.29227216431E+02  0.14764375696E+03  0.12507344550E+03 0.  0.
          5    1    3    3  502    0 -0.11262158271E+02  0.16919307604E+01  0.66172473165E+02  0.67275310801E+02  0.41800000000E+01 0. -1.
         -5    1    3    3    0  502 -0.14679704792E+02 -0.69722084095E+02 -0.36945256735E+02  0.80368446163E+02  0.41800000000E+01 0. -1.
        -11    1    1    2    0    0 -0.12506771238E+02  0.23703144294E+02  0.75293651955E+02  0.79921163661E+02  0.00000000000E+00 0.  1.
         11    1    1    2    0    0  0.38448634301E+02  0.44327009041E+02 -0.35342275210E+01  0.58784963845E+02  0.00000000000E+00 0. -1.
</event>
<event>
 7    1  0.2810263E-009  0.1049406E+03  0.7561462E-02  0.1270237E+00
          2   -1    0    0  501    0  0.00000000000E+00  0.00000000000E+00  0.57686500711E+03  0.57686500711E+03  0.00000000000E+00 0. -1.
         -2   -1    0    0    0  501 -0.00000000000E+00 -0.00000000000E+00 -0.27103226732E+02  0.27103226732E+02  0.00000000000E+00 0.  1.
         25    2    1    2    0    0  0.19138885222E+02 -0.21190431966E+02  0.45648737470E+03  0.47417659746E+03  0.12508953188E+03 0.  0.
          5    1    3    3  502    0 -0.13811388230E+02 -0.67834055632E+02  0.21123719207E+03  0.22233046858E+03  0.41800000000E+01 0. -1.
         -5    1    3    3    0  502  0.32950273452E+02  0.46643623666E+02  0.24525018263E+03  0.25184612888E+03  0.41800000000E+01 0. -1.
        -11    1    1    2    0    0 -0.94581877439E+01 -0.29852758430E+02  0.12427762198E+02  0.33691152763E+02  0.00000000000E+00 0.  1.
         11    1    1    2    0    0 -0.96806974776E+01  0.51043190396E+02  0.80846643479E+02  0.96100483616E+02  0.00000000000E+00 0. -1.
</event>
<event>
 7    1  0.2810263E-009  0.3247995E+03  0.7561462E-02  0.1073461E+00
          2   -1    0    0  501    0  0.00000000000E+00  0.00000000000E+00  0.20374173604E+04  0.20374173604E+04  0.00000000000E+00 0.  1.
         -2   -1    0    0    0  501 -0.00000000000E+00 -0.00000000000E+00 -0.54130362252E+02  0.54130362252E+02  0.00000000000E+00 0. -1.
         25    2    1    2    0    0 -0.10888703313E+03 -0.29344630060E+03  0.10554103068E+04  0.11079286800E+04  0.12509167398E+03 0.  0.
          5    1    3    3  502    0 -0.72141476546E+02 -0.55979298999E+02  0.21021634652E+03  0.22923014483E+03  0.41800000000E+01 0.  1.
         -5    1    3    3    0  502 -0.36745556582E+02 -0.23746700160E+03  0.84519396028E+03  0.87869853515E+03  0.41800000000E+01 0.  1.
        -11    1    1    2    0    0 -0.33770569570E+01  0.46171312694E+02  0.71181251350E+02  0.84911513785E+02  0.00000000000E+00 0. -1.
         11    1    1    2    0    0  0.11226409009E+03  0.24727498791E+03  0.85669544003E+03  0.89870752892E+03  0.00000000000E+00 0.  1.
</event>
<event>
 7    1  0.2810263E-009  0.1094647E+03  0.7561462E-02  0.1261564E+00
         -2   -1    0    0    0  501 -0.00000000000E+00  0.00000000000E+00  0.31736837172E+02  0.31736837172E+02  0.00000000000E+00 0. -1.
          2   -1    0    0  501    0  0.00000000000E+00 -0.00000000000E+00 -0.43456266097E+03  0.43456266097E+03  0.00000000000E+00 0.  1.
         25    2    1    2    0    0 -0.38479350019E+02  0.22119908927E+02 -0.20132385038E+03  0.24114050046E+03  0.12508995754E+03 0.  0.
          5    1    3    3  502    0  0.25794824968E+02  0.51318066421E+02 -0.60318712834E+02  0.83395062530E+02  0.41800000000E+01 0. -1.
         -5    1    3    3    0  502 -0.64274174988E+02 -0.29198157495E+02 -0.14100513755E+03  0.15774543793E+03  0.41800000000E+01 0. -1.
        -11    1    1    2    0    0  0.48074776275E+02  0.16500602258E+02 -0.15903820227E+03  0.16696288141E+03  0.00000000000E+00 0.  1.
         11    1    1    2    0    0 -0.95954262559E+01 -0.38620511185E+02 -0.42463771146E+02  0.58196116272E+02  0.00000000000E+00 0. -1.
</event>
<event>
 7    1  0.2810263E-009  0.1364500E+03  0.7561462E-02  0.1218187E+00
          1   -1    0    0  501    0  0.00000000000E+00  0.00000000000E+00  0.12956932130E+04  0.12956932130E+04  0.00000000000E+00 0. -1.
         -1   -1    0    0    0  501 -0.00000000000E+00 -0.00000000000E+00 -0.15709278424E+02  0.15709278424E+02  0.00000000000E+00 0.  1.
         25    2    1    2    0    0 -0.26722485077E+02 -0.85402547668E+02  0.81048216195E+03  0.82494602270E+03  0.12508764596E+03 0.  0.
          5    1    3    3  502    0 -0.52160879009E+02 -0.10768009953E+03  0.63427880170E+03  0.64547876172E+03  0.41800000000E+01 0. -1.
         -5    1    3    3    0  502  0.25438393933E+02  0.22277551865E+02  0.17620336025E+03  0.17946726099E+03  0.41800000000E+01 0. -1.
        -11    1    1    2    0    0  0.51598648603E+02  0.33412910229E+02  0.15551103476E+03  0.16721998995E+03  0.00000000000E+00 0.  1.
         11    1    1    2    0    0 -0.24876163526E+02  0.51989637439E+02  0.31399073787E+03  0.31923647877E+03  0.00000000000E+00 0. -1.
</event>
<event>
 7    1  0.2810263E-009  0.9954373E+02  0.7561462E-02  0.1281258E+00
         -2   -1    0    0    0  501 -0.00000000000E+00  0.00000000000E+00  0.91441908495E+02  0.91441908495E+02  0.00000000000E+00 0.  1.
          2   -1    0    0  501    0  0.00000000000E+00 -0.00000000000E+00 -0.14437677862E+03  0.14437677862E+03  0.00000000000E+00 0. -1.
         25    2    1    2    0    0 -0.32830301424E+02  0.90628703877E+01 -0.45202027788E+02  0.13730219723E+03  0.12509478701E+03 0.  0.
          5    1    3    3  502    0 -0.40439741831E+02  0.62533492622E+02 -0.34065582221E+02  0.81998455540E+02  0.41800000000E+01 0. -1.
         -5    1    3    3    0  502  0.76094404070E+01 -0.53470622235E+02 -0.11136445568E+02  0.55303741694E+02  0.41800000000E+01 0. -1.
        -11    1    1    2    0    0  0.33808449708E+02  0.21294655577E+02  0.30081947124E+02  0.50013969753E+02  0.00000000000E+00 0.  1.
         11    1    1    2    0    0 -0.97814828343E+00 -0.30357525964E+02 -0.37814789457E+02  0.48502520124E+02  0.00000000000E+00 0. -1.
</event>
<event>
 7    1  0.2810263E-009  0.1067128E+03  0.7561462E-02  0.1266781E+00
         -1   -1    0    0    0  501 -0.00000000000E+00  0.00000000000E+00  0.22420964007E+03  0.22420964007E+03  0.00000000000E+00 0.  1.
          1   -1    0    0  501    0  0.00000000000E+00 -0.00000000000E+00 -0.70584711897E+02  0.70584711897E+02  0.00000000000E+00 0. -1.
         25    2    1    2    0    0 -0.13339806741E+02  0.51308732887E+02  0.12854717655E+03  0.18703498507E+03  0.12508865867E+03 0.  0.
          5    1    3    3  502    0 -0.64172595520E+02  0.46704960662E+02  0.52148679639E+02  0.95060152294E+02  0.41800000000E+01 0.  1.
         -5    1    3    3    0  502  0.50832788778E+02  0.46037722246E+01  0.76398496914E+02  0.91974832777E+02  0.41800000000E+01 0.  1.
        -11    1    1    2    0    0 -0.22854958304E+02 -0.40550969401E+01  0.40132914995E+02  0.46362094391E+02  0.00000000000E+00 0.  1.
         11    1    1    2    0    0  0.36194765045E+02 -0.47253635946E+02 -0.15055163375E+02  0.61397272505E+02  0.00000000000E+00 0. -1.
</event>
<event>
 7    1  0.2810263E-009  0.1156560E+03  0.7561462E-02  0.1250440E+00
         -1   -1    0    0    0  501 -0.00000000000E+00  0.00000000000E+00  0.22452057938E+03  0.22452057938E+03  0.00000000000E+00 0.  1.
          1   -1    0    0  501    0  0.00000000000E+00 -0.00000000000E+00 -0.70194950582E+02  0.70194950582E+02  0.00000000000E+00 0. -1.
         25    2    1    2    0    0  0.40916863680E+02  0.47051533347E+02  0.99854013340E+02  0.17177699242E+03  0.12509386324E+03 0.  0.
          5    1    3    3  502    0  0.65072180913E+02  0.64192529798E+02  0.10723449969E+03  0.14096730094E+03  0.41800000000E+01 0.  1.
         -5    1    3    3    0  502 -0.24155317233E+02 -0.17140996450E+02 -0.73804863522E+01  0.30809691474E+02  0.41800000000E+01 0.  1.
        -11    1    1    2    0    0  0.29195500178E+02 -0.14480020390E+02  0.11975989730E+02  0.34719915771E+02  0.00000000000E+00 0.  1.
         11    1    1    2    0    0 -0.70112363858E+02 -0.32571512957E+02  0.42495625733E+02  0.88218621779E+02  0.00000000000E+00 0. -1.
</event>
<event>
 7    1  0.2810263E-009  0.1509547E+03  0.7561462E-02  0.1199305E+00
         -2   -1    0    0    0  501 -0.00000000000E+00  0.00000000000E+00  0.61006993632E+02  0.61006993632E+02  0.00000000000E+00 0.  1.
          2   -1    0    0  501    0  0.00000000000E+00 -0.00000000000E+00 -0.78881757736E+03  0.78881757736E+03  0.00000000000E+00 0. -1.
         25    2    1    2    0    0 -0.10289405709E+03 -0.33386990434E+02 -0.68267213838E+03  0.70241753838E+03  0.12508905459E+03 0.  0.
          5    1    3    3  502    0 -0.28572936452E+02  0.46979931219E+02 -0.19933839201E+03  0.20682551478E+03  0.41800000000E+01 0.  1.
         -5    1    3    3    0  502 -0.74321120640E+02 -0.80366921653E+02 -0.48333374637E+03  0.49559202359E+03  0.41800000000E+01 0.  1.
        -11    1    1    2    0    0  0.35812447351E+02  0.55963241621E+02 -0.64729851314E+01  0.66755638972E+02  0.00000000000E+00 0. -1.
         11    1    1    2    0    0  0.67081609742E+02 -0.22576251187E+02 -0.38665460214E+02  0.80651393644E+02  0.00000000000E+00 0.  1.
</event>
<event>
 7    1  0.2810263E-009  0.1340260E+03  0.7561462E-02  0.1221601E+00
          1   -1    0    0  501    0  0.00000000000E+00  0.00000000000E+00  0.40292807938E+03  0.40292807938E+03  0.00000000000E+00 0. -1.
         -1   -1    0    0    0  501 -0.00000000000E+00 -0.00000000000E+00 -0.65830985413E+02  0.65830985413E+02  0.00000000000E+00 0.  1.
         25    2    1    2    0    0 -0.78571175640E+02 -0.85005299779E+01  0.31136828032E+03  0.34473611634E+03  0.12508834986E+03 0.  0.
          5    1    3    3  502    0 -0.11154014783E+03  0.27188131833E+01  0.21656838236E+03  0.24365535734E+03  0.41800000000E+01 0. -1.
         -5    1    3    3    0  502  0.32968972186E+02 -0.11219343161E+02  0.94799897956E+02  0.10108075900E+03  0.41800000000E+01 0. -1.
        -11    1    1    2    0    0  0.35595107193E+02 -0.41972770263E+02  0.11670881432E+02  0.56257751227E+02  0.00000000000E+00 0.  1.
         11    1    1    2    0    0  0.42976068447E+02  0.50473300241E+02  0.14057932217E+02  0.67765197223E+02  0.00000000000E+00 0. -1.
</event>
<event>
 7    1  0.2810263E-009  0.1332398E+03  0.7561462E-02  0.1222726E+00
         -2   -1    0    0    0  501 -0.00000000000E+00  0.00000000000E+00  0.31087680895E+02  0.31087680895E+02  0.00000000000E+00 0.  1.
          2   -1    0    0  501    0  0.00000000000E+00 -0.00000000000E+00 -0.97360727417E+03  0.97360727417E+03  0.00000000000E+00 0. -1.
         25    2    1    2    0    0  0.25937685268E+02 -0.11212117286E+03 -0.70373200111E+03  0.72396789875E+03  0.12508744187E+03 0.  0.
          5    1    3    3  502    0 -0.10293881968E+02 -0.95964715474E+01 -0.31885557743E+01  0.15023167444E+02  0.41800000000E+01 0.  1.
         -5    1    3    3    0  502  0.36231567236E+02 -0.10252470132E+03 -0.70054344533E+03  0.70894473130E+03  0.41800000000E+01 0.  1.
        -11    1    1    2    0    0  0.23148799425E-01  0.11663040069E+03 -0.16253869882E+03  0.20005369158E+03  0.00000000000E+00 0.  1.
         11    1    1    2    0    0 -0.25960834068E+02 -0.45092278282E+01 -0.76248893353E+02  0.80673364741E+02  0.00000000000E+00 0. -1.
</event>
<event>
 7    1  0.2810263E-009  0.1072579E+03  0.7561462E-02  0.1265734E+00
         -2   -1    0    0    0  501 -0.00000000000E+00  0.00000000000E+00  0.21316096057E+02  0.21316096057E+02  0.00000000000E+00 0.  1.
          2   -1    0    0  501    0  0.00000000000E+00 -0.00000000000E+00 -0.89093930496E+03  0.89093930496E+03  0.00000000000E+00 0. -1.
         25    2    1    2    0    0 -0.35304508519E+02  0.26430671076E+02 -0.71398793521E+03  0.72620305981E+03  0.12508846375E+03 0.  0.
          5    1    3    3  502    0 -0.24448171726E+02  0.76919782094E+02 -0.43250229119E+03  0.43998871607E+03  0.41800000000E+01 0.  1.
         -5    1    3    3    0  502 -0.10856336793E+02 -0.50489111018E+02 -0.28148564402E+03  0.28621434375E+03  0.41800000000E+01 0.  1.
        -11    1    1    2    0    0 -0.12619788306E+02  0.14240740233E+02 -0.91301301924E+00  0.19049706875E+02  0.00000000000E+00 0.  1.
         11    1    1    2    0    0  0.47924296824E+02 -0.40671411309E+02 -0.15472226067E+03  0.16700263432E+03  0.00000000000E+00 0. -1.
</event>
<event>
 7    1  0.2810263E-009  0.9743402E+02  0.7561462E-02  0.1285786E+00
          2   -1    0    0  501    0  0.00000000000E+00  0.00000000000E+00  0.84971534149E+02  0.84971534149E+02  0.00000000000E+00 0. -1.
         -2   -1    0    0    0  501 -0.00000000000E+00 -0.00000000000E+00 -0.26336998374E+03  0.26336998374E+03  0.00000000000E+00 0.  1.
         25    2    1    2    0    0  0.15314808140E+02  0.27890554210E+02  0.14717369645E+02  0.12990730808E+03  0.12508749483E+03 0.  0.
          5    1    3    3  502    0 -0.11931970123E+01 -0.31671784438E+02 -0.37221802456E+02  0.49065880474E+02  0.41800000000E+01 0.  1.
         -5    1    3    3    0  502  0.16508005153E+02  0.59562338648E+02  0.51939172101E+02  0.80841427609E+02  0.41800000000E+01 0.  1.
        -11    1    1    2    0    0  0.13700191186E+02  0.31775759787E+02 -0.51481008244E+02  0.62029737694E+02  0.00000000000E+00 0.  1.
         11    1    1    2    0    0 -0.29014999326E+02 -0.59666313997E+02 -0.14163481100E+03  0.15640447212E+03  0.00000000000E+00 0. -1.
</event>
<event>
 7    1  0.2810263E-009  0.1094557E+03  0.7561462E-02  0.1261581E+00
          3   -1    0    0  501    0  0.00000000000E+00  0.00000000000E+00  0.53894097424E+02  0.53894097424E+02  0.00000000000E+00 0. -1.
         -3   -1    0    0    0  501 -0.00000000000E+00 -0.00000000000E+00 -0.22343395544E+03  0.22343395544E+03  0.00000000000E+00 0.  1.
         25    2    1    2    0    0 -0.80984040542E+01 -0.10157438273E+02 -0.91564367667E+02  0.15556356476E+03  0.12508889461E+03 0.  0.
          5    1    3    3  502    0 -0.18881465132E+02  0.55575533581E+02 -0.47004864010E+02  0.75313207998E+02  0.41800000000E+01 0. -1.
         -5    1    3    3    0  502  0.10783061078E+02 -0.65732971854E+02 -0.44559503657E+02  0.80250356766E+02  0.41800000000E+01 0. -1.
        -11    1    1    2    0    0  0.31308305060E+02  0.42949773661E+02 -0.48301207939E+02  0.71818519280E+02  0.00000000000E+00 0. -1.
         11    1    1    2    0    0 -0.23209901006E+02 -0.32792335388E+02 -0.29674282411E+02  0.49945968822E+02  0.00000000000E+00 0.  1.
</event>
<event>
 7    1  0.2810263E-009  0.1156741E+03  0.7561462E-02  0.1250409E+00
         -1   -1    0    0    0  501 -0.00000000000E+00  0.00000000000E+00  0.23552042073E+02  0.23552042073E+02  0.00000000000E+00 0.  1.
          1   -1    0    0  501    0  0.00000000000E+00 -0.00000000000E+00 -0.69339715158E+03  0.69339715158E+03  0.00000000000E+00 0. -1.
         25    2    1    2    0    0 -0.40959378146E+02 -0.50594040486E+02 -0.32673204029E+03  0.35586226118E+03  0.12508675067E+03 0.  0.
          5    1    3    3  502    0 -0.24366286092E+02 -0.88677860973E+02 -0.27110993651E+03  0.28631372478E+03  0.41800000000E+01 0. -1.
         -5    1    3    3    0  502 -0.16593092054E+02  0.38083820487E+02 -0.55622103777E+02  0.69548536400E+02  0.41800000000E+01 0. -1.
        -11    1    1    2    0    0  0.92893021660E+01 -0.18959452440E+02 -0.20081142282E+02  0.29137677445E+02  0.00000000000E+00 0.  1.
         11    1    1    2    0    0  0.31670075980E+02  0.69553492925E+02 -0.32303192693E+03  0.33194925502E+03  0.00000000000E+00 0. -1.
</event>
<event>
 7    1  0.2810263E-009  0.1159032E+03  0.7561462E-02  0.1250013E+00
          2   -1    0    0  501    0  0.00000000000E+00  0.00000000000E+00  0.14622339443E+03  0.14622339443E+03  0.00000000000E+00 0. -1.
         -2   -1    0    0    0  501 -0.00000000000E+00 -0.00000000000E+00 -0.95613218872E+02  0.95613218872E+02  0.00000000000E+00 0.  1.
         25    2    1    2    0    0 -0.46049781116E+02  0.15671537341E+01  0.14938580375E+02  0.13413998105E+03  0.12508930818E+03 0.  0.
          5    1    3    3  502    0 -0.13076257569E+02  0.61525548316E+02 -0.35425097999E+01  0.63137971011E+02  0.41800000000E+01 0. -1.
         -5    1    3    3    0  502 -0.32973523546E+02 -0.59958394582E+02  0.18481090175E+02  0.71002010042E+02  0.41800000000E+01 0. -1.
        -11    1    1    2    0    0  0.85361872486E+01  0.41920774160E+02  0.64723733681E+01  0.43267879725E+02  0.00000000000E+00 0.  1.
         11    1    1    2    0    0  0.37513593867E+02 -0.43487927894E+02  0.29199221813E+02  0.64428752524E+02  0.00000000000E+00 0. -1.
</event>
<event>
 7    1  0.2810263E-009  0.1291917E+03  0.7561462E-02  0.1228660E+00
         -4   -1    0    0    0  501 -0.00000000000E+00  0.00000000000E+00  0.14664769734E+03  0.14664769734E+03  0.00000000000E+00 0. -1.
          4   -1    0    0  501    0  0.00000000000E+00 -0.00000000000E+00 -0.14356844380E+03  0.14356844380E+03  0.00000000000E+00 0.  1.
         25    2    1    2    0    0  0.75642435026E+02 -0.37420867822E+02 -0.46590937499E+02  0.15792504974E+03  0.12508999382E+03 0.  0.
          5    1    3    3  502    0  0.10090082340E+03 -0.18240500648E+01 -0.11288940734E+02  0.10163275015E+03  0.41800000000E+01 0. -1.
         -5    1    3    3    0  502 -0.25258388372E+02 -0.35596817757E+02 -0.35301996766E+02  0.56292299591E+02  0.41800000000E+01 0. -1.
        -11    1    1    2    0    0 -0.46296238745E+02 -0.18914879706E+02 -0.25272864102E+01  0.50074959538E+02  0.00000000000E+00 0.  1.
         11    1    1    2    0    0 -0.29346196282E+02  0.56335747528E+02  0.52197477448E+02  0.82216131858E+02  0.00000000000E+00 0. -1.
</event>
<event>
 7    1  0.3932577E-009  0.1217964E+03  0.7561462E-02  0.1240163E+00
          1   -1    0    0  501    0  0.00000000000E+00  0.00000000000E+00  0.45556784291E+03  0.45556784291E+03  0.00000000000E+00 0. -1.
         -1   -1    0    0    0  501 -0.00000000000E+00 -0.00000000000E+00 -0.41397835106E+02  0.41397835106E+02  0.00000000000E+00 0.  1.
         25    2    1    2    0    0  0.51002497428E+02 -0.66186249068E+02  0.24157887068E+03  0.28458293307E+03  0.12508085674E+03 0.  0.
          5    1    3    3  502    0 -0.26318939356E+02 -0.17698983253E+02  0.68713672773E+01  0.32720462486E+02  0.41800000000E+01 0. -1.
         -5    1    3    3    0  502  0.77321436784E+02 -0.48487265815E+02  0.23470750340E+03  0.25186247058E+03  0.41800000000E+01 0. -1.
        -11    1    1    2    0    0 -0.63118945256E+02  0.11413429801E+02  0.66620204542E+02  0.92479831765E+02  0.00000000000E+00 0.  1.
         11    1    1    2    0    0  0.12116447827E+02  0.54772819267E+02  0.10597093259E+03  0.11990291319E+03  0.00000000000E+00 0. -1.
</event>
<event>
 7    1  0.2810263E-009  0.1956530E+03  0.7561462E-02  0.1153459E+00
          4   -1    0    0  501    0  0.00000000000E+00  0.00000000000E+00  0.10666232615E+04  0.10666232615E+04  0.00000000000E+00 0.  1.
         -4   -1    0    0    0  501 -0.00000000000E+00 -0.00000000000E+00 -0.38631676660E+02  0.38631676660E+02  0.00000000000E+00 0. -1.
         25    2    1    2    0    0  0.83531085129E+02 -0.14127848533E+03  0.67652552046E+03  0.70730042233E+03  0.12510017982E+03 0.  0.
          5    1    3    3  502    0  0.46323529476E+02 -0.15761123722E+03  0.56984564666E+03  0.59306720100E+03  0.41800000000E+01 0. -1.
         -5    1    3    3    0  502  0.37207555653E+02  0.16332751886E+02  0.10667987380E+03  0.11423322133E+03  0.41800000000E+01 0. -1.
        -11    1    1    2    0    0 -0.26688560131E+02  0.12381917153E+03  0.22488365327E+03  0.25810099571E+03  0.00000000000E+00 0. -1.
         11    1    1    2    0    0 -0.56842524998E+02  0.17459313805E+02  0.12658241107E+03  0.13985352008E+03  0.00000000000E+00 0.  1.
</event>
<event>
 7    1  0.2810263E-009  0.1118012E+03  0.7561462E-02  0.1257270E+00
          1   -1    0    0  501    0  0.00000000000E+00  0.00000000000E+00  0.71017357968E+03  0.71017357968E+03  0.00000000000E+00 0. -1.
         -1   -1    0    0    0  501 -0.00000000000E+00 -0.00000000000E+00 -0.24956151878E+02  0.24956151878E+02  0.00000000000E+00 0.  1.
         25    2    1    2    0    0  0.39427048550E+02  0.67518801831E+02  0.41021771083E+03  0.43593547262E+03  0.12509150753E+03 0.  0.
          5    1    3    3  502    0 -0.16368011721E+02 -0.93919629244E+01  0.24137567398E+03  0.24214832059E+03  0.41800000000E+01 0. -1.
         -5    1    3    3    0  502  0.55795060271E+02  0.76910764755E+02  0.16884203684E+03  0.19378715203E+03  0.41800000000E+01 0. -1.
        -11    1    1    2    0    0  0.16650284721E+02  0.50999921541E+01  0.10096036814E+03  0.10245114854E+03  0.00000000000E+00 0. -1.
         11    1    1    2    0    0 -0.56077333271E+02 -0.72618793985E+02  0.17403934883E+03  0.19674311040E+03  0.00000000000E+00 0.  1.
</event>
<event>
 7    1  0.2810263E-009  0.8463066E+02  0.7561462E-02  0.1316401E+00
          2   -1    0    0  501    0  0.00000000000E+00  0.00000000000E+00  0.73635182361E+03  0.73635182361E+03  0.00000000000E+00 0. -1.
         -2   -1    0    0    0  501 -0.00000000000E+00 -0.00000000000E+00 -0.39103343057E+02  0.39103343057E+02  0.00000000000E+00 0.  1.
         25    2    1    2    0    0  0.11353372413E+02 -0.10695928134E+02  0.67150158967E+03  0.68323216243E+03  0.12509396831E+03 0.  0.
          5    1    3    3  502    0 -0.22258169152E+02 -0.55932834525E+02  0.21711395767E+03  0.22534385079E+03  0.41800000000E+01 0. -1.
         -5    1    3    3    0  502  0.33611541566E+02  0.45236906392E+02  0.45438763200E+03  0.45788831165E+03  0.41800000000E+01 0. -1.
        -11    1    1    2    0    0  0.16362782498E+02  0.17405242948E+02 -0.24644364686E+02  0.34322410229E+02  0.00000000000E+00 0.  1.
         11    1    1    2    0    0 -0.27716154912E+02 -0.67093148142E+01  0.50391255565E+02  0.57900594002E+02  0.00000000000E+00 0. -1.
</event>
<event>
 7    1  0.2810263E-009  0.1054977E+03  0.7561462E-02  0.1269142E+00
         -2   -1    0    0    0  501 -0.00000000000E+00  0.00000000000E+00  0.42241560034E+03  0.42241560034E+03  0.00000000000E+00 0.  1.
          2   -1    0    0  501    0  0.00000000000E+00 -0.00000000000E+00 -0.40066870497E+02  0.40066870497E+02  0.00000000000E+00 0. -1.
         25    2    1    2    0    0 -0.66509637403E+02 -0.52254053527E+01  0.27093016378E+03  0.30578101346E+03  0.12509211732E+03 0.  0.
          5    1    3    3  502    0  0.28953837477E+02  0.27938290148E+02  0.84352827244E+02  0.93550759618E+02  0.41800000000E+01 0.  1.
         -5    1    3    3    0  502 -0.95463474880E+02 -0.33163695500E+02  0.18657733654E+03  0.21223025384E+03  0.41800000000E+01 0.  1.
        -11    1    1    2    0    0  0.53868601475E+02  0.11804313117E+02  0.12524338639E+03  0.13684689937E+03  0.00000000000E+00 0.  1.
         11    1    1    2    0    0  0.12641035928E+02 -0.65789077645E+01 -0.13824820327E+02  0.19854558010E+02  0.00000000000E+00 0. -1.
</event>
<event>
 7    1  0.2971406E-009  0.1491570E+03  0.7561462E-02  0.1201513E+00
         -1   -1    0    0    0  501 -0.00000000000E+00  0.00000000000E+00  0.38350809926E+03  0.38350809926E+03  0.00000000000E+00 0.  1.
          1   -1    0    0  501    0  0.00000000000E+00 -0.00000000000E+00 -0.67923372552E+02  0.67923372552E+02  0.00000000000E+00 0. -1.
         25    2    1    2    0    0  0.31381431905E+01 -0.11871815687E+03  0.17777789466E+03  0.24770196382E+03  0.12508970517E+03 0.  0.
          5    1    3    3  502    0  0.28171285135E+02 -0.13776482733E+03  0.14785906839E+03  0.20408955255E+03  0.41800000000E+01 0.  1.
         -5    1    3    3    0  502 -0.25033141944E+02  0.19046670465E+02  0.29918826272E+02  0.43612411271E+02  0.41800000000E+01 0.  1.
        -11    1    1    2    0    0 -0.22495480517E+02  0.60042339178E+02  0.12520980944E+03  0.14067204952E+03  0.00000000000E+00 0.  1.
         11    1    1    2    0    0  0.19357337327E+02  0.58675817689E+02  0.12597022613E+02  0.63057458469E+02  0.00000000000E+00 0. -1.
</event>
<event>
 7    1  0.2810263E-009  0.1012882E+03  0.7561462E-02  0.1277610E+00
         -1   -1    0    0    0  501 -0.00000000000E+00  0.00000000000E+00  0.15092858488E+03  0.15092858488E+03  0.00000000000E+00 0.  1.
          1   -1    0    0  501    0  0.00000000000E+00 -0.00000000000E+00 -0.11890449760E+03  0.11890449760E+03  0.00000000000E+00 0. -1.
         25    2    1    2    0    0 -0.57924580841E+02  0.20673880003E+02 -0.34980339595E+02  0.14371107771E+03  0.12508630348E+03 0.  0.
          5    1    3    3  502    0  0.25366591575E+02 -0.10158280657E+02 -0.46458468960E+02  0.54060303108E+02  0.41800000000E+01 0.  1.
         -5    1    3    3    0  502 -0.83291172416E+02  0.30832160660E+02  0.11478129365E+02  0.89650774604E+02  0.41800000000E+01 0.  1.
        -11    1    1    2    0    0 -0.62203359021E+01 -0.20971856822E+02  0.57188916828E+02  0.61229760454E+02  0.00000000000E+00 0.  1.
         11    1    1    2    0    0  0.64144916744E+02  0.29797681923E+00  0.98155100499E+01  0.64892244311E+02  0.00000000000E+00 0. -1.
</event>
<event>
 7    1  0.2810263E-009  0.1441593E+03  0.7561462E-02  0.1207839E+00
         -2   -1    0    0    0  501 -0.00000000000E+00  0.00000000000E+00  0.51171053936E+03  0.51171053936E+03  0.00000000000E+00 0. -1.
          2   -1    0    0  501    0  0.00000000000E+00 -0.00000000000E+00 -0.72585675694E+02  0.72585675694E+02  0.00000000000E+00 0.  1.
         25    2    1    2    0    0 -0.87026468528E+01  0.12845215755E+03  0.88323868720E+02  0.20005938846E+03  0.12508781029E+03 0.  0.
          5    1    3    3  502    0 -0.16210650471E+02  0.51481386476E+02  0.10742097140E+03  0.12029071385E+03  0.41800000000E+01 0.  1.
         -5    1    3    3    0  502  0.75080036185E+01  0.76970771073E+02 -0.19097102682E+02  0.79768674608E+02  0.41800000000E+01 0.  1.
        -11    1    1    2    0    0  0.15542220088E+02  0.97605594053E+01  0.43729248530E+02  0.47424427273E+02  0.00000000000E+00 0.  1.
         11    1    1    2    0    0 -0.68395732351E+01 -0.13821271695E+03  0.30707174642E+03  0.33681239933E+03  0.00000000000E+00 0. -1.
</event>
<event>
 7    1  0.2810263E-009  0.1138461E+03  0.7561462E-02  0.1253609E+00
         -1   -1    0    0    0  501 -0.00000000000E+00  0.00000000000E+00  0.13979149930E+03  0.13979149930E+03  0.00000000000E+00 0.  1.
          1   -1    0    0  501    0  0.00000000000E+00 -0.00000000000E+00 -0.96471441545E+02  0.96471441545E+02  0.00000000000E+00 0. -1.
         25    2    1    2    0    0  0.84712517690E+01 -0.41242251536E+02  0.25047479549E+02  0.13434397279E+03  0.12509293095E+03 0.  0.
          5    1    3    3  502    0 -0.29086948567E+02 -0.74858574751E+02  0.73328041380E+01  0.80753323196E+02  0.41800000000E+01 0. -1.
         -5    1    3    3    0  502  0.37558200336E+02  0.33616323215E+02  0.17714675411E+02  0.53590649594E+02  0.41800000000E+01 0. -1.
        -11    1    1    2    0    0  0.25653382146E+02  0.54380712172E+02  0.24312116256E+02  0.64857049491E+02  0.00000000000E+00 0. -1.
         11    1    1    2    0    0 -0.34124633915E+02 -0.13138460636E+02 -0.60395380518E+01  0.37061918563E+02  0.00000000000E+00 0.  1.
</event>
<event>
 7    1  0.2810263E-009  0.2149420E+03  0.7561462E-02  0.1137711E+00
          2   -1    0    0  501    0  0.00000000000E+00  0.00000000000E+00  0.12286381647E+04  0.12286381647E+04  0.00000000000E+00 0. -1.
         -2   -1    0    0    0  501 -0.00000000000E+00 -0.00000000000E+00 -0.40496914784E+02  0.40496914784E+02  0.00000000000E+00 0.  1.
         25    2    1    2    0    0 -0.10800775018E+03  0.16264347566E+03  0.65701668913E+03  0.69673536254E+03  0.12510260325E+03 0.  0.
          5    1    3    3  502    0 -0.16120772184E+02 -0.19756404430E+02  0.50254501428E+02  0.56508248297E+02  0.41800000000E+01 0.  1.
         -5    1    3    3    0  502 -0.91886977992E+02  0.18239988009E+03  0.60676218770E+03  0.64022711424E+03  0.41800000000E+01 0.  1.
        -11    1    1    2    0    0  0.67333870852E+02 -0.13415935138E+03  0.47143453895E+03  0.49475560254E+03  0.00000000000E+00 0. -1.
         11    1    1    2    0    0  0.40673879325E+02 -0.28484124278E+02  0.59690021813E+02  0.77644114389E+02  0.00000000000E+00 0.  1.
</event>
<event>
 7    1  0.2810263E-009  0.3735457E+03  0.7561462E-02  0.1053345E+00
         -2   -1    0    0    0  501 -0.00000000000E+00  0.00000000000E+00  0.47024720261E+02  0.47024720261E+02  0.00000000000E+00 0. -1.
          2   -1    0    0  501    0  0.00000000000E+00 -0.00000000000E+00 -0.31378353838E+04  0.31378353838E+04  0.00000000000E+00 0.  1.
         25    2    1    2    0    0 -0.26820774781E+03 -0.24039321646E+03 -0.12461473253E+04  0.13031704156E+04  0.12508269684E+03 0.  0.
          5    1    3    3  502    0 -0.15006482265E+03 -0.20996047359E+03 -0.79867287036E+03  0.83934419503E+03  0.41800000000E+01 0.  1.
         -5    1    3    3    0  502 -0.11814292515E+03 -0.30432742862E+02 -0.44747445499E+03  0.46382622055E+03  0.41800000000E+01 0.  1.
        -11    1    1    2    0    0  0.12760791822E+03  0.16102092708E+03 -0.11758063559E+04  0.11936214251E+04  0.00000000000E+00 0.  1.
         11    1    1    2    0    0  0.14059982959E+03  0.79372289375E+02 -0.66885698232E+03  0.68806826348E+03  0.00000000000E+00 0. -1.
</event>
<event>
 7    1  0.2810263E-009  0.1124711E+03  0.7561462E-02  0.1256061E+00
         -1   -1    0    0    0  501 -0.00000000000E+00  0.00000000000E+00  0.18730887529E+03  0.18730887529E+03  0.00000000000E+00 0.  1.
          1   -1    0    0  501    0  0.00000000000E+00 -0.00000000000E+00 -0.86277385457E+02  0.86277385457E+02  0.00000000000E+00 0. -1.
         25    2    1    2    0    0 -0.48529126149E+02  0.43955517724E+02  0.61527499639E+02  0.15401554147E+03  0.12509192691E+03 0.  0.
          5    1    3    3  502    0 -0.73738795154E+02  0.69537257497E+01 -0.42847269677E+01  0.74307439047E+02  0.41800000000E+01 0. -1.
         -5    1    3    3    0  502  0.25209669005E+02  0.37001791974E+02  0.65812226606E+02  0.79708102421E+02  0.41800000000E+01 0. -1.
        -11    1    1    2    0    0 -0.96811750111E+01 -0.46526671078E+02  0.38717330083E+02  0.61298351691E+02  0.00000000000E+00 0.  1.
         11    1    1    2    0    0  0.58210301160E+02  0.25711533546E+01  0.78666011526E+00  0.58272367593E+02  0.00000000000E+00 0. -1.
</event>
<event>
 7    1  0.2810263E-009  0.7664812E+02  0.7561462E-02  0.1338842E+00
         -2   -1    0    0    0  501 -0.00000000000E+00  0.00000000000E+00  0.27284080864E+02  0.27284080864E+02  0.00000000000E+00 0.  1.
          2   -1    0    0  501    0  0.00000000000E+00 -0.00000000000E+00 -0.67729090807E+03  0.67729090807E+03  0.00000000000E+00 0. -1.
         25    2    1    2    0    0 -0.17605940523E+02  0.44166053513E+02 -0.50979630998E+03  0.52706723334E+03  0.12508789457E+03 0.  0.
          5    1    3    3  502    0 -0.11562802815E+02  0.54901146551E+02 -0.84167646933E+02  0.10123981179E+03  0.41800000000E+01 0. -1.
         -5    1    3    3    0  502 -0.60431377080E+01 -0.10735093038E+02 -0.42562866304E+03  0.42582742155E+03  0.41800000000E+01 0. -1.
        -11    1    1    2    0    0 -0.20906897034E+02  0.50738123673E+01 -0.10199566638E+03  0.10423990539E+03  0.00000000000E+00 0. -1.
         11    1    1    2    0    0  0.38512837557E+02 -0.49239865881E+02 -0.38214850854E+02  0.73267850210E+02  0.00000000000E+00 0.  1.
</event>
<event>
 7    1  0.2810263E-009  0.1504710E+03  0.7561462E-02  0.1199895E+00
          3   -1    0    0  501    0  0.00000000000E+00  0.00000000000E+00  0.34989432623E+03  0.34989432623E+03  0.00000000000E+00 0. -1.
         -3   -1    0    0    0  501 -0.00000000000E+00 -0.00000000000E+00 -0.78713470356E+02  0.78713470356E+02  0.00000000000E+00 0.  1.
         25    2    1    2    0    0  0.70648188712E+02 -0.94921585237E+02  0.89032718803E+02  0.19384195247E+03  0.12508638459E+03 0.  0.
          5    1    3    3  502    0 -0.35063852131E+02 -0.13744108606E+02  0.11542681012E+02  0.39611616132E+02  0.41800000000E+01 0. -1.
         -5    1    3    3    0  502  0.10571204084E+03 -0.81177476631E+02  0.77490037791E+02  0.15423033634E+03  0.41800000000E+01 0. -1.
        -11    1    1    2    0    0 -0.38398302320E+02  0.11226779822E+02  0.10921914596E+02  0.41469970155E+02  0.00000000000E+00 0.  1.
         11    1    1    2    0    0 -0.32249886392E+02  0.83694805414E+02  0.17122622247E+03  0.19329587395E+03  0.00000000000E+00 0. -1.
</event>
<event>
 7    1  0.2810263E-009  0.1148818E+03  0.7561462E-02  0.1251788E+00
          1   -1    0    0  501    0  0.00000000000E+00  0.00000000000E+00  0.85493256588E+02  0.85493256588E+02  0.00000000000E+00 0. -1.
         -1   -1    0    0    0  501 -0.00000000000E+00 -0.00000000000E+00 -0.31919138903E+03  0.31919138903E+03  0.00000000000E+00 0.  1.
         25    2    1    2    0    0  0.74084653042E+01 -0.96584990561E+02 -0.21900898591E+03  0.27017798137E+03  0.12509060696E+03 0.  0.
          5    1    3    3  502    0 -0.38473198368E+02 -0.62883752734E+02 -0.43678730482E+02  0.85789610369E+02  0.41800000000E+01 0. -1.
         -5    1    3    3    0  502  0.45881663673E+02 -0.33701237826E+02 -0.17533025543E+03  0.18438837101E+03  0.41800000000E+01 0. -1.
        -11    1    1    2    0    0  0.62847026383E+01  0.46415505310E+02  0.38119482918E+02  0.60390327026E+02  0.00000000000E+00 0. -1.
         11    1    1    2    0    0 -0.13693167942E+02  0.50169485251E+02 -0.52808629444E+02  0.74116337217E+02  0.00000000000E+00 0.  1.
</event>
<event>
 7    1  0.2810263E-009  0.2047848E+03  0.7561462E-02  0.1145764E+00
         -1   -1    0    0    0  501 -0.00000000000E+00  0.00000000000E+00  0.20779642582E+03  0.20779642582E+03  0.00000000000E+00 0.  1.
          1   -1    0    0  501    0  0.00000000000E+00 -0.00000000000E+00 -0.69408217879E+03  0.69408217879E+03  0.00000000000E+00 0. -1.
         25    2    1    2    0    0  0.45632625101E+01 -0.19077450191E+03  0.12515548124E+03  0.26024268069E+03  0.12508646779E+03 0.  0.
          5    1    3    3  502    0  0.12236170089E+02  0.10064291439E+02  0.37521330983E+02  0.40943088542E+02  0.41800000000E+01 0. -1.
         -5    1    3    3    0  502 -0.76729075785E+01 -0.20083879335E+03  0.87634150260E+02  0.21929959215E+03  0.41800000000E+01 0. -1.
        -11    1    1    2    0    0  0.73708751310E+01  0.13065761677E+03 -0.36721734910E+03  0.38983884375E+03  0.00000000000E+00 0.  1.
         11    1    1    2    0    0 -0.11934137641E+02  0.60116885136E+02 -0.24422388512E+03  0.25179708017E+03  0.00000000000E+00 0. -1.
</event>
<event>
 7    1  0.2810263E-009  0.2470705E+03  0.7561462E-02  0.1115170E+00
         -1   -1    0    0    0  501 -0.00000000000E+00  0.00000000000E+00  0.43426356474E+03  0.43426356474E+03  0.00000000000E+00 0.  1.
          1   -1    0    0  501    0  0.00000000000E+00 -0.00000000000E+00 -0.17288395573E+03  0.17288395573E+03  0.00000000000E+00 0. -1.
         25    2    1    2    0    0  0.12818959061E+03  0.19858255290E+03  0.22806966060E+03  0.35147109705E+03  0.12509420658E+03 0.  0.
          5    1    3    3  502    0 -0.13496299071E+02  0.47925498138E+02  0.10109432449E+02  0.50977215349E+02  0.41800000000E+01 0.  1.
         -5    1    3    3    0  502  0.14168588968E+03  0.15065705476E+03  0.21796022816E+03  0.30049388170E+03  0.41800000000E+01 0.  1.
        -11    1    1    2    0    0 -0.73719991810E+02 -0.94586212452E+02  0.61745804941E+02  0.13488414735E+03  0.00000000000E+00 0.  1.
         11    1    1    2    0    0 -0.54469598800E+02 -0.10399634045E+03 -0.28435856531E+02  0.12079227606E+03  0.00000000000E+00 0. -1.
</event>
<event>
 7    1  0.2810263E-009  0.1371388E+03  0.7561462E-02  0.1217232E+00
          2   -1    0    0  501    0  0.00000000000E+00  0.00000000000E+00  0.15629795119E+03  0.15629795119E+03  0.00000000000E+00 0. -1.
         -2   -1    0    0    0  501 -0.00000000000E+00 -0.00000000000E+00 -0.12217848603E+03  0.12217848603E+03  0.00000000000E+00 0.  1.
         25    2    1    2    0    0  0.87052188774E+02  0.78652894201E+01  0.24645450327E+02  0.15458016598E+03  0.12509069967E+03 0.  0.
          5    1    3    3  502    0  0.67975011079E+02 -0.54333016893E+02  0.18795595420E+02  0.89125897824E+02  0.41800000000E+01 0.  1.
         -5    1    3    3    0  502  0.19077177696E+02  0.62198306313E+02  0.58498549065E+01  0.65454268153E+02  0.41800000000E+01 0.  1.
        -11    1    1    2    0    0 -0.56172557549E+02 -0.46205468645E+02  0.15291382983E+02  0.74324477448E+02  0.00000000000E+00 0.  1.
         11    1    1    2    0    0 -0.30879631225E+02  0.38340179225E+02 -0.58173681518E+01  0.49571793793E+02  0.00000000000E+00 0. -1.
</event>
<event>
 7    1  0.2810263E-009  0.1710068E+03  0.7561462E-02  0.1176802E+00
         -1   -1    0    0    0  501 -0.00000000000E+00  0.00000000000E+00  0.48487446635E+02  0.48487446635E+02  0.00000000000E+00 0.  1.
          1   -1    0    0  501    0  0.00000000000E+00 -0.00000000000E+00 -0.64501625424E+03  0.64501625424E+03  0.00000000000E+00 0. -1.
         25    2    1    2    0    0 -0.27539245399E+02  0.13198660067E+03 -0.38431824699E+03  0.42605965934E+03  0.12508974998E+03 0.  0.
          5    1    3    3  502    0  0.25058960104E+02 -0.13445045406E+02 -0.49817462684E+02  0.57514978186E+02  0.41800000000E+01 0. -1.
         -5    1    3    3    0  502 -0.52598205503E+02  0.14543164608E+03 -0.33450078431E+03  0.36854468115E+03  0.41800000000E+01 0. -1.
        -11    1    1    2    0    0  0.50174888678E+02 -0.40980531143E+02 -0.57978778432E+02  0.86939416464E+02  0.00000000000E+00 0. -1.
         11    1    1    2    0    0 -0.22635643279E+02 -0.91006069529E+02 -0.15423178218E+03  0.18050462508E+03  0.00000000000E+00 0.  1.
</event>
<event>
 7    1  0.2810263E-009  0.1022815E+03  0.7561462E-02  0.1275570E+00
         -2   -1    0    0    0  501 -0.00000000000E+00  0.00000000000E+00  0.12871768285E+02  0.12871768285E+02  0.00000000000E+00 0.  1.
          2   -1    0    0  501    0  0.00000000000E+00 -0.00000000000E+00 -0.21385474653E+04  0.21385474653E+04  0.00000000000E+00 0. -1.
         25    2    1    2    0    0  0.44689342270E+02 -0.11970147564E+02 -0.19056199703E+04  0.19102821841E+04  0.12510047865E+03 0.  0.
          5    1    3    3  502    0  0.36486310030E+02 -0.53690466140E+02 -0.16364727106E+04  0.16377650387E+04  0.41800000000E+01 0.  1.
         -5    1    3    3    0  502  0.82030322402E+01  0.41720318575E+02 -0.26914725973E+03  0.27251714540E+03  0.41800000000E+01 0.  1.
        -11    1    1    2    0    0  0.25241872422E+02 -0.25392808552E+01 -0.39234673148E+02  0.46722153714E+02  0.00000000000E+00 0. -1.
         11    1    1    2    0    0 -0.69931214692E+02  0.14509428419E+02 -0.18082105351E+03  0.19441489576E+03  0.00000000000E+00 0.  1.
</event>
<event>
 7    1  0.2810263E-009  0.1024397E+03  0.7561462E-02  0.1275248E+00
          1   -1    0    0  501    0  0.00000000000E+00  0.00000000000E+00  0.34604881930E+03  0.34604881930E+03  0.00000000000E+00 0. -1.
         -1   -1    0    0    0  501 -0.00000000000E+00 -0.00000000000E+00 -0.59732370376E+02  0.59732370376E+02  0.00000000000E+00 0.  1.
         25    2    1    2    0    0 -0.51663057088E+02 -0.67093623926E+02  0.21523060417E+03  0.26294928243E+03  0.12508991293E+03 0.  0.
          5    1    3    3  502    0 -0.22080565110E+02 -0.73268634481E+02  0.42676205161E+02  0.87718726856E+02  0.41800000000E+01 0. -1.
         -5    1    3    3    0  502 -0.29582491978E+02  0.61750105552E+01  0.17255439901E+03  0.17523055557E+03  0.41800000000E+01 0. -1.
        -11    1    1    2    0    0 -0.21406448804E+00  0.38496156726E+02 -0.12418441626E+02  0.40450186633E+02  0.00000000000E+00 0.  1.
         11    1    1    2    0    0  0.51877121576E+02  0.28597467200E+02  0.83504286378E+02  0.10238172062E+03  0.00000000000E+00 0. -1.
</event>
<event>
 7    1  0.2810263E-009  0.1011838E+03  0.7561462E-02  0.1277826E+00
          2   -1    0    0  501    0  0.00000000000E+00  0.00000000000E+00  0.46627028561E+03  0.46627028561E+03  0.00000000000E+00 0.  1.
         -2   -1    0    0    0  501 -0.00000000000E+00 -0.00000000000E+00 -0.32684109989E+02  0.32684109989E+02  0.00000000000E+00 0. -1.
         25    2    1    2    0    0 -0.25932058609E+01 -0.44005139179E+01  0.12621545880E+03  0.17777594514E+03  0.12509138815E+03 0.  0.
          5    1    3    3  502    0 -0.47741300394E+02  0.32763942631E+02  0.30615349014E+02  0.65631392605E+02  0.41800000000E+01 0.  1.
         -5    1    3    3    0  502  0.45148094533E+02 -0.37164456549E+02  0.95600109789E+02  0.11214455253E+03  0.41800000000E+01 0.  1.
        -11    1    1    2    0    0 -0.13330305942E+02 -0.38066974367E+02  0.83142106668E+02  0.92408882123E+02  0.00000000000E+00 0.  1.
         11    1    1    2    0    0  0.15923511803E+02  0.42467488285E+02  0.22422861015E+03  0.22876956834E+03  0.00000000000E+00 0. -1.
</event>
<event>
 7    1  0.2810263E-009  0.1146941E+03  0.7561462E-02  0.1252116E+00
          2   -1    0    0  501    0  0.00000000000E+00  0.00000000000E+00  0.61276417552E+03  0.61276417552E+03  0.00000000000E+00 0. -1.
         -2   -1    0    0    0  501 -0.00000000000E+00 -0.00000000000E+00 -0.41349053896E+02  0.41349053896E+02  0.00000000000E+00 0.  1.
         25    2    1    2    0    0  0.10690217567E+02 -0.10252817916E+03  0.18969058740E+03  0.24951306613E+03  0.12509173814E+03 0.  0.
          5    1    3    3  502    0 -0.15531032802E+02 -0.54164063422E+02  0.49597335107E+01  0.56718869019E+02  0.41800000000E+01 0.  1.
         -5    1    3    3    0  502  0.26221250369E+02 -0.48364115734E+02  0.18473085389E+03  0.19279419711E+03  0.41800000000E+01 0.  1.
        -11    1    1    2    0    0  0.19230618789E+02  0.73687311794E+02  0.14040593633E+03  0.15972934475E+03  0.00000000000E+00 0.  1.
         11    1    1    2    0    0 -0.29920836356E+02  0.28840867362E+02  0.24131859789E+03  0.24487081853E+03  0.00000000000E+00 0. -1.
</event>
<event>
 7    1  0.2810263E-009  0.1603359E+03  0.7561462E-02  0.1188318E+00
         -2   -1    0    0    0  501 -0.00000000000E+00  0.00000000000E+00  0.11804656352E+03  0.11804656352E+03  0.00000000000E+00 0.  1.
          2   -1    0    0  501    0  0.00000000000E+00 -0.00000000000E+00 -0.22082496742E+03  0.22082496742E+03  0.00000000000E+00 0. -1.
         25    2    1    2    0    0 -0.11253045318E+03 -0.36830294123E+02 -0.71390053411E+02  0.18645043725E+03  0.12509057665E+03 0.  0.
          5    1    3    3  502    0 -0.13478420644E+03 -0.83033590207E+01 -0.63022375320E+02  0.14908058313E+03  0.41800000000E+01 0. -1.
         -5    1    3    3    0  502  0.22253753256E+02 -0.28526935103E+02 -0.83676780912E+01  0.37369854120E+02  0.41800000000E+01 0. -1.
        -11    1    1    2    0    0 -0.42422689946E+01  0.31993428762E+02 -0.74364220611E+01  0.33119128963E+02  0.00000000000E+00 0. -1.
         11    1    1    2    0    0  0.11677272218E+03  0.48368653610E+01 -0.23951928421E+02  0.11930196472E+03  0.00000000000E+00 0.  1.
</event>
<event>
 7    1  0.2810263E-009  0.1147294E+03  0.7561462E-02  0.1252054E+00
          1   -1    0    0  501    0  0.00000000000E+00  0.00000000000E+00  0.33746110744E+02  0.33746110744E+02  0.00000000000E+00 0. -1.
         -1   -1    0    0    0  501 -0.00000000000E+00 -0.00000000000E+00 -0.56739118085E+03  0.56739118085E+03  0.00000000000E+00 0.  1.
         25    2    1    2    0    0  0.40853459687E+02 -0.44686671788E+02 -0.42318706630E+03  0.44542200202E+03  0.12509021940E+03 0.  0.
          5    1    3    3  502    0 -0.37965790165E+00 -0.82560791799E+02 -0.26248323195E+03  0.27519329196E+03  0.41800000000E+01 0. -1.
         -5    1    3    3    0  502  0.41233117589E+02  0.37874120011E+02 -0.16070383435E+03  0.17022871006E+03  0.41800000000E+01 0. -1.
        -11    1    1    2    0    0 -0.35222342046E+02 -0.92511593275E+01 -0.91140054973E+02  0.98146354739E+02  0.00000000000E+00 0.  1.
         11    1    1    2    0    0 -0.56311176413E+01  0.53937831116E+02 -0.19317948828E+02  0.57568934837E+02  0.00000000000E+00 0. -1.
</event>
<event>
 7    1  0.2810263E-009  0.8646918E+02  0.7561462E-02  0.1311635E+00
          2   -1    0    0  501    0  0.00000000000E+00  0.00000000000E+00  0.76655727585E+02  0.76655727585E+02  0.00000000000E+00 0. -1.
         -2   -1    0    0    0  501 -0.00000000000E+00 -0.00000000000E+00 -0.20127649119E+03  0.20127649119E+03  0.00000000000E+00 0.  1.
         25    2    1    2    0    0  0.21710110445E+02 -0.73699522140E+01 -0.13229225809E+03  0.18350451744E+03  0.12508805410E+03 0.  0.
          5    1    3    3  502    0  0.46993507300E+02 -0.28745629610E+02 -0.92479849591E+01  0.56015163803E+02  0.41800000000E+01 0.  1.
         -5    1    3    3    0  502 -0.25283396856E+02  0.21375677396E+02 -0.12304427313E+03  0.12748935364E+03  0.41800000000E+01 0.  1.
        -11    1    1    2    0    0  0.29257416334E+02 -0.92939276687E+01  0.23339536689E+02  0.38563032491E+02  0.00000000000E+00 0. -1.
         11    1    1    2    0    0 -0.50967526779E+02  0.16663879883E+02 -0.15668042206E+02  0.55864668846E+02  0.00000000000E+00 0.  1.
</event>
<event>
 7    1  0.2810263E-009  0.1274997E+03  0.7561462E-02  0.1231214E+00
          2   -1    0    0  501    0  0.00000000000E+00  0.00000000000E+00  0.74404544598E+02  0.74404544598E+02  0.00000000000E+00 0. -1.
         -2   -1    0    0    0  501 -0.00000000000E+00 -0.00000000000E+00 -0.30968088437E+03  0.30968088437E+03  0.00000000000E+00 0.  1.
         25    2    1    2    0    0  0.58096996676E+02 -0.73971873037E+02 -0.65830966061E+02  0.16978773558E+03  0.12508820902E+03 0.  0.
          5    1    3    3  502    0 -0.39389588083E+02 -0.17161986895E+02 -0.12670359218E+02  0.44989819362E+02  0.41800000000E+01 0.  1.
         -5    1    3    3    0  502  0.97486584759E+02 -0.56809886142E+02 -0.53160606843E+02  0.12479791621E+03  0.41800000000E+01 0.  1.
        -11    1    1    2    0    0 -0.19313295132E+02  0.49318879623E+02 -0.17854530734E+02  0.55894002575E+02  0.00000000000E+00 0. -1.
         11    1    1    2    0    0 -0.38783701544E+02  0.24652993414E+02 -0.15159084297E+03  0.15840369081E+03  0.00000000000E+00 0.  1.
</event>
<event>
 7    1  0.2810263E-009  0.1721534E+03  0.7561462E-02  0.1175621E+00
          3   -1    0    0  501    0  0.00000000000E+00  0.00000000000E+00  0.40414124830E+03  0.40414124830E+03  0.00000000000E+00 0. -1.
         -3   -1    0    0    0  501 -0.00000000000E+00 -0.00000000000E+00 -0.97395921954E+02  0.97395921954E+02  0.00000000000E+00 0.  1.
         25    2    1    2    0    0  0.57159250312E+02 -0.13995043348E+03  0.24662004318E+03  0.31515498838E+03  0.12509163551E+03 0.  0.
          5    1    3    3  502    0  0.27057436318E+02  0.17668478170E+02  0.65374049284E+02  0.73044634990E+02  0.41800000000E+01 0. -1.
         -5    1    3    3    0  502  0.30101813994E+02 -0.15761891165E+03  0.18124599390E+03  0.24211035339E+03  0.41800000000E+01 0. -1.
        -11    1    1    2    0    0 -0.17604913330E+02  0.46670466774E+02 -0.23377583450E+02  0.55086993476E+02  0.00000000000E+00 0.  1.
         11    1    1    2    0    0 -0.39554336982E+02  0.93279966708E+02  0.83502866613E+02  0.13129518839E+03  0.00000000000E+00 0. -1.
</event>
<event>
 7    1  0.2810263E-009  0.9993759E+02  0.7561462E-02  0.1280427E+00
         -1   -1    0    0    0  501 -0.00000000000E+00  0.00000000000E+00  0.21031755384E+03  0.21031755384E+03  0.00000000000E+00 0.  1.
          1   -1    0    0  501    0  0.00000000000E+00 -0.00000000000E+00 -0.91994754022E+02  0.91994754022E+02  0.00000000000E+00 0. -1.
         25    2    1    2    0    0 -0.53133038857E+01  0.18936255623E+02  0.15715004658E+03  0.20181627340E+03  0.12508740182E+03 0.  0.
          5    1    3    3  502    0 -0.55036635786E+02  0.12441058839E+01  0.27304074520E+02  0.61591914758E+02  0.41800000000E+01 0. -1.
         -5    1    3    3    0  502  0.49723331901E+02  0.17692149739E+02  0.12984597206E+03  0.14022435864E+03  0.41800000000E+01 0. -1.
        -11    1    1    2    0    0  0.27291773803E+02 -0.48041377713E+02 -0.30401703416E+02  0.63064082174E+02  0.00000000000E+00 0.  1.
         11    1    1    2    0    0 -0.21978469917E+02  0.29105122090E+02 -0.84255433391E+01  0.37431952291E+02  0.00000000000E+00 0. -1.
</event>
<event>
 7    1  0.2810263E-009  0.1575868E+03  0.7561462E-02  0.1191448E+00
         -2   -1    0    0    0  501 -0.00000000000E+00  0.00000000000E+00  0.16297625118E+03  0.16297625118E+03  0.00000000000E+00 0.  1.
          2   -1    0    0  501    0  0.00000000000E+00 -0.00000000000E+00 -0.70686897186E+03  0.70686897186E+03  0.00000000000E+00 0. -1.
         25    2    1    2    0    0  0.34113598953E+02  0.11657401115E+03 -0.65696439699E+03  0.67970776963E+03  0.12508875039E+03 0.  0.
          5    1    3    3  502    0 -0.36292977267E+01  0.12577262633E+03 -0.38782386321E+03  0.40774593390E+03  0.41800000000E+01 0.  1.
         -5    1    3    3    0  502  0.37742896680E+02 -0.91986151772E+01 -0.26914053378E+03  0.27196183573E+03  0.41800000000E+01 0.  1.
        -11    1    1    2    0    0 -0.45522358837E+02 -0.14905185045E+02  0.53251257675E+02  0.71625038494E+02  0.00000000000E+00 0. -1.
         11    1    1    2    0    0  0.11408759884E+02 -0.10166882611E+03  0.59820418638E+02  0.11851241492E+03  0.00000000000E+00 0.  1.
</event>
<event>
 7    1  0.2810263E-009  0.2203688E+03  0.7561462E-02  0.1133608E+00
          2   -1    0    0  501    0  0.00000000000E+00  0.00000000000E+00  0.10627667138E+04  0.10627667138E+04  0.00000000000E+00 0. -1.
         -2   -1    0    0    0  501 -0.00000000000E+00 -0.00000000000E+00 -0.58768516117E+02  0.58768516117E+02  0.00000000000E+00 0.  1.
         25    2    1    2    0    0  0.18542997500E+03 -0.79153675765E+02  0.73915484041E+03  0.77630234999E+03  0.12508349404E+03 0.  0.
          5    1    3    3  502    0  0.53437712167E+02 -0.76367381282E+02  0.43182737662E+03  0.44179171745E+03  0.41800000000E+01 0.  1.
         -5    1    3    3    0  502  0.13199226283E+03 -0.27862944831E+01  0.30732746379E+03  0.33451063254E+03  0.41800000000E+01 0.  1.
        -11    1    1    2    0    0 -0.11941664605E+03  0.88556328117E+02  0.21749936533E+03  0.26345499146E+03  0.00000000000E+00 0.  1.
         11    1    1    2    0    0 -0.66013328944E+02 -0.94026523517E+01  0.47343991936E+02  0.81777888466E+02  0.00000000000E+00 0. -1.
</event>
<event>
 7    1  0.2810263E-009  0.1951882E+03  0.7561462E-02  0.1153863E+00
         -4   -1    0    0    0  501 -0.00000000000E+00  0.00000000000E+00  0.38383593383E+02  0.38383593383E+02  0.00000000000E+00 0.  1.
          4   -1    0    0  501    0  0.00000000000E+00 -0.00000000000E+00 -0.10824186369E+04  0.10824186369E+04  0.00000000000E+00 0. -1.
         25    2    1    2    0    0 -0.15364233082E+03 -0.75475667480E+02 -0.59768018822E+03  0.63416994572E+03  0.12508944985E+03 0.  0.
          5    1    3    3  502    0  0.51869176863E+01 -0.50575724064E+02 -0.13308016553E+03  0.14252231698E+03  0.41800000000E+01 0. -1.
         -5    1    3    3    0  502 -0.15882924851E+03 -0.24899943416E+02 -0.46460002269E+03  0.49164762874E+03  0.41800000000E+01 0. -1.
        -11    1    1    2    0    0  0.10296066064E+03  0.22825520324E+02 -0.35095770042E+03  0.36646037917E+03  0.00000000000E+00 0.  1.
         11    1    1    2    0    0  0.50681670179E+02  0.52650147156E+02 -0.95397154890E+02  0.12017190541E+03  0.00000000000E+00 0. -1.
</event>
<event>
 7    1  0.2810263E-009  0.3183496E+03  0.7561462E-02  0.1076411E+00
          1   -1    0    0  501    0  0.00000000000E+00  0.00000000000E+00  0.22208358745E+03  0.22208358745E+03  0.00000000000E+00 0. -1.
         -1   -1    0    0    0  501 -0.00000000000E+00 -0.00000000000E+00 -0.46055897123E+03  0.46055897123E+03  0.00000000000E+00 0.  1.
         25    2    1    2    0    0  0.53955448920E+02  0.29556672432E+03 -0.11117986075E+03  0.34391701988E+03  0.12508827335E+03 0.  0.
          5    1    3    3  502    0 -0.37689975854E+02  0.62791215349E+02 -0.41115182855E+02  0.84090437424E+02  0.41800000000E+01 0.  1.
         -5    1    3    3    0  502  0.91645424774E+02  0.23277550898E+03 -0.70064677892E+02  0.25982658245E+03  0.41800000000E+01 0.  1.
        -11    1    1    2    0    0  0.15397264614E+02 -0.16121277432E+03 -0.54112573393E+02  0.17074778171E+03  0.00000000000E+00 0.  1.
         11    1    1    2    0    0 -0.69352713534E+02 -0.13435395001E+03 -0.73182949640E+02  0.16797775709E+03  0.00000000000E+00 0. -1.
</event>
<event>
 7    1  0.2810263E-009  0.8726043E+02  0.7561462E-02  0.1309625E+00
          1   -1    0    0  501    0  0.00000000000E+00  0.00000000000E+00  0.68138366286E+02  0.68138366286E+02  0.00000000000E+00 0. -1.
         -1   -1    0    0    0  501 -0.00000000000E+00 -0.00000000000E+00 -0.19705591247E+03  0.19705591247E+03  0.00000000000E+00 0.  1.
         25    2    1    2    0    0 -0.35357152799E+02 -0.28561614719E+02 -0.76822564055E+02  0.15367469588E+03  0.12509321211E+03 0.  0.
          5    1    3    3  502    0 -0.77676831815E+02 -0.38059221794E+01 -0.68599272259E+02  0.10378587476E+03  0.41800000000E+01 0.  1.
         -5    1    3    3    0  502  0.42319679016E+02 -0.24755692540E+02 -0.82232917959E+01  0.49888821124E+02  0.41800000000E+01 0.  1.
        -11    1    1    2    0    0  0.45805531674E+01  0.11190346861E+02  0.24413173477E+02  0.27243501416E+02  0.00000000000E+00 0. -1.
         11    1    1    2    0    0  0.30776599631E+02  0.17371267858E+02 -0.76508155605E+02  0.84276081458E+02  0.00000000000E+00 0.  1.
</event>
<event>
 7    1  0.2810263E-009  0.4867107E+02  0.7561462E-02  0.1452644E+00
          1   -1    0    0  501    0  0.00000000000E+00  0.00000000000E+00  0.54859088989E+03  0.54859088989E+03  0.00000000000E+00 0. -1.
         -1   -1    0    0    0  501 -0.00000000000E+00 -0.00000000000E+00 -0.30922296891E+02  0.30922296891E+02  0.00000000000E+00 0.  1.
         25    2    1    2    0    0  0.41941659869E+02  0.12512648532E+02  0.49358957371E+03  0.51107135345E+03  0.12509033471E+03 0.  0.
          5    1    3    3  502    0  0.27444421339E+02  0.65097531421E+01  0.49400565998E+03  0.49482788689E+03  0.41800000000E+01 0. -1.
         -5    1    3    3    0  502  0.14497238530E+02  0.60028953902E+01 -0.41608627493E+00  0.16243466559E+02  0.41800000000E+01 0. -1.
        -11    1    1    2    0    0 -0.22846215290E+02 -0.21601791044E+02 -0.56627851562E+01  0.31947676991E+02  0.00000000000E+00 0.  1.
         11    1    1    2    0    0 -0.19095444579E+02  0.90891425115E+01  0.29741804450E+02  0.36494156344E+02  0.00000000000E+00 0. -1.
</event>
<event>
 7    1  0.2810263E-009  0.1015279E+03  0.7561462E-02  0.1277115E+00
          1   -1    0    0  501    0  0.00000000000E+00  0.00000000000E+00  0.19968859074E+03  0.19968859074E+03  0.00000000000E+00 0. -1.
         -1   -1    0    0    0  501 -0.00000000000E+00 -0.00000000000E+00 -0.70632142986E+02  0.70632142986E+02  0.00000000000E+00 0.  1.
         25    2    1    2    0    0 -0.44274573650E+02 -0.11268551590E+01  0.95078409214E+02  0.16324631271E+03  0.12509175448E+03 0.  0.
          5    1    3    3  502    0 -0.21105835588E+02 -0.62949422902E+02  0.49164999364E+02  0.82720950804E+02  0.41800000000E+01 0.  1.
         -5    1    3    3    0  502 -0.23168738063E+02  0.61822567743E+02  0.45913409851E+02  0.80525361904E+02  0.41800000000E+01 0.  1.
        -11    1    1    2    0    0  0.15980136970E+02  0.27429945394E+02 -0.22312695570E+02  0.38802359020E+02  0.00000000000E+00 0.  1.
         11    1    1    2    0    0  0.28294436680E+02 -0.26303090235E+02  0.56290734113E+02  0.68272062002E+02  0.00000000000E+00 0. -1.
</event>
<event>
 7    1  0.3376244E-009  0.1133546E+03  0.7561462E-02  0.1254481E+00
         -1   -1    0    0    0  501 -0.00000000000E+00  0.00000000000E+00  0.62758923195E+02  0.62758923195E+02  0.00000000000E+00 0.  1.
          1   -1    0    0  501    0  0.00000000000E+00 -0.00000000000E+00 -0.29661416420E+03  0.29661416420E+03  0.00000000000E+00 0. -1.
         25    2    1    2    0    0 -0.54331393426E+02 -0.61494526654E+02 -0.13663767995E+03  0.20261137396E+03  0.12509211068E+03 0.  0.
          5    1    3    3  502    0 -0.80785238784E+02 -0.56847820498E+02 -0.48013333865E+02  0.10991215642E+03  0.41800000000E+01 0. -1.
         -5    1    3    3    0  502  0.26453845359E+02 -0.46467061567E+01 -0.88624346087E+02  0.92699217535E+02  0.41800000000E+01 0. -1.
        -11    1    1    2    0    0  0.13467417548E+02 -0.11032581758E+02  0.10724512996E+02  0.20447600706E+02  0.00000000000E+00 0.  1.
         11    1    1    2    0    0  0.40863975878E+02  0.72527108412E+02 -0.10794207404E+03  0.13631411273E+03  0.00000000000E+00 0. -1.
</event>
<event>
 7    1  0.2810263E-009  0.9308536E+02  0.7561462E-02  0.1295547E+00
          2   -1    0    0  501    0  0.00000000000E+00  0.00000000000E+00  0.45347556561E+03  0.45347556561E+03  0.00000000000E+00 0. -1.
         -2   -1    0    0    0  501 -0.00000000000E+00 -0.00000000000E+00 -0.33037670901E+02  0.33037670901E+02  0.00000000000E+00 0.  1.
         25    2    1    2    0    0  0.69026164544E+01  0.55963864102E+02  0.23262664801E+03  0.27007926849E+03  0.12509218082E+03 0.  0.
          5    1    3    3  502    0  0.25055015238E+02  0.68326911895E+01  0.21200988787E+03  0.21363544746E+03  0.41800000000E+01 0.  1.
         -5    1    3    3    0  502 -0.18152398783E+02  0.49131172912E+02  0.20616760143E+02  0.56443821027E+02  0.41800000000E+01 0.  1.
        -11    1    1    2    0    0  0.26933181940E+02  0.13447370564E+02  0.46317731105E+02  0.55240929384E+02  0.00000000000E+00 0.  1.
         11    1    1    2    0    0 -0.33835798395E+02 -0.69411234666E+02  0.14149351559E+03  0.16119303864E+03  0.00000000000E+00 0. -1.
</event>
<event>
 7    1  0.2810263E-009  0.1064567E+03  0.7561462E-02  0.1267276E+00
          1   -1    0    0  501    0  0.00000000000E+00  0.00000000000E+00  0.97049320751E+03  0.97049320751E+03  0.00000000000E+00 0. -1.
         -1   -1    0    0    0  501 -0.00000000000E+00 -0.00000000000E+00 -0.13262769784E+02  0.13262769784E+02  0.00000000000E+00 0.  1.
         25    2    1    2    0    0  0.11986483723E+02 -0.75376306448E+01  0.67701025496E+03  0.68861477828E+03  0.12508771274E+03 0.  0.
          5    1    3    3  502    0  0.58444578585E+02 -0.33134634275E+02  0.47364075822E+03  0.47840015991E+03  0.41800000000E+01 0.  1.
         -5    1    3    3    0  502 -0.46458094861E+02  0.25597003631E+02  0.20336949673E+03  0.21021461837E+03  0.41800000000E+01 0.  1.
        -11    1    1    2    0    0  0.19416008550E+02 -0.34698491961E+02  0.13170613068E+03  0.13757714778E+03  0.00000000000E+00 0. -1.
         11    1    1    2    0    0 -0.31402492273E+02  0.42236122606E+02  0.14851405208E+03  0.15756405123E+03  0.00000000000E+00 0.  1.
</event>
<event>
 7    1  0.2810263E-009  0.7553238E+02  0.7561462E-02  0.1342230E+00
         -1   -1    0    0    0  501 -0.00000000000E+00  0.00000000000E+00  0.90320011487E+02  0.90320011487E+02  0.00000000000E+00 0.  1.
          1   -1    0    0  501    0  0.00000000000E+00 -0.00000000000E+00 -0.27174804400E+03  0.27174804400E+03  0.00000000000E+00 0. -1.
         25    2    1    2    0    0 -0.68825148717E+02 -0.21359599741E+01 -0.20176965799E+03  0.24718402891E+03  0.12508991104E+03 0.  0.
          5    1    3    3  502    0 -0.57648712406E+02 -0.29427488582E+01 -0.14673616213E+02  0.59706123854E+02  0.41800000000E+01 0. -1.
         -5    1    3    3    0  502 -0.11176436312E+02  0.80678888411E+00 -0.18709604177E+03  0.18747790506E+03  0.41800000000E+01 0. -1.
        -11    1    1    2    0    0  0.34045771077E+02  0.22612027530E+02 -0.29753380445E+02  0.50553753225E+02  0.00000000000E+00 0. -1.
         11    1    1    2    0    0  0.34779377641E+02 -0.20476067556E+02  0.50095005919E+02  0.64330273353E+02  0.00000000000E+00 0.  1.
</event>
<event>
 7    1  0.2810263E-009  0.1639360E+03  0.7561462E-02  0.1184323E+00
          2   -1    0    0  501    0  0.00000000000E+00  0.00000000000E+00  0.79023538845E+03  0.79023538845E+03  0.00000000000E+00 0. -1.
         -2   -1    0    0    0  501 -0.00000000000E+00 -0.00000000000E+00 -0.43409574200E+02  0.43409574200E+02  0.00000000000E+00 0.  1.
         25    2    1    2    0    0 -0.12005630235E+03 -0.59479903902E+02  0.23856187053E+03  0.30084945053E+03  0.12508897279E+03 0.  0.
          5    1    3    3  502    0 -0.10901289639E+03 -0.91679804559E+02  0.15514467363E+03  0.21065692559E+03  0.41800000000E+01 0.  1.
         -5    1    3    3    0  502 -0.11043405965E+02  0.32199900658E+02  0.83417196894E+02  0.90192524942E+02  0.41800000000E+01 0.  1.
        -11    1    1    2    0    0  0.49468103108E+02 -0.11695200074E+02  0.26246010142E+03  0.26733719488E+03  0.00000000000E+00 0. -1.
         11    1    1    2    0    0  0.70588199244E+02  0.71175103976E+02  0.24580384230E+03  0.26545831723E+03  0.00000000000E+00 0.  1.
</event>
<event>
 7    1  0.2810263E-009  0.1632568E+03  0.7561462E-02  0.1185068E+00
          2   -1    0    0  501    0  0.00000000000E+00  0.00000000000E+00  0.10407305001E+03  0.10407305001E+03  0.00000000000E+00 0.  1.
         -2   -1    0    0    0  501 -0.00000000000E+00 -0.00000000000E+00 -0.32479649287E+03  0.32479649287E+03  0.00000000000E+00 0. -1.
         25    2    1    2    0    0  0.10798500518E+03  0.94446381632E+02 -0.79937648022E+02  0.20644125604E+03  0.12508830592E+03 0.  0.
          5    1    3    3  502    0  0.11401056156E+03  0.82182044996E+02 -0.16681428811E+02  0.14159109836E+03  0.41800000000E+01 0. -1.
         -5    1    3    3    0  502 -0.60255563803E+01  0.12264336636E+02 -0.63256219211E+02  0.64850157684E+02  0.41800000000E+01 0. -1.
        -11    1    1    2    0    0  0.36961104550E+01 -0.52019182571E+02 -0.34547369169E+02  0.62555393887E+02  0.00000000000E+00 0. -1.
         11    1    1    2    0    0 -0.11168111564E+03 -0.42427199061E+02 -0.10623842567E+03  0.15987289295E+03  0.00000000000E+00 0.  1.
</event>
<event>
 7    1  0.2810263E-009  0.1079987E+03  0.7561462E-02  0.1264321E+00
          1   -1    0    0  501    0  0.00000000000E+00  0.00000000000E+00  0.73299102045E+02  0.73299102045E+02  0.00000000000E+00 0. -1.
         -1   -1    0    0    0  501 -0.00000000000E+00 -0.00000000000E+00 -0.18063219093E+03  0.18063219093E+03  0.00000000000E+00 0.  1.
         25    2    1    2    0    0  0.13080532586E+02  0.29134048959E+02 -0.31742228687E+02  0.13294647227E+03  0.12508917725E+03 0.  0.
          5    1    3    3  502    0  0.55906981922E+02 -0.22271061756E+02 -0.25916202771E+02  0.65656018653E+02  0.41800000000E+01 0.  1.
         -5    1    3    3    0  502 -0.42826449336E+02  0.51405110715E+02 -0.58260259160E+01  0.67290453619E+02  0.41800000000E+01 0.  1.
        -11    1    1    2    0    0 -0.35397497253E+02 -0.47842404896E+02 -0.69012811641E+02  0.91129834240E+02  0.00000000000E+00 0.  1.
         11    1    1    2    0    0  0.22316964667E+02  0.18708355937E+02 -0.65780485563E+01  0.29854986462E+02  0.00000000000E+00 0. -1.
</event>
<event>
 7    1  0.2810263E-009  0.1546720E+03  0.7561462E-02  0.1194847E+00
         -1   -1    0    0    0  501 -0.00000000000E+00  0.00000000000E+00  0.35343917506E+02  0.35343917506E+02  0.00000000000E+00 0.  1.
          1   -1    0    0  501    0  0.00000000000E+00 -0.00000000000E+00 -0.73911509717E+03  0.73911509717E+03  0.00000000000E+00 0. -1.
         25    2    1    2    0    0 -0.11245703094E+03  0.80418756206E+01 -0.30197412314E+03  0.34575600407E+03  0.12509031829E+03 0.  0.
          5    1    3    3  502    0 -0.87250448910E+02 -0.52738826411E+02 -0.17119764412E+03  0.19929909783E+03  0.41800000000E+01 0. -1.
         -5    1    3    3    0  502 -0.25206582034E+02  0.60780702031E+02 -0.13077647902E+03  0.14645690623E+03  0.41800000000E+01 0. -1.
        -11    1    1    2    0    0  0.92137955653E+02  0.31122954636E+02 -0.33352339355E+03  0.34741314774E+03  0.00000000000E+00 0.  1.
         11    1    1    2    0    0  0.20319075291E+02 -0.39164830256E+02 -0.68273662974E+02  0.81289862871E+02  0.00000000000E+00 0. -1.
</event>
<event>
 7    1  0.2810263E-009  0.1187139E+03  0.7561462E-02  0.1245234E+00
          1   -1    0    0  501    0  0.00000000000E+00  0.00000000000E+00  0.30458839824E+03  0.30458839824E+03  0.00000000000E+00 0. -1.
         -1   -1    0    0    0  501 -0.00000000000E+00 -0.00000000000E+00 -0.66548511400E+02  0.66548511400E+02  0.00000000000E+00 0.  1.
         25    2    1    2    0    0  0.16224019149E+02 -0.85106478929E+02  0.89286026291E+02  0.17642394900E+03  0.12508830376E+03 0.  0.
          5    1    3    3  502    0  0.39716211033E+02 -0.83502609473E+02  0.11071699102E+03  0.14431142612E+03  0.41800000000E+01 0. -1.
         -5    1    3    3    0  502 -0.23492191884E+02 -0.16038694555E+01 -0.21430964728E+02  0.32112522884E+02  0.41800000000E+01 0. -1.
        -11    1    1    2    0    0  0.32410783396E+02  0.54739531154E+02  0.10426924389E+03  0.12214315525E+03  0.00000000000E+00 0. -1.
         11    1    1    2    0    0 -0.48634802545E+02  0.30366947775E+02  0.44484616656E+02  0.72569805393E+02  0.00000000000E+00 0.  1.
</event>
<event>
 7    1  0.2810263E-009  0.1115018E+03  0.7561462E-02  0.1257814E+00
          3   -1    0    0  501    0  0.00000000000E+00  0.00000000000E+00  0.26505478704E+03  0.26505478704E+03  0.00000000000E+00 0. -1.
         -3   -1    0    0    0  501 -0.00000000000E+00 -0.00000000000E+00 -0.67063854147E+02  0.67063854147E+02  0.00000000000E+00 0.  1.
         25    2    1    2    0    0 -0.53861321804E+02  0.56716760651E+02  0.98149109664E+02  0.17719491979E+03  0.12508780495E+03 0.  0.
          5    1    3    3  502    0 -0.56594950855E+02  0.76698734065E+02  0.21468062937E+02  0.97795881282E+02  0.41800000000E+01 0. -1.
         -5    1    3    3    0  502  0.27336290508E+01 -0.19981973414E+02  0.76681046727E+02  0.79399038511E+02  0.41800000000E+01 0. -1.
        -11    1    1    2    0    0  0.71792101241E+02 -0.38619434224E+02  0.10054182895E+03  0.12943811598E+03  0.00000000000E+00 0.  1.
         11    1    1    2    0    0 -0.17930779437E+02 -0.18097326428E+02 -0.70000572378E+00  0.25485605409E+02  0.00000000000E+00 0. -1.
</event>
<event>
 7    1  0.2810263E-009  0.9986877E+02  0.7561462E-02  0.1280572E+00
          2   -1    0    0  501    0  0.00000000000E+00  0.00000000000E+00  0.32021962536E+03  0.32021962536E+03  0.00000000000E+00 0. -1.
         -2   -1    0    0    0  501 -0.00000000000E+00 -0.00000000000E+00 -0.51667085525E+02  0.51667085525E+02  0.00000000000E+00 0.  1.
         25    2    1    2    0    0 -0.63202006398E+02  0.23180342321E+02  0.15942076247E+03  0.21352827424E+03  0.12509005761E+03 0.  0.
          5    1    3    3  502    0  0.14586840002E+02 -0.18011556093E+02 -0.75488542003E+01  0.24731551789E+02  0.41800000000E+01 0. -1.
         -5    1    3    3    0  502 -0.77788846400E+02  0.41191898414E+02  0.16696961667E+03  0.18879672246E+03  0.41800000000E+01 0. -1.
        -11    1    1    2    0    0  0.65917563995E+02 -0.12112282337E+01  0.23626647026E+02  0.70034354188E+02  0.00000000000E+00 0.  1.
         11    1    1    2    0    0 -0.27155575972E+01 -0.21969114087E+02  0.85505130344E+02  0.88324082457E+02  0.00000000000E+00 0. -1.
</event>
<event>
 7    1  0.2810263E-009  0.2263392E+03  0.7561462E-02  0.1129243E+00
         -1   -1    0    0    0  501 -0.00000000000E+00  0.00000000000E+00  0.36864961392E+03  0.36864961392E+03  0.00000000000E+00 0.  1.
          1   -1    0    0  501    0  0.00000000000E+00 -0.00000000000E+00 -0.21143669540E+03  0.21143669540E+03  0.00000000000E+00 0. -1.
         25    2    1    2    0    0 -0.10593402231E+03  0.18376625838E+03  0.23133913317E+03  0.33787130001E+03  0.12508863271E+03 0.  0.
          5    1    3    3  502    0 -0.11256340516E+03  0.98100216547E+02  0.96176558005E+02  0.17765577777E+03  0.41800000000E+01 0.  1.
         -5    1    3    3    0  502  0.66293828445E+01  0.85666041832E+02  0.13516257516E+03  0.16021552223E+03  0.41800000000E+01 0.  1.
        -11    1    1    2    0    0  0.11627241878E+02 -0.10616178399E+01 -0.29629552792E+02  0.31846980779E+02  0.00000000000E+00 0. -1.
         11    1    1    2    0    0  0.94306780434E+02 -0.18270464054E+03 -0.44496661860E+02  0.21036802853E+03  0.00000000000E+00 0.  1.
</event>
<event>
 7    1  0.3174649E-009  0.1300404E+03  0.7561462E-02  0.1227396E+00
          1   -1    0    0  501    0  0.00000000000E+00  0.00000000000E+00  0.14339558708E+03  0.14339558708E+03  0.00000000000E+00 0. -1.
         -1   -1    0    0    0  501 -0.00000000000E+00 -0.00000000000E+00 -0.15099405593E+03  0.15099405593E+03  0.00000000000E+00 0.  1.
         25    2    1    2    0    0 -0.68404592500E+02  0.44344988019E+02  0.52250715689E+02  0.15818542067E+03  0.12508726468E+03 0.  0.
          5    1    3    3  502    0 -0.99507689482E+02  0.15980314662E+02  0.15310149994E+02  0.10202462357E+03  0.41800000000E+01 0. -1.
         -5    1    3    3    0  502  0.31103096982E+02  0.28364673357E+02  0.36940565695E+02  0.56160797095E+02  0.41800000000E+01 0. -1.
        -11    1    1    2    0    0  0.12257319693E+02  0.24905012038E+02 -0.32947623750E+02  0.43081868825E+02  0.00000000000E+00 0.  1.
         11    1    1    2    0    0  0.56147272807E+02 -0.69250000057E+02 -0.26901560784E+02  0.93122353515E+02  0.00000000000E+00 0. -1.
</event>
<event>
 7    1  0.2810263E-009  0.1090008E+03  0.7561462E-02  0.1262432E+00
         -1   -1    0    0    0  501 -0.00000000000E+00  0.00000000000E+00  0.43556003331E+02  0.43556003331E+02  0.00000000000E+00 0.  1.
          1   -1    0    0  501    0  0.00000000000E+00 -0.00000000000E+00 -0.28325089151E+03  0.28325089151E+03  0.00000000000E+00 0. -1.
         25    2    1    2    0    0  0.52266070925E+01 -0.17112169233E+01 -0.15440723703E+03  0.19879694967E+03  0.12509351169E+03 0.  0.
          5    1    3    3  502    0 -0.11953103138E+02 -0.60167220729E+02 -0.57083254751E+02  0.83898399852E+02  0.41800000000E+01 0. -1.
         -5    1    3    3    0  502  0.17179710231E+02  0.58456003806E+02 -0.97323982276E+02  0.11489854982E+03  0.41800000000E+01 0. -1.
        -11    1    1    2    0    0 -0.21878512353E+02 -0.42719561954E+02 -0.44018579786E+02  0.65125000135E+02  0.00000000000E+00 0.  1.
         11    1    1    2    0    0  0.16651905260E+02  0.44430778877E+02 -0.41269071365E+02  0.62884945032E+02  0.00000000000E+00 0. -1.
</event>
<event>
 7    1  0.2810263E-009  0.5752104E+02  0.7561462E-02  0.1408539E+00
          2   -1    0    0  501    0  0.00000000000E+00  0.00000000000E+00  0.67432570343E+03  0.67432570343E+03  0.00000000000E+00 0. -1.
         -2   -1    0    0    0  501 -0.00000000000E+00 -0.00000000000E+00 -0.18504290563E+02  0.18504290563E+02  0.00000000000E+00 0.  1.
         25    2    1    2    0    0  0.22710785831E+02 -0.33684467228E+01  0.42492807272E+03  0.44355292991E+03  0.12509279923E+03 0.  0.
          5    1    3    3  502    0  0.19473603538E+02 -0.95645192693E+01  0.38880612191E+01  0.22434141028E+02  0.41800000000E+01 0.  1.
         -5    1    3    3    0  502  0.32371822925E+01  0.61960725465E+01  0.42104001151E+03  0.42111878889E+03  0.41800000000E+01 0.  1.
        -11    1    1    2    0    0 -0.41578899800E+02 -0.26621140831E+02  0.77844940545E+02  0.92180935209E+02  0.00000000000E+00 0.  1.
         11    1    1    2    0    0  0.18868113969E+02  0.29989587553E+02  0.15304839960E+03  0.15709612887E+03  0.00000000000E+00 0. -1.
</event>
<event>
 7    1  0.2810263E-009  0.1196891E+03  0.7561462E-02  0.1243611E+00
          2   -1    0    0  501    0  0.00000000000E+00  0.00000000000E+00  0.24459968894E+03  0.24459968894E+03  0.00000000000E+00 0. -1.
         -2   -1    0    0    0  501 -0.00000000000E+00 -0.00000000000E+00 -0.10036622600E+03  0.10036622600E+03  0.00000000000E+00 0.  1.
         25    2    1    2    0    0  0.76756999257E+02  0.80163960034E+02  0.61267284128E+02  0.17809902450E+03  0.12509070708E+03 0.  0.
          5    1    3    3  502    0  0.57740299748E+02  0.83801964863E+02  0.94805498452E+02  0.13914836135E+03  0.41800000000E+01 0.  1.
         -5    1    3    3    0  502  0.19016699509E+02 -0.36380048297E+01 -0.33538214324E+02  0.38950663144E+02  0.41800000000E+01 0.  1.
        -11    1    1    2    0    0 -0.54255954585E+02 -0.28323993226E+02 -0.59698764468E+01  0.61494687779E+02  0.00000000000E+00 0.  1.
         11    1    1    2    0    0 -0.22501044672E+02 -0.51839966808E+02  0.88936055255E+02  0.10537220266E+03  0.00000000000E+00 0. -1.
</event>
<event>
 7    1  0.2810263E-009  0.1279792E+03  0.7561462E-02  0.1230485E+00
          1   -1    0    0  501    0  0.00000000000E+00  0.00000000000E+00  0.28086473373E+03  0.28086473373E+03  0.00000000000E+00 0. -1.
         -1   -1    0    0    0  501 -0.00000000000E+00 -0.00000000000E+00 -0.63890809962E+02  0.63890809962E+02  0.00000000000E+00 0.  1.
         25    2    1    2    0    0 -0.32861689576E+02  0.62521929898E+02  0.16319381747E+03  0.21741625026E+03  0.12509484984E+03 0.  0.
          5    1    3    3  502    0 -0.78301374074E+02  0.58536984046E+02  0.11118732148E+03  0.14811406598E+03  0.41800000000E+01 0.  1.
         -5    1    3    3    0  502  0.45439684498E+02  0.39849458522E+01  0.52006495987E+02  0.69302184277E+02  0.41800000000E+01 0.  1.
        -11    1    1    2    0    0  0.62219088256E+02 -0.32055111217E+02  0.47449651133E+02  0.84558940930E+02  0.00000000000E+00 0. -1.
         11    1    1    2    0    0 -0.29357398680E+02 -0.30466818680E+02  0.63304551657E+01  0.42780352504E+02  0.00000000000E+00 0.  1.
</event>
<event>
 7    1  0.2810263E-009  0.3094916E+03  0.7561462E-02  0.1080590E+00
         -2   -1    0    0    0  501 -0.00000000000E+00  0.00000000000E+00  0.49864323956E+02  0.49864323956E+02  0.00000000000E+00 0.  1.
          2   -1    0    0  501    0  0.00000000000E+00 -0.00000000000E+00 -0.23564316086E+04  0.23564316086E+04  0.00000000000E+00 0. -1.
         25    2    1    2    0    0  0.29147875424E+03 -0.28625756762E+02 -0.67095453621E+03  0.74270212510E+03  0.12508860401E+03 0.  0.
          5    1    3    3  502    0  0.80559537434E+02  0.44518585187E+02 -0.24543385573E+03  0.26215833658E+03  0.41800000000E+01 0. -1.
         -5    1    3    3    0  502  0.21091921680E+03 -0.73144341948E+02 -0.42552068048E+03  0.48054378853E+03  0.41800000000E+01 0. -1.
        -11    1    1    2    0    0 -0.62880566570E+02 -0.26784095340E+02 -0.39831196495E+03  0.40413336269E+03  0.00000000000E+00 0. -1.
         11    1    1    2    0    0 -0.22859818767E+03  0.55409852102E+02 -0.12373007835E+04  0.12594604448E+04  0.00000000000E+00 0.  1.
</event>
<event>
 7    1  0.2810263E-009  0.1063713E+03  0.7561462E-02  0.1267441E+00
         -2   -1    0    0    0  501 -0.00000000000E+00  0.00000000000E+00  0.10893130823E+02  0.10893130823E+02  0.00000000000E+00 0.  1.
          2   -1    0    0  501    0  0.00000000000E+00 -0.00000000000E+00 -0.16246189171E+04  0.16246189171E+04  0.00000000000E+00 0. -1.
         25    2    1    2    0    0 -0.52866146743E+02 -0.32997423082E+02 -0.11833205856E+04  0.11915453338E+04  0.12509602242E+03 0.  0.
          5    1    3    3  502    0  0.21986098774E+02  0.29504692484E+01 -0.74890415535E+03  0.74924428601E+03  0.41800000000E+01 0.  1.
         -5    1    3    3    0  502 -0.74852245517E+02 -0.35947892330E+02 -0.43441643024E+03  0.44230104780E+03  0.41800000000E+01 0.  1.
        -11    1    1    2    0    0  0.20318810791E+02  0.60872728721E+02 -0.29674875808E+03  0.30360857794E+03  0.00000000000E+00 0.  1.
         11    1    1    2    0    0  0.32547335951E+02 -0.27875305639E+02 -0.13365644255E+03  0.14035813613E+03  0.00000000000E+00 0. -1.
</event>
<event>
 7    1  0.2810263E-009  0.8573822E+02  0.7561462E-02  0.1313513E+00
         -1   -1    0    0    0  501 -0.00000000000E+00  0.00000000000E+00  0.39174414816E+02  0.39174414816E+02  0.00000000000E+00 0.  1.
          1   -1    0    0  501    0  0.00000000000E+00 -0.00000000000E+00 -0.33240604371E+03  0.33240604371E+03  0.00000000000E+00 0. -1.
         25    2    1    2    0    0  0.53061069213E+01 -0.23788244197E+02 -0.13025126795E+03  0.18223014550E+03  0.12509355617E+03 0.  0.
          5    1    3    3  502    0 -0.33173446851E+02 -0.37428088179E+02 -0.50108488237E+01  0.50437291429E+02  0.41800000000E+01 0.  1.
         -5    1    3    3    0  502  0.38479553772E+02  0.13639843982E+02 -0.12524041912E+03  0.13179285407E+03  0.41800000000E+01 0.  1.
        -11    1    1    2    0    0  0.14812924215E+02  0.47148061231E+02 -0.14603525237E+03  0.15417087059E+03  0.00000000000E+00 0. -1.
         11    1    1    2    0    0 -0.20119031136E+02 -0.23359817034E+02 -0.16945108573E+02  0.35179442438E+02  0.00000000000E+00 0.  1.
</event>
<event>
 7    1  0.2810263E-009  0.1008795E+03  0.7561462E-02  0.1278457E+00
         -1   -1    0    0    0  501 -0.00000000000E+00  0.00000000000E+00  0.44343793662E+03  0.44343793662E+03  0.00000000000E+00 0.  1.
          1   -1    0    0  501    0  0.00000000000E+00 -0.00000000000E+00 -0.26845362785E+02  0.26845362785E+02  0.00000000000E+00 0. -1.
         25    2    1    2    0    0  0.13400485861E+02  0.10899744470E+02  0.25246556744E+03  0.28228488318E+03  0.12509002790E+03 0.  0.
          5    1    3    3  502    0 -0.47337499424E+02 -0.65521582695E+01  0.17886415160E+03  0.18518538483E+03  0.41800000000E+01 0.  1.
         -5    1    3    3    0  502  0.60737985286E+02  0.17451902739E+02  0.73601415845E+02  0.97099498352E+02  0.41800000000E+01 0.  1.
        -11    1    1    2    0    0  0.26158522423E+02 -0.35329667282E+02  0.64493841345E+02  0.78050683899E+02  0.00000000000E+00 0.  1.
         11    1    1    2    0    0 -0.39559008284E+02  0.24429922812E+02  0.99633165052E+02  0.10994773232E+03  0.00000000000E+00 0. -1.
</event>
<event>
 7    1  0.2810263E-009  0.8104714E+02  0.7561462E-02  0.1326106E+00
          2   -1    0    0  501    0  0.00000000000E+00  0.00000000000E+00  0.10144432656E+04  0.10144432656E+04  0.00000000000E+00 0. -1.
         -2   -1    0    0    0  501 -0.00000000000E+00 -0.00000000000E+00 -0.25488458263E+02  0.25488458263E+02  0.00000000000E+00 0.  1.
         25    2    1    2    0    0  0.54678580270E+02 -0.16731362546E+02  0.87627204697E+03  0.88700085393E+03  0.12509248151E+03 0.  0.
          5    1    3    3  502    0  0.44669492733E+02  0.15806099087E+02  0.81801912975E+03  0.81940097961E+03  0.41800000000E+01 0.  1.
         -5    1    3    3    0  502  0.10009087537E+02 -0.32537461633E+02  0.58252917226E+02  0.67599874321E+02  0.41800000000E+01 0.  1.
        -11    1    1    2    0    0 -0.60934052118E+02 -0.15018001286E+01  0.29821044154E+02  0.67856530899E+02  0.00000000000E+00 0.  1.
         11    1    1    2    0    0  0.62554718485E+01  0.18233162675E+02  0.82861716246E+02  0.85074339071E+02  0.00000000000E+00 0. -1.
</event>
<event>
 7    1  0.2810263E-009  0.1469870E+03  0.7561462E-02  0.1204225E+00
          1   -1    0    0  501    0  0.00000000000E+00  0.00000000000E+00  0.29752109626E+03  0.29752109626E+03  0.00000000000E+00 0. -1.
         -1   -1    0    0    0  501 -0.00000000000E+00 -0.00000000000E+00 -0.83590313752E+02  0.83590313752E+02  0.00000000000E+00 0.  1.
         25    2    1    2    0    0  0.12206223163E+03  0.17385790721E+02  0.83341467632E+02  0.19441489692E+03  0.12509955159E+03 0.  0.
          5    1    3    3  502    0  0.10464786333E+03  0.59107582088E+02  0.29196573747E+02  0.12375295503E+03  0.41800000000E+01 0.  1.
         -5    1    3    3    0  502  0.17414368298E+02 -0.41721791367E+02  0.54144893885E+02  0.70661941892E+02  0.41800000000E+01 0.  1.
        -11    1    1    2    0    0 -0.87154872930E+02 -0.28469139822E+02  0.11452078078E+03  0.14670198713E+03  0.00000000000E+00 0. -1.
         11    1    1    2    0    0 -0.34907358699E+02  0.11083349101E+02  0.16068534097E+02  0.39994525959E+02  0.00000000000E+00 0.  1.
</event>
<event>
 7    1  0.2810263E-009  0.9107163E+02  0.7561462E-02  0.1300277E+00
         -2   -1    0    0    0  501 -0.00000000000E+00  0.00000000000E+00  0.90495513655E+02  0.90495513655E+02  0.00000000000E+00 0.  1.
          2   -1    0    0  501    0  0.00000000000E+00 -0.00000000000E+00 -0.16550994269E+03  0.16550994269E+03  0.00000000000E+00 0. -1.
         25    2    1    2    0    0 -0.22674383799E+02  0.48566770268E+02 -0.62102557994E+02  0.14958985536E+03  0.12509012056E+03 0.  0.
          5    1    3    3  502    0 -0.57966533543E+02 -0.10012227931E+02 -0.29089346459E+01  0.59044881403E+02  0.41800000000E+01 0. -1.
         -5    1    3    3    0  502  0.35292149744E+02  0.58578998199E+02 -0.59193623348E+02  0.90544973956E+02  0.41800000000E+01 0. -1.
        -11    1    1    2    0    0  0.21197814373E+02 -0.34376871009E+02 -0.51399805334E+02  0.65368620782E+02  0.00000000000E+00 0. -1.
         11    1    1    2    0    0  0.14765694263E+01 -0.14189899259E+02  0.38487934290E+02  0.41046980208E+02  0.00000000000E+00 0.  1.
</event>
<event>
 7    1  0.2810263E-009  0.1237384E+03  0.7561462E-02  0.1237054E+00
         -2   -1    0    0    0  501 -0.00000000000E+00  0.00000000000E+00  0.43121156276E+02  0.43121156276E+02  0.00000000000E+00 0.  1.
          2   -1    0    0  501    0  0.00000000000E+00 -0.00000000000E+00 -0.15400852995E+04  0.15400852995E+04  0.00000000000E+00 0. -1.
         25    2    1    2    0    0  0.23096862220E+02 -0.11851287861E+03 -0.13809070818E+04  0.13918084607E+04  0.12509058888E+03 0.  0.
          5    1    3    3  502    0 -0.68361803937E+00 -0.86486920214E+02 -0.36578669365E+03  0.37589603929E+03  0.41800000000E+01 0. -1.
         -5    1    3    3    0  502  0.23780480259E+02 -0.32025958393E+02 -0.10151203881E+04  0.10159124215E+04  0.41800000000E+01 0. -1.
        -11    1    1    2    0    0 -0.13309412242E+02  0.75678746724E+02 -0.11129059744E+02  0.77641928948E+02  0.00000000000E+00 0.  1.
         11    1    1    2    0    0 -0.97874499774E+01  0.42834131884E+02 -0.10492800165E+03  0.11375606604E+03  0.00000000000E+00 0. -1.
</event>
<event>
 7    1  0.2810263E-009  0.1110717E+03  0.7561462E-02  0.1258598E+00
          2   -1    0    0  501    0  0.00000000000E+00  0.00000000000E+00  0.11585039433E+03  0.11585039433E+03  0.00000000000E+00 0.  1.
         -2   -1    0    0    0  501 -0.00000000000E+00 -0.00000000000E+00 -0.16964966789E+03  0.16964966789E+03  0.00000000000E+00 0. -1.
         25    2    1    2    0    0  0.19096891153E+02  0.81163989797E+02 -0.53268107384E+02  0.15948729439E+03  0.12508565592E+03 0.  0.
          5    1    3    3  502    0 -0.95439595820E+01 -0.13379399786E+02  0.27168469917E+02  0.32026452516E+02  0.41800000000E+01 0. -1.
         -5    1    3    3    0  502  0.28640850735E+02  0.94543389583E+02 -0.80436577301E+02  0.12746084188E+03  0.41800000000E+01 0. -1.
        -11    1    1    2    0    0 -0.35439912800E+02 -0.15566155661E+02  0.32711319517E+02  0.50678625138E+02  0.00000000000E+00 0.  1.
         11    1    1    2    0    0  0.16343021647E+02 -0.65597834136E+02 -0.33242485684E+02  0.75334142687E+02  0.00000000000E+00 0. -1.
</event>
<event>
 7    1  0.2810263E-009  0.1304470E+03  0.7561462E-02  0.1226794E+00
         -2   -1    0    0    0  501 -0.00000000000E+00  0.00000000000E+00  0.12763120378E+03  0.12763120378E+03  0.00000000000E+00 0.  1.
          2   -1    0    0  501    0  0.00000000000E+00 -0.00000000000E+00 -0.20158175703E+03  0.20158175703E+03  0.00000000000E+00 0. -1.
         25    2    1    2    0    0 -0.75867170273E+02  0.10862362388E+02  0.52131474540E+02  0.15568866342E+03  0.12508977112E+03 0.  0.
          5    1    3    3  502    0 -0.10717888746E+03  0.25039081836E+02  0.28510945696E+02  0.11377440820E+03  0.41800000000E+01 0.  1.
         -5    1    3    3    0  502  0.31311717191E+02 -0.14176719448E+02  0.23620528844E+02  0.41914255219E+02  0.41800000000E+01 0.  1.
        -11    1    1    2    0    0 -0.36967648563E+01 -0.33263089394E+02 -0.19808931149E+02  0.38890782194E+02  0.00000000000E+00 0. -1.
         11    1    1    2    0    0  0.79563935130E+02  0.22400727006E+02 -0.10627309664E+03  0.13463351519E+03  0.00000000000E+00 0.  1.
</event>
<event>
 7    1  0.2810263E-009  0.8481266E+02  0.7561462E-02  0.1315923E+00
         -1   -1    0    0    0  501 -0.00000000000E+00  0.00000000000E+00  0.28677118700E+03  0.28677118700E+03  0.00000000000E+00 0.  1.
          1   -1    0    0  501    0  0.00000000000E+00 -0.00000000000E+00 -0.51704520371E+02  0.51704520371E+02  0.00000000000E+00 0. -1.
         25    2    1    2    0    0 -0.31345100533E+02 -0.36667687189E+02  0.95554746111E+02  0.16463673736E+03  0.12509001228E+03 0.  0.
          5    1    3    3  502    0 -0.84505880212E+01  0.21153345995E+02  0.99522497302E+02  0.10218158520E+03  0.41800000000E+01 0.  1.
         -5    1    3    3    0  502 -0.22894512512E+02 -0.57821033183E+02 -0.39677511918E+01  0.62455152158E+02  0.41800000000E+01 0.  1.
        -11    1    1    2    0    0  0.55111483501E+01 -0.20593420585E+02  0.53591035742E+00  0.21324842964E+02  0.00000000000E+00 0. -1.
         11    1    1    2    0    0  0.25833952183E+02  0.57261107774E+02  0.13897601016E+03  0.15251412704E+03  0.00000000000E+00 0.  1.
</event>
<event>
 7    1  0.2810263E-009  0.1284761E+03  0.7561462E-02  0.1229735E+00
          1   -1    0    0  501    0  0.00000000000E+00  0.00000000000E+00  0.14230905368E+03  0.14230905368E+03  0.00000000000E+00 0. -1.
         -1   -1    0    0    0  501 -0.00000000000E+00 -0.00000000000E+00 -0.22127695060E+03  0.22127695060E+03  0.00000000000E+00 0.  1.
         25    2    1    2    0    0  0.10979514722E+03 -0.27733902163E+02 -0.12504870931E+03  0.21002070374E+03  0.12508945846E+03 0.  0.
          5    1    3    3  502    0  0.31244021154E+02  0.21473769823E+02  0.15859213388E+02  0.41307368563E+02  0.41800000000E+01 0. -1.
         -5    1    3    3    0  502  0.78551126066E+02 -0.49207671986E+02 -0.14090792270E+03  0.16871333518E+03  0.41800000000E+01 0. -1.
        -11    1    1    2    0    0 -0.21773594201E+02  0.31070458701E+02  0.53032477847E+02  0.65206644715E+02  0.00000000000E+00 0. -1.
         11    1    1    2    0    0 -0.88021553019E+02 -0.33365565380E+01 -0.69516654544E+01  0.88358655819E+02  0.00000000000E+00 0.  1.
</event>
<event>
 7    1  0.2810263E-009  0.1561313E+03  0.7561462E-02  0.1193135E+00
         -2   -1    0    0    0  501 -0.00000000000E+00  0.00000000000E+00  0.39296926993E+03  0.39296926993E+03  0.00000000000E+00 0.  1.
          2   -1    0    0  501    0  0.00000000000E+00 -0.00000000000E+00 -0.71361558037E+02  0.71361558037E+02  0.00000000000E+00 0. -1.
         25    2    1    2    0    0 -0.10855974083E+02  0.12505910702E+03  0.17352990939E+03  0.24802611967E+03  0.12508674654E+03 0.  0.
          5    1    3    3  502    0  0.41608657952E+01 -0.21077032752E+02  0.17487809906E+01  0.21956428415E+02  0.41800000000E+01 0.  1.
         -5    1    3    3    0  502 -0.15016839878E+02  0.14613613977E+03  0.17178112840E+03  0.22606969125E+03  0.41800000000E+01 0.  1.
        -11    1    1    2    0    0  0.37297311667E+02 -0.10098252336E+03  0.64738591372E+02  0.12561705575E+03  0.00000000000E+00 0. -1.
         11    1    1    2    0    0 -0.26441337585E+02 -0.24076583663E+02  0.83339211129E+02  0.90687652554E+02  0.00000000000E+00 0.  1.
</event>
<event>
 7    1  0.2810263E-009  0.1967874E+03  0.7561462E-02  0.1152478E+00
         -1   -1    0    0    0  501 -0.00000000000E+00  0.00000000000E+00  0.67023397478E+02  0.67023397478E+02  0.00000000000E+00 0.  1.
          1   -1    0    0  501    0  0.00000000000E+00 -0.00000000000E+00 -0.61125870744E+03  0.61125870744E+03  0.00000000000E+00 0. -1.
         25    2    1    2    0    0 -0.16159516360E+03  0.44527240946E+02 -0.23212642994E+03  0.31244469853E+03  0.12507333081E+03 0.  0.
          5    1    3    3  502    0 -0.15232759540E+03 -0.48528841947E+01 -0.20411490131E+03  0.25476972376E+03  0.41800000000E+01 0. -1.
         -5    1    3    3    0  502 -0.92675681980E+01  0.49380125141E+02 -0.28011528629E+02  0.57674974776E+02  0.41800000000E+01 0. -1.
        -11    1    1    2    0    0  0.15482269082E+03 -0.96011049269E+01 -0.24794398481E+03  0.29246959912E+03  0.00000000000E+00 0. -1.
         11    1    1    2    0    0  0.67724727821E+01 -0.34926136019E+02 -0.64164895216E+02  0.73367807266E+02  0.00000000000E+00 0.  1.
</event>
<event>
 7    1  0.2810263E-009  0.7416015E+02  0.7561462E-02  0.1346492E+00
          2   -1    0    0  501    0  0.00000000000E+00  0.00000000000E+00  0.10847458143E+03  0.10847458143E+03  0.00000000000E+00 0. -1.
         -2   -1    0    0    0  501 -0.00000000000E+00 -0.00000000000E+00 -0.15247152797E+03  0.15247152797E+03  0.00000000000E+00 0.  1.
         25    2    1    2    0    0  0.30951634889E+02  0.54141596488E+02 -0.27106871372E+02  0.14237649109E+03  0.12508783541E+03 0.  0.
          5    1    3    3  502    0 -0.53125284888E+01  0.28670027063E+02  0.47270372178E+02  0.55696982832E+02  0.41800000000E+01 0. -1.
         -5    1    3    3    0  502  0.36264163378E+02  0.25471569424E+02 -0.74377243550E+02  0.86679508262E+02  0.41800000000E+01 0. -1.
        -11    1    1    2    0    0  0.38215287308E+01 -0.33902883890E+02  0.37641088165E+02  0.50802176490E+02  0.00000000000E+00 0. -1.
         11    1    1    2    0    0 -0.34773163620E+02 -0.20238712597E+02 -0.54531163337E+02  0.67767441818E+02  0.00000000000E+00 0.  1.
</event>
<event>
 7    1  0.2810263E-009  0.1341288E+03  0.7561462E-02  0.1221455E+00
         -3   -1    0    0    0  501 -0.00000000000E+00  0.00000000000E+00  0.21340849165E+02  0.21340849165E+02  0.00000000000E+00 0.  1.
          3   -1    0    0  501    0  0.00000000000E+00 -0.00000000000E+00 -0.90651854712E+03  0.90651854712E+03  0.00000000000E+00 0. -1.
         25    2    1    2    0    0 -0.49362661543E+02 -0.63035762315E+02 -0.39349378540E+03  0.42058970758E+03  0.12509261883E+03 0.  0.
          5    1    3    3  502    0 -0.83980442526E+02 -0.17054658571E+02 -0.28591749672E+03  0.29851275255E+03  0.41800000000E+01 0.  1.
         -5    1    3    3    0  502  0.34617780984E+02 -0.45981103744E+02 -0.10757628868E+03  0.12207695503E+03  0.41800000000E+01 0.  1.
        -11    1    1    2    0    0 -0.21424861748E+02  0.47747700358E+02 -0.20137912532E+03  0.20806830539E+03  0.00000000000E+00 0.  1.
         11    1    1    2    0    0  0.70787523290E+02  0.15288061957E+02 -0.29030478723E+03  0.29920138332E+03  0.00000000000E+00 0. -1.
</event>
<event>
 7    1  0.2810263E-009  0.1005377E+03  0.7561462E-02  0.1279169E+00
         -2   -1    0    0    0  501 -0.00000000000E+00  0.00000000000E+00  0.33076740893E+02  0.33076740893E+02  0.00000000000E+00 0.  1.
          2   -1    0    0  501    0  0.00000000000E+00 -0.00000000000E+00 -0.55888180953E+03  0.55888180953E+03  0.00000000000E+00 0. -1.
         25    2    1    2    0    0 -0.23479908304E+02 -0.71878399114E+02 -0.34452223578E+03  0.37424767285E+03  0.12509172367E+03 0.  0.
          5    1    3    3  502    0 -0.46013547868E+01 -0.53688293428E+02 -0.34345244275E+03  0.34767895845E+03  0.41800000000E+01 0. -1.
         -5    1    3    3    0  502 -0.18878553517E+02 -0.18190105685E+02 -0.10697930318E+01  0.26568714400E+02  0.41800000000E+01 0. -1.
        -11    1    1    2    0    0  0.58543148054E+02  0.59031695537E+02 -0.12867431029E+03  0.15319634262E+03  0.00000000000E+00 0.  1.
         11    1    1    2    0    0 -0.35063239749E+02  0.12846703577E+02 -0.52608522561E+02  0.64514534956E+02  0.00000000000E+00 0. -1.
</event>
<event>
 7    1  0.2810263E-009  0.1537703E+03  0.7561462E-02  0.1195915E+00
         -2   -1    0    0    0  501 -0.00000000000E+00  0.00000000000E+00  0.20714066627E+03  0.20714066627E+03  0.00000000000E+00 0.  1.
          2   -1    0    0  501    0  0.00000000000E+00 -0.00000000000E+00 -0.13455319326E+03  0.13455319326E+03  0.00000000000E+00 0. -1.
         25    2    1    2    0    0 -0.11301610702E+03  0.20004551266E+02  0.94186437158E+02  0.19414234938E+03  0.12508934552E+03 0.  0.
          5    1    3    3  502    0 -0.80105337977E+02 -0.48221253504E+02  0.46188454345E+02  0.10436953663E+03  0.41800000000E+01 0.  1.
         -5    1    3    3    0  502 -0.32910769039E+02  0.68225804770E+02  0.47997982813E+02  0.89772812752E+02  0.41800000000E+01 0.  1.
        -11    1    1    2    0    0  0.50881347000E+02  0.29343822288E+02  0.14313925224E+02  0.60455436764E+02  0.00000000000E+00 0.  1.
         11    1    1    2    0    0  0.62134760016E+02 -0.49348373554E+02 -0.35912889375E+02  0.87096073378E+02  0.00000000000E+00 0. -1.
</event>
<event>
 7    1  0.2810263E-009  0.9271418E+02  0.7561462E-02  0.1296409E+00
         -1   -1    0    0    0  501 -0.00000000000E+00  0.00000000000E+00  0.43771674761E+03  0.43771674761E+03  0.00000000000E+00 0.  1.
          1   -1    0    0  501    0  0.00000000000E+00 -0.00000000000E+00 -0.31018233087E+02  0.31018233087E+02  0.00000000000E+00 0. -1.
         25    2    1    2    0    0  0.14834788191E+02  0.13774354709E+01  0.15112194123E+03  0.19674114925E+03  0.12508904996E+03 0.  0.
          5    1    3    3  502    0  0.46608888814E+02 -0.29667887510E+02  0.21122508432E+02  0.59297595467E+02  0.41800000000E+01 0. -1.
         -5    1    3    3    0  502 -0.31774100623E+02  0.31045322981E+02  0.12999943280E+03  0.13744355379E+03  0.41800000000E+01 0. -1.
        -11    1    1    2    0    0 -0.89838853506E+01  0.41329807086E+02  0.18081052458E+03  0.18569143477E+03  0.00000000000E+00 0.  1.
         11    1    1    2    0    0 -0.58509028401E+01 -0.42707242556E+02  0.74766048718E+02  0.86302396674E+02  0.00000000000E+00 0. -1.
</event>
<event>
 7    1  0.2810263E-009  0.1212930E+03  0.7561462E-02  0.1240979E+00
          1   -1    0    0  501    0  0.00000000000E+00  0.00000000000E+00  0.46231091428E+03  0.46231091428E+03  0.00000000000E+00 0. -1.
         -1   -1    0    0    0  501 -0.00000000000E+00 -0.00000000000E+00 -0.34452008740E+02  0.34452008740E+02  0.00000000000E+00 0.  1.
         25    2    1    2    0    0  0.24814166693E+02 -0.50620730858E+02  0.29721818356E+03  0.32736320730E+03  0.12509923899E+03 0.  0.
          5    1    3    3  502    0  0.40028464747E+01 -0.90505511729E+02  0.17586056515E+03  0.19786783773E+03  0.41800000000E+01 0.  1.
         -5    1    3    3    0  502  0.20811320218E+02  0.39884780871E+02  0.12135761841E+03  0.12949536957E+03  0.41800000000E+01 0.  1.
        -11    1    1    2    0    0 -0.14973514283E+02  0.77060778564E+02  0.84669516884E+02  0.11546210119E+03  0.00000000000E+00 0.  1.
         11    1    1    2    0    0 -0.98406524102E+01 -0.26440047706E+02  0.45971205093E+02  0.53937614521E+02  0.00000000000E+00 0. -1.
</event>
<event>
 7    1  0.2810263E-009  0.1014677E+03  0.7561462E-02  0.1277239E+00
         -2   -1    0    0    0  501 -0.00000000000E+00  0.00000000000E+00  0.23040737254E+02  0.23040737254E+02  0.00000000000E+00 0.  1.
          2   -1    0    0  501    0  0.00000000000E+00 -0.00000000000E+00 -0.59963737303E+03  0.59963737303E+03  0.00000000000E+00 0. -1.
         25    2    1    2    0    0 -0.14541673723E+01  0.27811185738E+02 -0.23299299369E+03  0.26591478163E+03  0.12509739936E+03 0.  0.
          5    1    3    3  502    0 -0.49974302300E+02 -0.17553417775E+01 -0.18417272315E+03  0.19088629199E+03  0.41800000000E+01 0. -1.
         -5    1    3    3    0  502  0.48520134928E+02  0.29566527515E+02 -0.48820270539E+02  0.75028489644E+02  0.41800000000E+01 0. -1.
        -11    1    1    2    0    0  0.61401337602E+01 -0.61482173165E+02 -0.20988014899E+03  0.21878627882E+03  0.00000000000E+00 0.  1.
         11    1    1    2    0    0 -0.46859663879E+01  0.33670987427E+02 -0.13372349310E+03  0.13797704984E+03  0.00000000000E+00 0. -1.
</event>
<event>
 7    1  0.2810263E-009  0.1683107E+03  0.7561462E-02  0.1179621E+00
          4   -1    0    0  501    0  0.00000000000E+00  0.00000000000E+00  0.90453800624E+02  0.90453800624E+02  0.00000000000E+00 0. -1.
         -4   -1    0    0    0  501 -0.00000000000E+00 -0.00000000000E+00 -0.33864744688E+03  0.33864744688E+03  0.00000000000E+00 0.  1.
         25    2    1    2    0    0  0.13469398487E+03  0.38082340134E+01 -0.91656577951E+02  0.20544336610E+03  0.12509626768E+03 0.  0.
          5    1    3    3  502    0  0.29198346548E+01 -0.42514712466E+02 -0.11466884833E+02  0.44328185822E+02  0.41800000000E+01 0. -1.
         -5    1    3    3    0  502  0.13177415021E+03  0.46322946480E+02 -0.80189693118E+02  0.16111518028E+03  0.41800000000E+01 0. -1.
        -11    1    1    2    0    0 -0.51096125681E+02  0.34959216038E+02 -0.93017024651E+02  0.11173686822E+03  0.00000000000E+00 0.  1.
         11    1    1    2    0    0 -0.83597859188E+02 -0.38767450051E+02 -0.63520043651E+02  0.11192101317E+03  0.00000000000E+00 0. -1.
</event>
<event>
 7    1  0.2810263E-009  0.1401853E+03  0.7561462E-02  0.1213080E+00
         -1   -1    0    0    0  501 -0.00000000000E+00  0.00000000000E+00  0.76952162518E+03  0.76952162518E+03  0.00000000000E+00 0.  1.
          1   -1    0    0  501    0  0.00000000000E+00 -0.00000000000E+00 -0.29982228684E+02  0.29982228684E+02  0.00000000000E+00 0. -1.
         25    2    1    2    0    0  0.78940971479E+02 -0.63389245710E+02  0.31713796037E+03  0.35563064428E+03  0.12508715280E+03 0.  0.
          5    1    3    3  502    0 -0.27370369502E+02 -0.55303719228E+01  0.19548471390E+02  0.34341480370E+02  0.41800000000E+01 0.  1.
         -5    1    3    3    0  502  0.10631134098E+03 -0.57858873787E+02  0.29758948898E+03  0.32128916391E+03  0.41800000000E+01 0.  1.
        -11    1    1    2    0    0 -0.57028452782E+02  0.83612482039E+02  0.26493987508E+03  0.28361316787E+03  0.00000000000E+00 0. -1.
         11    1    1    2    0    0 -0.21912518698E+02 -0.20223236329E+02  0.15746156105E+03  0.16026004172E+03  0.00000000000E+00 0.  1.
</event>
<event>
 7    1  0.2810263E-009  0.2158309E+03  0.7561462E-02  0.1137030E+00
         -4   -1    0    0    0  501 -0.00000000000E+00  0.00000000000E+00  0.46867967222E+02  0.46867967222E+02  0.00000000000E+00 0.  1.
          4   -1    0    0  501    0  0.00000000000E+00 -0.00000000000E+00 -0.13058258497E+04  0.13058258497E+04  0.00000000000E+00 0. -1.
         25    2    1    2    0    0  0.91302069418E+02 -0.16137393648E+03 -0.95618600811E+03  0.98199644950E+03  0.12509088485E+03 0.  0.
          5    1    3    3  502    0 -0.47728622147E+00 -0.11688922251E+03 -0.60832991356E+03  0.61947241607E+03  0.41800000000E+01 0. -1.
         -5    1    3    3    0  502  0.91779355639E+02 -0.44484713968E+02 -0.34785609456E+03  0.36252403344E+03  0.41800000000E+01 0. -1.
        -11    1    1    2    0    0 -0.10762491715E+03  0.92735432123E+02 -0.18274921864E+03  0.23147410238E+03  0.00000000000E+00 0.  1.
         11    1    1    2    0    0  0.16322847729E+02  0.68638504358E+02 -0.12002265572E+03  0.13922326503E+03  0.00000000000E+00 0. -1.
</event>
<event>
 7    1  0.2810263E-009  0.9273515E+02  0.7561462E-02  0.1296360E+00
         -1   -1    0    0    0  501 -0.00000000000E+00  0.00000000000E+00  0.19322783538E+02  0.19322783538E+02  0.00000000000E+00 0.  1.
          1   -1    0    0  501    0  0.00000000000E+00 -0.00000000000E+00 -0.51396609251E+03  0.51396609251E+03  0.00000000000E+00 0. -1.
         25    2    1    2    0    0  0.21555108492E+02 -0.71026429757E+00 -0.34098815969E+03  0.36384741168E+03  0.12508751640E+03 0.  0.
          5    1    3    3  502    0 -0.19749185457E+02 -0.49854230804E+02 -0.22369306417E+03  0.23006854199E+03  0.41800000000E+01 0.  1.
         -5    1    3    3    0  502  0.41304293949E+02  0.49143966507E+02 -0.11729509552E+03  0.13377886969E+03  0.41800000000E+01 0.  1.
        -11    1    1    2    0    0 -0.26781067951E+02 -0.27662125896E+02 -0.58700525320E+02  0.70200929356E+02  0.00000000000E+00 0.  1.
         11    1    1    2    0    0  0.52259594584E+01  0.28372390193E+02 -0.94954623967E+02  0.99240535016E+02  0.00000000000E+00 0. -1.
</event>
<event>
 7    1  0.2810263E-009  0.1054448E+03  0.7561462E-02  0.1269246E+00
         -1   -1    0    0    0  501 -0.00000000000E+00  0.00000000000E+00  0.16655507324E+03  0.16655507324E+03  0.00000000000E+00 0.  1.
          1   -1    0    0  501    0  0.00000000000E+00 -0.00000000000E+00 -0.11725807360E+03  0.11725807360E+03  0.00000000000E+00 0. -1.
         25    2    1    2    0    0  0.64477096948E+02 -0.43995385758E+02  0.66119248687E+02  0.16159221512E+03  0.12508956368E+03 0.  0.
          5    1    3    3  502    0  0.71504582335E+02 -0.31047430854E+02 -0.14611613585E+02  0.79421784852E+02  0.41800000000E+01 0. -1.
         -5    1    3    3    0  502 -0.70274853873E+01 -0.12947954904E+02  0.80730862271E+02  0.82170430266E+02  0.41800000000E+01 0. -1.
        -11    1    1    2    0    0  0.11916494420E+02  0.39193964570E+02 -0.20049320478E+02  0.45608606091E+02  0.00000000000E+00 0.  1.
         11    1    1    2    0    0 -0.76393591368E+02  0.48014211887E+01  0.32270714279E+01  0.76612325624E+02  0.00000000000E+00 0. -1.
</event>
<event>
 7    1  0.2810263E-009  0.1387426E+03  0.7561462E-02  0.1215031E+00
         -1   -1    0    0    0  501 -0.00000000000E+00  0.00000000000E+00  0.47084431818E+02  0.47084431818E+02  0.00000000000E+00 0.  1.
          1   -1    0    0  501    0  0.00000000000E+00 -0.00000000000E+00 -0.52898832669E+03  0.52898832669E+03  0.00000000000E+00 0. -1.
         25    2    1    2    0    0 -0.99864545451E+02 -0.53722613952E+02 -0.25462898866E+03  0.30551940458E+03  0.12508852076E+03 0.  0.
          5    1    3    3  502    0 -0.80894713422E+02 -0.81040929830E+01 -0.24058805088E+03  0.25398762491E+03  0.41800000000E+01 0. -1.
         -5    1    3    3    0  502 -0.18969832029E+02 -0.45618520969E+02 -0.14040937779E+02  0.51531779673E+02  0.41800000000E+01 0. -1.
        -11    1    1    2    0    0  0.10179594067E+02  0.55865759532E+02 -0.79960664388E+02  0.98073008891E+02  0.00000000000E+00 0. -1.
         11    1    1    2    0    0  0.89684951384E+02 -0.21431455802E+01 -0.14731424183E+03  0.17248034503E+03  0.00000000000E+00 0.  1.
</event>
<event>
 7    1  0.2810263E-009  0.1375159E+03  0.7561462E-02  0.1216711E+00
          3   -1    0    0  501    0  0.00000000000E+00  0.00000000000E+00  0.92305606310E+03  0.92305606310E+03  0.00000000000E+00 0. -1.
         -3   -1    0    0    0  501 -0.00000000000E+00 -0.00000000000E+00 -0.23383595894E+02  0.23383595894E+02  0.00000000000E+00 0.  1.
         25    2    1    2    0    0 -0.33227380464E+02 -0.91993576546E+02  0.49706217916E+03  0.52180890353E+03  0.12508734912E+03 0.  0.
          5    1    3    3  502    0  0.40071880584E+02 -0.90519930788E+01  0.76837389108E+02  0.87230447420E+02  0.41800000000E+01 0. -1.
         -5    1    3    3    0  502 -0.73299261048E+02 -0.82941583467E+02  0.42022479006E+03  0.43457845611E+03  0.41800000000E+01 0. -1.
        -11    1    1    2    0    0  0.56478622397E+02  0.52337558012E+02  0.32863826783E+03  0.33753839167E+03  0.00000000000E+00 0. -1.
         11    1    1    2    0    0 -0.23251241933E+02  0.39656018533E+02  0.73972020211E+02  0.87092363795E+02  0.00000000000E+00 0.  1.
</event>
<event>
 7    1  0.2810263E-009  0.1279173E+03  0.7561462E-02  0.1230579E+00
          1   -1    0    0  501    0  0.00000000000E+00  0.00000000000E+00  0.12324300913E+04  0.12324300913E+04  0.00000000000E+00 0. -1.
         -1   -1    0    0    0  501 -0.00000000000E+00 -0.00000000000E+00 -0.23544165849E+02  0.23544165849E+02  0.00000000000E+00 0.  1.
         25    2    1    2    0    0 -0.66331191799E+02 -0.28687004865E+02  0.10437371238E+04  0.10536896676E+04  0.12510779639E+03 0.  0.
          5    1    3    3  502    0 -0.83531503503E+02 -0.61038344300E+02  0.64581943261E+03  0.65406681883E+03  0.41800000000E+01 0. -1.
         -5    1    3    3    0  502  0.17200311704E+02  0.32351339435E+02  0.39791769122E+03  0.39962284878E+03  0.41800000000E+01 0. -1.
        -11    1    1    2    0    0 -0.22647816796E+02  0.83913805591E+01  0.48453854632E+02  0.54139771906E+02  0.00000000000E+00 0.  1.
         11    1    1    2    0    0  0.88979008595E+02  0.20295624306E+02  0.11669494696E+03  0.14814481761E+03  0.00000000000E+00 0. -1.
</event>
<event>
 7    1  0.2810263E-009  0.2353756E+03  0.7561462E-02  0.1122912E+00
         -2   -1    0    0    0  501 -0.00000000000E+00  0.00000000000E+00  0.11095343605E+03  0.11095343605E+03  0.00000000000E+00 0.  1.
          2   -1    0    0  501    0  0.00000000000E+00 -0.00000000000E+00 -0.56895761173E+03  0.56895761173E+03  0.00000000000E+00 0. -1.
         25    2    1    2    0    0  0.98883567426E+02 -0.20387812181E+03 -0.23836932337E+03  0.35186771217E+03  0.12508678621E+03 0.  0.
          5    1    3    3  502    0  0.78386831751E+02 -0.67764507306E+02 -0.41686812882E+02  0.11176666145E+03  0.41800000000E+01 0.  1.
         -5    1    3    3    0  502  0.20496735675E+02 -0.13611361450E+03 -0.19668251048E+03  0.24010105072E+03  0.41800000000E+01 0.  1.
        -11    1    1    2    0    0 -0.44637406814E+02  0.13162400631E+03 -0.18474814015E+03  0.23119094362E+03  0.00000000000E+00 0. -1.
         11    1    1    2    0    0 -0.54246160612E+02  0.72254115496E+02 -0.34886712169E+02  0.96852391984E+02  0.00000000000E+00 0.  1.
</event>
<event>
 7    1  0.2810263E-009  0.9635632E+02  0.7561462E-02  0.1288150E+00
          1   -1    0    0  501    0  0.00000000000E+00  0.00000000000E+00  0.16237158023E+03  0.16237158023E+03  0.00000000000E+00 0. -1.
         -1   -1    0    0    0  501 -0.00000000000E+00 -0.00000000000E+00 -0.88875141253E+02  0.88875141253E+02  0.00000000000E+00 0.  1.
         25    2    1    2    0    0  0.24402185733E+02  0.41799921813E+02  0.18786308946E+02  0.13543579345E+03  0.12508888284E+03 0.  0.
          5    1    3    3  502    0  0.44319663873E+01  0.76538583641E+02  0.43426627794E+02  0.88210778896E+02  0.41800000000E+01 0. -1.
         -5    1    3    3    0  502  0.19970219346E+02 -0.34738661828E+02 -0.24640318848E+02  0.47225014550E+02  0.41800000000E+01 0. -1.
        -11    1    1    2    0    0  0.84415749408E+01  0.10754335401E+02  0.52012322694E+02  0.53779156087E+02  0.00000000000E+00 0. -1.
         11    1    1    2    0    0 -0.32843760674E+02 -0.52554257214E+02  0.26978073335E+01  0.62031771947E+02  0.00000000000E+00 0.  1.
</event>
<event>
 7    1  0.2810263E-009  0.1048362E+03  0.7561462E-02  0.1270443E+00
          1   -1    0    0  501    0  0.00000000000E+00  0.00000000000E+00  0.66423026144E+03  0.66423026144E+03  0.00000000000E+00 0. -1.
         -1   -1    0    0    0  501 -0.00000000000E+00 -0.00000000000E+00 -0.31474022439E+02  0.31474022439E+02  0.00000000000E+00 0.  1.
         25    2    1    2    0    0 -0.90790428142E+02  0.21279132713E+02  0.34092663746E+03  0.37493308497E+03  0.12509253672E+03 0.  0.
          5    1    3    3  502    0 -0.56826767901E+01 -0.18623528538E+02 -0.13488811277E+01  0.19960473717E+02  0.41800000000E+01 0.  1.
         -5    1    3    3    0  502 -0.85107751352E+02  0.39902661251E+02  0.34227551858E+03  0.35497261125E+03  0.41800000000E+01 0.  1.
        -11    1    1    2    0    0  0.62608799959E+02 -0.42789746869E+01  0.27812970533E+03  0.28512156082E+03  0.00000000000E+00 0. -1.
         11    1    1    2    0    0  0.28181628183E+02 -0.17000158026E+02  0.13699896215E+02  0.35649638094E+02  0.00000000000E+00 0.  1.
</event>
<event>
 7    1  0.2810263E-009  0.8621324E+02  0.7561462E-02  0.1312290E+00
         -1   -1    0    0    0  501 -0.00000000000E+00  0.00000000000E+00  0.15007999792E+03  0.15007999792E+03  0.00000000000E+00 0.  1.
          1   -1    0    0  501    0  0.00000000000E+00 -0.00000000000E+00 -0.10630261059E+03  0.10630261059E+03  0.00000000000E+00 0. -1.
         25    2    1    2    0    0 -0.15769413263E+02  0.34983762535E+02  0.79579079755E+02  0.15314191898E+03  0.12508828634E+03 0.  0.
          5    1    3    3  502    0  0.44868790322E+00 -0.36887569136E+02 -0.86478969168E+01  0.38120238702E+02  0.41800000000E+01 0. -1.
         -5    1    3    3    0  502 -0.16218101167E+02  0.71871331671E+02  0.88226976672E+02  0.11502168028E+03  0.41800000000E+01 0. -1.
        -11    1    1    2    0    0  0.32965298477E+02 -0.26670878025E+02  0.18062710716E+02  0.46090217582E+02  0.00000000000E+00 0.  1.
         11    1    1    2    0    0 -0.17195885213E+02 -0.83128845101E+01 -0.53864403148E+02  0.57150471946E+02  0.00000000000E+00 0. -1.
</event>
<event>
 7    1  0.2810263E-009  0.1690626E+03  0.7561462E-02  0.1178829E+00
          1   -1    0    0  501    0  0.00000000000E+00  0.00000000000E+00  0.37441602431E+03  0.37441602431E+03  0.00000000000E+00 0. -1.
         -1   -1    0    0    0  501 -0.00000000000E+00 -0.00000000000E+00 -0.12553970007E+03  0.12553970007E+03  0.00000000000E+00 0.  1.
         25    2    1    2    0    0  0.13491007950E+03 -0.10074501988E+02  0.27905555263E+03  0.33439762523E+03  0.12509014815E+03 0.  0.
          5    1    3    3  502    0  0.31799072150E+02 -0.59005442356E+02  0.75951143357E+02  0.10138477102E+03  0.41800000000E+01 0. -1.
         -5    1    3    3    0  502  0.10311100735E+03  0.48930940368E+02  0.20310440927E+03  0.23301285421E+03  0.41800000000E+01 0. -1.
        -11    1    1    2    0    0 -0.15048653406E+02  0.31580301599E+02 -0.26220484672E+02  0.43718316926E+02  0.00000000000E+00 0.  1.
         11    1    1    2    0    0 -0.11986142609E+03 -0.21505799611E+02 -0.39587437213E+01  0.12183978223E+03  0.00000000000E+00 0. -1.
</event>
<event>
 7    1  0.2810263E-009  0.1005214E+03  0.7561462E-02  0.1279203E+00
         -1   -1    0    0    0  501 -0.00000000000E+00  0.00000000000E+00  0.25926968486E+02  0.25926968486E+02  0.00000000000E+00 0.  1.
          1   -1    0    0  501    0  0.00000000000E+00 -0.00000000000E+00 -0.64438224831E+03  0.64438224831E+03  0.00000000000E+00 0. -1.
         25    2    1    2    0    0 -0.27120797721E+02  0.61505919784E+02 -0.38719756888E+03  0.41241779986E+03  0.12509184009E+03 0.  0.
          5    1    3    3  502    0  0.29566420878E+02  0.39979775223E+01 -0.19390439903E+02  0.35827623804E+02  0.41800000000E+01 0.  1.
         -5    1    3    3    0  502 -0.56687218599E+02  0.57507942262E+02 -0.36780712898E+03  0.37659017606E+03  0.41800000000E+01 0.  1.
        -11    1    1    2    0    0 -0.17182863694E+01 -0.61192545295E+02 -0.21747475232E+03  0.22592642166E+03  0.00000000000E+00 0.  1.
         11    1    1    2    0    0  0.28839084091E+02 -0.31337448965E+00 -0.13782958630E+02  0.31964995282E+02  0.00000000000E+00 0. -1.
</event>
<event>
 7    1  0.2810263E-009  0.9279101E+02  0.7561462E-02  0.1296230E+00
         -2   -1    0    0    0  501 -0.00000000000E+00  0.00000000000E+00  0.11034981815E+02  0.11034981815E+02  0.00000000000E+00 0.  1.
          2   -1    0    0  501    0  0.00000000000E+00 -0.00000000000E+00 -0.12629101262E+04  0.12629101262E+04  0.00000000000E+00 0. -1.
         25    2    1    2    0    0  0.27411817796E+02 -0.26668313479E+02 -0.85183009771E+03  0.86181448205E+03  0.12508828642E+03 0.  0.
          5    1    3    3  502    0 -0.28562901697E+02 -0.19541018497E+02 -0.68031568423E+03  0.68120818651E+03  0.41800000000E+01 0. -1.
         -5    1    3    3    0  502  0.55974719493E+02 -0.71272949822E+01 -0.17151441348E+03  0.18060629554E+03  0.41800000000E+01 0. -1.
        -11    1    1    2    0    0 -0.37994681003E+02  0.53316190875E+02 -0.33022906781E+03  0.33665627756E+03  0.00000000000E+00 0. -1.
         11    1    1    2    0    0  0.10582863208E+02 -0.26647877396E+02 -0.69815978910E+02  0.75474348453E+02  0.00000000000E+00 0.  1.
</event>
<event>
 7    1  0.2810263E-009  0.1176340E+03  0.7561462E-02  0.1247052E+00
          2   -1    0    0  501    0  0.00000000000E+00  0.00000000000E+00  0.76730581403E+03  0.76730581403E+03  0.00000000000E+00 0. -1.
         -2   -1    0    0    0  501 -0.00000000000E+00 -0.00000000000E+00 -0.19369837156E+02  0.19369837156E+02  0.00000000000E+00 0.  1.
         25    2    1    2    0    0 -0.54408514348E+02 -0.94509045255E+01  0.37877858930E+03  0.40270486652E+03  0.12509350011E+03 0.  0.
          5    1    3    3  502    0  0.38058627025E+02  0.13825745253E+01  0.65747745108E+02  0.76096051081E+02  0.41800000000E+01 0.  1.
         -5    1    3    3    0  502 -0.92467141373E+02 -0.10833479051E+02  0.31303084420E+03  0.32660881544E+03  0.41800000000E+01 0.  1.
        -11    1    1    2    0    0  0.41707420822E+02 -0.36909174845E+02  0.23346130616E+03  0.24001245303E+03  0.00000000000E+00 0.  1.
         11    1    1    2    0    0  0.12701093526E+02  0.46360079371E+02  0.13569608142E+03  0.14395833164E+03  0.00000000000E+00 0. -1.
</event>
<event>
 7    1  0.2810263E-009  0.2623613E+03  0.7561462E-02  0.1105733E+00
          2   -1    0    0  501    0  0.00000000000E+00  0.00000000000E+00  0.34283784465E+03  0.34283784465E+03  0.00000000000E+00 0.  1.
         -2   -1    0    0    0  501 -0.00000000000E+00 -0.00000000000E+00 -0.23052886816E+03  0.23052886816E+03  0.00000000000E+00 0. -1.
         25    2    1    2    0    0 -0.36648763161E+02 -0.24928998456E+03  0.10346388339E+03  0.29973390546E+03  0.12508801170E+03 0.  0.
          5    1    3    3  502    0 -0.69964972524E+02 -0.13797272761E+03  0.98325598258E+02  0.18334930220E+03  0.41800000000E+01 0. -1.
         -5    1    3    3    0  502  0.33316209363E+02 -0.11131725695E+03  0.51382851350E+01  0.11638460325E+03  0.41800000000E+01 0. -1.
        -11    1    1    2    0    0 -0.30963822683E+01  0.69371171118E+02  0.49080601336E+02  0.85034418872E+02  0.00000000000E+00 0.  1.
         11    1    1    2    0    0  0.39745145430E+02  0.17991881344E+03 -0.40235508243E+02  0.18859838848E+03  0.00000000000E+00 0. -1.
</event>
<event>
 7    1  0.2810263E-009  0.1560582E+03  0.7561462E-02  0.1193220E+00
         -1   -1    0    0    0  501 -0.00000000000E+00  0.00000000000E+00  0.90625701752E+02  0.90625701752E+02  0.00000000000E+00 0.  1.
          1   -1    0    0  501    0  0.00000000000E+00 -0.00000000000E+00 -0.47674792303E+03  0.47674792303E+03  0.00000000000E+00 0. -1.
         25    2    1    2    0    0 -0.11002317782E+02  0.13162608329E+03 -0.35987802614E+03  0.40324526194E+03  0.12509224907E+03 0.  0.
          5    1    3    3  502    0  0.50459718709E+02  0.28965574090E+02 -0.15939799720E+03  0.16973621183E+03  0.41800000000E+01 0. -1.
         -5    1    3    3    0  502 -0.61462036492E+02  0.10266050920E+03 -0.20048002894E+03  0.23350905011E+03  0.41800000000E+01 0. -1.
        -11    1    1    2    0    0 -0.70358783292E+01 -0.27769223008E+02 -0.48560372513E+02  0.56380343285E+02  0.00000000000E+00 0. -1.
         11    1    1    2    0    0  0.18038196112E+02 -0.10385686028E+03  0.22316177372E+02  0.10774801956E+03  0.00000000000E+00 0.  1.
</event>
<event>
 7    1  0.2810263E-009  0.9822220E+02  0.7561462E-02  0.1284079E+00
          2   -1    0    0  501    0  0.00000000000E+00  0.00000000000E+00  0.50404609026E+02  0.50404609026E+02  0.00000000000E+00 0.  1.
         -2   -1    0    0    0  501 -0.00000000000E+00 -0.00000000000E+00 -0.33720476625E+03  0.33720476625E+03  0.00000000000E+00 0. -1.
         25    2    1    2    0    0  0.21043671652E+02  0.58007498283E+02 -0.10479860637E+03  0.17446489528E+03  0.12509015075E+03 0.  0.
          5    1    3    3  502    0 -0.20109394220E+01  0.84306205886E+02 -0.11020348446E+03  0.13883033031E+03  0.41800000000E+01 0.  1.
         -5    1    3    3    0  502  0.23054611074E+02 -0.26298707603E+02  0.54048780823E+01  0.35634564968E+02  0.41800000000E+01 0.  1.
        -11    1    1    2    0    0  0.13051041139E+02 -0.29818802336E+02 -0.78787139104E+01  0.33489771281E+02  0.00000000000E+00 0.  1.
         11    1    1    2    0    0 -0.34094712792E+02 -0.28188695947E+02 -0.17412283694E+03  0.17965470872E+03  0.00000000000E+00 0. -1.
</event>
<event>
 7    1  0.2810263E-009  0.8674100E+02  0.7561462E-02  0.1310941E+00
         -1   -1    0    0    0  501 -0.00000000000E+00  0.00000000000E+00  0.51485226127E+02  0.51485226127E+02  0.00000000000E+00 0.  1.
          1   -1    0    0  501    0  0.00000000000E+00 -0.00000000000E+00 -0.25984277184E+03  0.25984277184E+03  0.00000000000E+00 0. -1.
         25    2    1    2    0    0  0.11759103106E+02  0.82705101811E+01 -0.65236854472E+02  0.14180949979E+03  0.12508960471E+03 0.  0.
          5    1    3    3  502    0 -0.19304253450E+02 -0.28284518755E+02  0.22878611670E+02  0.41395307396E+02  0.41800000000E+01 0.  1.
         -5    1    3    3    0  502  0.31063356556E+02  0.36555028936E+02 -0.88115466142E+02  0.10041419240E+03  0.41800000000E+01 0.  1.
        -11    1    1    2    0    0  0.10607232237E+02 -0.45870824797E+02 -0.72645618877E+02  0.86568076594E+02  0.00000000000E+00 0. -1.
         11    1    1    2    0    0 -0.22366335343E+02  0.37600314616E+02 -0.70475072367E+02  0.82950421585E+02  0.00000000000E+00 0.  1.
</event>
<event>
 7    1  0.2810263E-009  0.8824252E+02  0.7561462E-02  0.1307164E+00
         -1   -1    0    0    0  501 -0.00000000000E+00  0.00000000000E+00  0.94298511870E+02  0.94298511870E+02  0.00000000000E+00 0.  1.
          1   -1    0    0  501    0  0.00000000000E+00 -0.00000000000E+00 -0.18359451336E+03  0.18359451336E+03  0.00000000000E+00 0. -1.
         25    2    1    2    0    0  0.13283344424E+01 -0.69265684131E+02 -0.74954435627E+02  0.16145119973E+03  0.12509525571E+03 0.  0.
          5    1    3    3  502    0  0.12048961153E+02  0.87816390997E+01  0.27849991249E+02  0.31865170056E+02  0.41800000000E+01 0.  1.
         -5    1    3    3    0  502 -0.10720626710E+02 -0.78047323230E+02 -0.10280442688E+03  0.12958602967E+03  0.41800000000E+01 0.  1.
        -11    1    1    2    0    0 -0.13536299995E+02  0.68557588881E+02 -0.45216083890E+02  0.83233819167E+02  0.00000000000E+00 0. -1.
         11    1    1    2    0    0  0.12207965553E+02  0.70809524948E+00  0.30874518024E+02  0.33208006339E+02  0.00000000000E+00 0.  1.
</event>
<event>
 7    1  0.2810263E-009  0.6878972E+02  0.7561462E-02  0.1364258E+00
          1   -1    0    0  501    0  0.00000000000E+00  0.00000000000E+00  0.41095166267E+03  0.41095166267E+03  0.00000000000E+00 0. -1.
         -1   -1    0    0    0  501 -0.00000000000E+00 -0.00000000000E+00 -0.28800765244E+02  0.28800765244E+02  0.00000000000E+00 0.  1.
         25    2    1    2    0    0  0.94183701245E+00 -0.76477226404E+01  0.18909346850E+03  0.22685476091E+03  0.12508944000E+03 0.  0.
          5    1    3    3  502    0 -0.30341917814E+02  0.12405646887E+01 -0.40748679485E+01  0.30923258660E+02  0.41800000000E+01 0. -1.
         -5    1    3    3    0  502  0.31283754827E+02 -0.88882873291E+01  0.19316833645E+03  0.19593150225E+03  0.41800000000E+01 0. -1.
        -11    1    1    2    0    0 -0.27816108791E+02 -0.21002503254E+02  0.15251246174E+03  0.15644453342E+03  0.00000000000E+00 0. -1.
         11    1    1    2    0    0  0.26874271779E+02  0.28650225895E+02  0.40544967194E+02  0.56453133590E+02  0.00000000000E+00 0.  1.
</event>
<event>
 7    1  0.2810263E-009  0.2131441E+03  0.7561462E-02  0.1139100E+00
         -2   -1    0    0    0  501 -0.00000000000E+00  0.00000000000E+00  0.28682319209E+03  0.28682319209E+03  0.00000000000E+00 0.  1.
          2   -1    0    0  501    0  0.00000000000E+00 -0.00000000000E+00 -0.20995215422E+03  0.20995215422E+03  0.00000000000E+00 0. -1.
         25    2    1    2    0    0 -0.17710161548E+03 -0.91610701787E+02  0.13214508765E+03  0.26993907070E+03  0.12508906751E+03 0.  0.
          5    1    3    3  502    0  0.77257828896E+01 -0.10870994477E+02  0.50345679943E+02  0.52249651971E+02  0.41800000000E+01 0.  1.
         -5    1    3    3    0  502 -0.18482739837E+03 -0.80739707310E+02  0.81799407712E+02  0.21768941873E+03  0.41800000000E+01 0.  1.
        -11    1    1    2    0    0  0.81845032580E+02  0.80284165229E+02 -0.62607615279E+02  0.13062874889E+03  0.00000000000E+00 0.  1.
         11    1    1    2    0    0  0.95256582899E+02  0.11326536558E+02  0.73335654882E+01  0.96207526727E+02  0.00000000000E+00 0. -1.
</event>
<event>
 7    1  0.2810263E-009  0.9498923E+02  0.7561462E-02  0.1291200E+00
          2   -1    0    0  501    0  0.00000000000E+00  0.00000000000E+00  0.21122480584E+03  0.21122480584E+03  0.00000000000E+00 0. -1.
         -2   -1    0    0    0  501 -0.00000000000E+00 -0.00000000000E+00 -0.59406280696E+02  0.59406280696E+02  0.00000000000E+00 0.  1.
         25    2    1    2    0    0 -0.88388748866E+00 -0.10219636630E+02  0.11790233390E+03  0.17220240623E+03  0.12508991224E+03 0.  0.
          5    1    3    3  502    0 -0.11066143578E+02 -0.56384420752E+02  0.10988392254E+03  0.12407099286E+03  0.41800000000E+01 0.  1.
         -5    1    3    3    0  502  0.10182256090E+02  0.46164784123E+02  0.80184113592E+01  0.48131413369E+02  0.41800000000E+01 0.  1.
        -11    1    1    2    0    0  0.20531424511E+02 -0.32182968749E+02  0.34844936664E+02  0.51686095626E+02  0.00000000000E+00 0. -1.
         11    1    1    2    0    0 -0.19647537022E+02  0.42402605379E+02 -0.92874542436E+00  0.46742584674E+02  0.00000000000E+00 0.  1.
</event>
<event>
 7    1  0.2810263E-009  0.7273554E+02  0.7561462E-02  0.1351030E+00
         -1   -1    0    0    0  501 -0.00000000000E+00  0.00000000000E+00  0.23621497435E+03  0.23621497435E+03  0.00000000000E+00 0.  1.
          1   -1    0    0  501    0  0.00000000000E+00 -0.00000000000E+00 -0.60660314053E+02  0.60660314053E+02  0.00000000000E+00 0. -1.
         25    2    1    2    0    0 -0.26249507320E+02  0.20613148824E+02  0.48191192178E+02  0.13814093988E+03  0.12508632910E+03 0.  0.
          5    1    3    3  502    0 -0.35523938660E+02  0.27857254065E+02 -0.32948937654E+02  0.56045354084E+02  0.41800000000E+01 0.  1.
         -5    1    3    3    0  502  0.92744313398E+01 -0.72441052402E+01  0.81140129832E+02  0.82095585792E+02  0.41800000000E+01 0.  1.
        -11    1    1    2    0    0  0.44777742609E+02 -0.40563140041E+02  0.56103307493E+02  0.82449958610E+02  0.00000000000E+00 0. -1.
         11    1    1    2    0    0 -0.18528235289E+02  0.19949991217E+02  0.71260160623E+02  0.76284389913E+02  0.00000000000E+00 0.  1.
</event>
<event>
 7    1  0.2810263E-009  0.1138660E+03  0.7561462E-02  0.1253574E+00
         -1   -1    0    0    0  501 -0.00000000000E+00  0.00000000000E+00  0.13615517154E+04  0.13615517154E+04  0.00000000000E+00 0.  1.
          1   -1    0    0  501    0  0.00000000000E+00 -0.00000000000E+00 -0.13440540025E+02  0.13440540025E+02  0.00000000000E+00 0. -1.
         25    2    1    2    0    0  0.44454060936E+02  0.45242921349E+01  0.11042591980E+04  0.11122192284E+04  0.12508638153E+03 0.  0.
          5    1    3    3  502    0 -0.43915063325E+02  0.18556799825E+01  0.34170136911E+03  0.34454212280E+03  0.41800000000E+01 0.  1.
         -5    1    3    3    0  502  0.88369124261E+02  0.26686121524E+01  0.76255782887E+03  0.76767710555E+03  0.41800000000E+01 0.  1.
        -11    1    1    2    0    0  0.92699699098E+01  0.29873563412E+02  0.52995814617E+02  0.61537943579E+02  0.00000000000E+00 0. -1.
         11    1    1    2    0    0 -0.53724030846E+02 -0.34397855546E+02  0.19085616273E+03  0.20123508344E+03  0.00000000000E+00 0.  1.
</event>
<event>
 7    1  0.2810263E-009  0.9997817E+02  0.7561462E-02  0.1280342E+00
         -1   -1    0    0    0  501 -0.00000000000E+00  0.00000000000E+00  0.73603130139E+03  0.73603130139E+03  0.00000000000E+00 0.  1.
          1   -1    0    0  501    0  0.00000000000E+00 -0.00000000000E+00 -0.30541639087E+02  0.30541639087E+02  0.00000000000E+00 0. -1.
         25    2    1    2    0    0 -0.22757212311E+02 -0.93185037980E+02  0.47624104691E+03  0.50165094515E+03  0.12508714558E+03 0.  0.
          5    1    3    3  502    0  0.64636932708E+01 -0.18017477407E+01  0.30669516041E+03  0.30679703298E+03  0.41800000000E+01 0.  1.
         -5    1    3    3    0  502 -0.29220905582E+02 -0.91383290240E+02  0.16954588650E+03  0.19485391217E+03  0.41800000000E+01 0.  1.
        -11    1    1    2    0    0  0.66882623872E+01  0.36118255836E+02  0.10386900701E+02  0.38172620615E+02  0.00000000000E+00 0. -1.
         11    1    1    2    0    0  0.16068949924E+02  0.57066782144E+02  0.21886171469E+03  0.22674937471E+03  0.00000000000E+00 0.  1.
</event>
<event>
 7    1  0.2810263E-009  0.1029060E+03  0.7561462E-02  0.1274301E+00
          2   -1    0    0  501    0  0.00000000000E+00  0.00000000000E+00  0.14260009508E+03  0.14260009508E+03  0.00000000000E+00 0. -1.
         -2   -1    0    0    0  501 -0.00000000000E+00 -0.00000000000E+00 -0.93970373371E+02  0.93970373371E+02  0.00000000000E+00 0.  1.
         25    2    1    2    0    0 -0.24679242098E+02 -0.20734981545E+02  0.28930701706E+01  0.12921380567E+03  0.12509529675E+03 0.  0.
          5    1    3    3  502    0  0.25182664626E+02 -0.58414296207E+02  0.14826717076E+02  0.65449985014E+02  0.41800000000E+01 0.  1.
         -5    1    3    3    0  502 -0.49861906724E+02  0.37679314663E+02 -0.11933646906E+02  0.63763820652E+02  0.41800000000E+01 0.  1.
        -11    1    1    2    0    0  0.36496519133E+02 -0.16725340557E+02 -0.78586580691E+01  0.40908329620E+02  0.00000000000E+00 0.  1.
         11    1    1    2    0    0 -0.11817277036E+02  0.37460322102E+02  0.53595309603E+02  0.66448333162E+02  0.00000000000E+00 0. -1.
</event>
<event>
 7    1  0.2810263E-009  0.8312102E+02  0.7561462E-02  0.1320421E+00
          2   -1    0    0  501    0  0.00000000000E+00  0.00000000000E+00  0.34914029786E+03  0.34914029786E+03  0.00000000000E+00 0.  1.
         -2   -1    0    0    0  501 -0.00000000000E+00 -0.00000000000E+00 -0.43941129047E+02  0.43941129047E+02  0.00000000000E+00 0. -1.
         25    2    1    2    0    0 -0.40886846440E+02  0.32357077726E+02  0.12200448365E+03  0.18234969334E+03  0.12509037510E+03 0.  0.
          5    1    3    3  502    0 -0.39237832507E+02  0.36153436625E+01 -0.14941073207E+02  0.42348391685E+02  0.41800000000E+01 0. -1.
         -5    1    3    3    0  502 -0.16490139328E+01  0.28741734063E+02  0.13694555685E+03  0.14000130166E+03  0.41800000000E+01 0. -1.
        -11    1    1    2    0    0  0.59745719819E+02 -0.45021284762E+02  0.10247389382E+03  0.12687539569E+03  0.00000000000E+00 0. -1.
         11    1    1    2    0    0 -0.18858873379E+02  0.12664207036E+02  0.80720791352E+02  0.83856337873E+02  0.00000000000E+00 0.  1.
</event>
<event>
 7    1  0.2810263E-009  0.8099122E+02  0.7561462E-02  0.1326262E+00
         -2   -1    0    0    0  501 -0.00000000000E+00  0.00000000000E+00  0.53795528073E+02  0.53795528073E+02  0.00000000000E+00 0.  1.
          2   -1    0    0  501    0  0.00000000000E+00 -0.00000000000E+00 -0.26685385009E+03  0.26685385009E+03  0.00000000000E+00 0. -1.
         25    2    1    2    0    0  0.48129495198E+02 -0.79280605577E+01 -0.13429172939E+03  0.18989732436E+03  0.12508965890E+03 0.  0.
          5    1    3    3  502    0  0.19554337585E+01  0.19705879601E+02 -0.13440834425E+03  0.13592358447E+03  0.41800000000E+01 0. -1.
         -5    1    3    3    0  502  0.46174061440E+02 -0.27633940159E+02  0.11661485871E+00  0.53973739889E+02  0.41800000000E+01 0. -1.
        -11    1    1    2    0    0  0.18969286417E+02  0.82117588467E+01  0.70297475577E+01  0.21833097839E+02  0.00000000000E+00 0.  1.
         11    1    1    2    0    0 -0.67098781615E+02 -0.28369828896E+00 -0.85796340180E+02  0.10891895596E+03  0.00000000000E+00 0. -1.
</event>
<event>
 7    1  0.2810263E-009  0.6857046E+02  0.7561462E-02  0.1365023E+00
          1   -1    0    0  501    0  0.00000000000E+00  0.00000000000E+00  0.60697421400E+02  0.60697421400E+02  0.00000000000E+00 0. -1.
         -1   -1    0    0    0  501 -0.00000000000E+00 -0.00000000000E+00 -0.28503313587E+03  0.28503313587E+03  0.00000000000E+00 0.  1.
         25    2    1    2    0    0 -0.23169600322E+02 -0.33431268720E+02 -0.20648418684E+03  0.24481736329E+03  0.12508134093E+03 0.  0.
          5    1    3    3  502    0 -0.67091012386E+01  0.10456891116E+02  0.14110031960E+02  0.19259387664E+02  0.41800000000E+01 0.  1.
         -5    1    3    3    0  502 -0.16460499083E+02 -0.43888159836E+02 -0.22059421880E+03  0.22555797563E+03  0.41800000000E+01 0.  1.
        -11    1    1    2    0    0 -0.53311201039E+01  0.45652385949E+02 -0.41491117455E+02  0.61919899968E+02  0.00000000000E+00 0.  1.
         11    1    1    2    0    0  0.28500720426E+02 -0.12221117229E+02  0.23639589818E+02  0.38993294012E+02  0.00000000000E+00 0. -1.
</event>
<event>
 7    1  0.2810263E-009  0.7471347E+02  0.7561462E-02  0.1344761E+00
         -1   -1    0    0    0  501 -0.00000000000E+00  0.00000000000E+00  0.47295779254E+02  0.47295779254E+02  0.00000000000E+00 0.  1.
          1   -1    0    0  501    0  0.00000000000E+00 -0.00000000000E+00 -0.30827996264E+03  0.30827996264E+03  0.00000000000E+00 0. -1.
         25    2    1    2    0    0 -0.24950209184E+02 -0.43211718541E+02 -0.11868403920E+03  0.17950987261E+03  0.12509247637E+03 0.  0.
          5    1    3    3  502    0 -0.83559541798E+01 -0.26387308377E+01 -0.13288748711E+03  0.13324166578E+03  0.41800000000E+01 0.  1.
         -5    1    3    3    0  502 -0.16594255004E+02 -0.40572987704E+02  0.14203447908E+02  0.46268206825E+02  0.41800000000E+01 0.  1.
        -11    1    1    2    0    0  0.39042724701E+01  0.65159464200E+02 -0.12516108864E+03  0.14116053708E+03  0.00000000000E+00 0. -1.
         11    1    1    2    0    0  0.21045936714E+02 -0.21947745658E+02 -0.17139055546E+02  0.34905332210E+02  0.00000000000E+00 0.  1.
</event>
<event>
 7    1  0.2810263E-009  0.9633450E+02  0.7561462E-02  0.1288198E+00
         -2   -1    0    0    0  501 -0.00000000000E+00  0.00000000000E+00  0.22196578911E+02  0.22196578911E+02  0.00000000000E+00 0.  1.
          2   -1    0    0  501    0  0.00000000000E+00 -0.00000000000E+00 -0.47529154928E+03  0.47529154928E+03  0.00000000000E+00 0. -1.
         25    2    1    2    0    0 -0.31690197172E+02  0.91364128979E+01 -0.24597668625E+03  0.27792202845E+03  0.12509348937E+03 0.  0.
          5    1    3    3  502    0  0.46749492244E+02  0.64355964398E+00 -0.12405286303E+03  0.13263677627E+03  0.41800000000E+01 0.  1.
         -5    1    3    3    0  502 -0.78439689416E+02  0.84928532540E+01 -0.12192382322E+03  0.14528525218E+03  0.41800000000E+01 0.  1.
        -11    1    1    2    0    0  0.45130315653E+02 -0.20072225091E+02 -0.10560882137E+03  0.11658843323E+03  0.00000000000E+00 0.  1.
         11    1    1    2    0    0 -0.13440118481E+02  0.10935812193E+02 -0.10150946275E+03  0.10297766651E+03  0.00000000000E+00 0. -1.
</event>
<event>
 7    1  0.2810263E-009  0.1190554E+03  0.7561462E-02  0.1244664E+00
         -1   -1    0    0    0  501 -0.00000000000E+00  0.00000000000E+00  0.22844739344E+03  0.22844739344E+03  0.00000000000E+00 0.  1.
          1   -1    0    0  501    0  0.00000000000E+00 -0.00000000000E+00 -0.85864648639E+02  0.85864648639E+02  0.00000000000E+00 0. -1.
         25    2    1    2    0    0  0.72119237968E+02 -0.44877211166E+02  0.43296042527E+02  0.15728182092E+03  0.12509146784E+03 0.  0.
          5    1    3    3  502    0  0.95889309315E+02 -0.66122980651E+02  0.21717962850E+02  0.11855863748E+03  0.41800000000E+01 0.  1.
         -5    1    3    3    0  502 -0.23770071347E+02  0.21245769485E+02  0.21578079677E+02  0.38723183435E+02  0.41800000000E+01 0.  1.
        -11    1    1    2    0    0 -0.34750098837E+01  0.13479590275E+02  0.77109290733E+02  0.78355713033E+02  0.00000000000E+00 0.  1.
         11    1    1    2    0    0 -0.68644228085E+02  0.31397620891E+02  0.22177411544E+02  0.78674508132E+02  0.00000000000E+00 0. -1.
</event>
<event>
 7    1  0.2810263E-009  0.1144792E+03  0.7561462E-02  0.1252493E+00
          2   -1    0    0  501    0  0.00000000000E+00  0.00000000000E+00  0.87518591824E+03  0.87518591824E+03  0.00000000000E+00 0. -1.
         -2   -1    0    0    0  501 -0.00000000000E+00 -0.00000000000E+00 -0.15440833350E+02  0.15440833350E+02  0.00000000000E+00 0.  1.
         25    2    1    2    0    0 -0.19032005708E+02 -0.38131759180E+02  0.51248228635E+03  0.52924677630E+03  0.12509119914E+03 0.  0.
          5    1    3    3  502    0 -0.69548757900E+02 -0.38067534278E+02  0.26552738516E+03  0.27714334119E+03  0.41800000000E+01 0. -1.
         -5    1    3    3    0  502  0.50516752192E+02 -0.64224901556E-01  0.24695490119E+03  0.25210343512E+03  0.41800000000E+01 0. -1.
        -11    1    1    2    0    0 -0.33562831633E+02 -0.58012670504E+00  0.93295114613E+02  0.99150283030E+02  0.00000000000E+00 0.  1.
         11    1    1    2    0    0  0.52594837341E+02  0.38711885885E+02  0.25396768392E+03  0.26222969225E+03  0.00000000000E+00 0. -1.
</event>
<event>
 7    1  0.2810263E-009  0.9486339E+02  0.7561462E-02  0.1291484E+00
         -1   -1    0    0    0  501 -0.00000000000E+00  0.00000000000E+00  0.41116469404E+03  0.41116469404E+03  0.00000000000E+00 0.  1.
          1   -1    0    0  501    0  0.00000000000E+00 -0.00000000000E+00 -0.28972754923E+02  0.28972754923E+02  0.00000000000E+00 0. -1.
         25    2    1    2    0    0  0.41312726764E+00  0.67595792592E+01  0.22266068313E+03  0.25548170657E+03  0.12508900830E+03 0.  0.
          5    1    3    3  502    0  0.26429643161E+02 -0.52219964788E+02  0.12884773530E+03  0.14157917238E+03  0.41800000000E+01 0. -1.
         -5    1    3    3    0  502 -0.26016515893E+02  0.58979544048E+02  0.93812947825E+02  0.11390253419E+03  0.41800000000E+01 0. -1.
        -11    1    1    2    0    0 -0.33259689100E+02 -0.31935528936E+01  0.15408525447E+02  0.36794406580E+02  0.00000000000E+00 0. -1.
         11    1    1    2    0    0  0.32846561832E+02 -0.35660263656E+01  0.14412273055E+03  0.14786133582E+03  0.00000000000E+00 0.  1.
</event>
<event>
 7    1  0.4773752E-009  0.1718958E+03  0.7561462E-02  0.1175885E+00
          1   -1    0    0  501    0  0.00000000000E+00  0.00000000000E+00  0.15335248554E+04  0.15335248554E+04  0.00000000000E+00 0. -1.
         -1   -1    0    0    0  501 -0.00000000000E+00 -0.00000000000E+00 -0.21083674493E+02  0.21083674493E+02  0.00000000000E+00 0.  1.
         25    2    1    2    0    0 -0.19020868186E+02  0.13846079292E+03  0.67296593713E+03  0.69861568650E+03  0.12509012866E+03 0.  0.
          5    1    3    3  502    0 -0.40446917191E+00  0.15325684662E+03  0.47370604853E+03  0.49789830031E+03  0.41800000000E+01 0. -1.
         -5    1    3    3    0  502 -0.18616399014E+02 -0.14796053702E+02  0.19925988859E+03  0.20071738619E+03  0.41800000000E+01 0. -1.
        -11    1    1    2    0    0 -0.30152603147E+02 -0.98369185435E+02  0.56379625788E+03  0.57310722951E+03  0.00000000000E+00 0.  1.
         11    1    1    2    0    0  0.49173471334E+02 -0.40091607487E+02  0.27567898590E+03  0.28288561388E+03  0.00000000000E+00 0. -1.
</event>
<event>
 7    1  0.2810263E-009  0.1237607E+03  0.7561462E-02  0.1237019E+00
          1   -1    0    0  501    0  0.00000000000E+00  0.00000000000E+00  0.12564520747E+03  0.12564520747E+03  0.00000000000E+00 0. -1.
         -1   -1    0    0    0  501 -0.00000000000E+00 -0.00000000000E+00 -0.14252291144E+03  0.14252291144E+03  0.00000000000E+00 0.  1.
         25    2    1    2    0    0 -0.16703479377E+02  0.88116719696E+02 -0.24623285757E+02  0.15587644353E+03  0.12509035507E+03 0.  0.
          5    1    3    3  502    0 -0.35040839329E+02  0.11271109891E+03 -0.35064734322E+02  0.12320170547E+03  0.41800000000E+01 0.  1.
         -5    1    3    3    0  502  0.18337359952E+02 -0.24594379211E+02  0.10441448566E+02  0.32674738055E+02  0.41800000000E+01 0.  1.
        -11    1    1    2    0    0  0.21847659498E+02 -0.18446615999E+02  0.27521611651E+02  0.39686735508E+02  0.00000000000E+00 0. -1.
         11    1    1    2    0    0 -0.51441801216E+01 -0.69670103696E+02 -0.19776029862E+02  0.72604939882E+02  0.00000000000E+00 0.  1.
</event>
<event>
 7    1  0.2810263E-009  0.8721932E+02  0.7561462E-02  0.1309729E+00
          4   -1    0    0  501    0  0.00000000000E+00  0.00000000000E+00  0.10127703516E+03  0.10127703516E+03  0.00000000000E+00 0. -1.
         -4   -1    0    0    0  501 -0.00000000000E+00 -0.00000000000E+00 -0.13735450336E+03  0.13735450336E+03  0.00000000000E+00 0.  1.
         25    2    1    2    0    0 -0.12779102990E+02 -0.44825788900E+02 -0.28255144120E+02  0.13644878579E+03  0.12508901291E+03 0.  0.
          5    1    3    3  502    0 -0.28966208681E+02 -0.59437565959E+02 -0.65450989646E+02  0.93129855246E+02  0.41800000000E+01 0. -1.
         -5    1    3    3    0  502  0.16187105691E+02  0.14611777059E+02  0.37195845526E+02  0.43318930549E+02  0.41800000000E+01 0. -1.
        -11    1    1    2    0    0  0.10370068199E+02  0.64920941687E+02 -0.29907200097E+02  0.72226778979E+02  0.00000000000E+00 0.  1.
         11    1    1    2    0    0  0.24090347905E+01 -0.20095152787E+02  0.22084876014E+02  0.29955973740E+02  0.00000000000E+00 0. -1.
</event>
<event>
 7    1  0.2810263E-009  0.1633949E+03  0.7561462E-02  0.1184916E+00
          2   -1    0    0  501    0  0.00000000000E+00  0.00000000000E+00  0.10038431647E+03  0.10038431647E+03  0.00000000000E+00 0. -1.
         -2   -1    0    0    0  501 -0.00000000000E+00 -0.00000000000E+00 -0.34515398949E+03  0.34515398949E+03  0.00000000000E+00 0.  1.
         25    2    1    2    0    0 -0.14573280464E+03  0.32542860351E+02 -0.10639629103E+03  0.22195633661E+03  0.12508939407E+03 0.  0.
          5    1    3    3  502    0 -0.12646398820E+03  0.82952755548E+01 -0.13089657511E+03  0.18224526794E+03  0.41800000000E+01 0.  1.
         -5    1    3    3    0  502 -0.19268816438E+02  0.24247584796E+02  0.24500284081E+02  0.39711068676E+02  0.41800000000E+01 0.  1.
        -11    1    1    2    0    0  0.11971216252E+03  0.86342927043E+01 -0.12450489918E+03  0.17293647037E+03  0.00000000000E+00 0.  1.
         11    1    1    2    0    0  0.26020642125E+02 -0.41177153055E+02 -0.13868482810E+02  0.50645498969E+02  0.00000000000E+00 0. -1.
</event>
<event>
 7    1  0.2810263E-009  0.1040681E+03  0.7561462E-02  0.1271967E+00
          2   -1    0    0  501    0  0.00000000000E+00  0.00000000000E+00  0.18785786723E+02  0.18785786723E+02  0.00000000000E+00 0. -1.
         -2   -1    0    0    0  501 -0.00000000000E+00 -0.00000000000E+00 -0.60748114771E+03  0.60748114771E+03  0.00000000000E+00 0.  1.
         25    2    1    2    0    0  0.22364341899E+02  0.72655708900E+01 -0.35590512636E+03  0.37797898059E+03  0.12508676383E+03 0.  0.
          5    1    3    3  502    0 -0.29883721909E+02  0.47114252441E+02 -0.21943958098E+03  0.22645969116E+03  0.41800000000E+01 0.  1.
         -5    1    3    3    0  502  0.52248063809E+02 -0.39848681551E+02 -0.13646554538E+03  0.15151928943E+03  0.41800000000E+01 0.  1.
        -11    1    1    2    0    0  0.12536853406E+02 -0.37891505491E+02 -0.10698751518E+03  0.11418961112E+03  0.00000000000E+00 0.  1.
         11    1    1    2    0    0 -0.34901195305E+02  0.30625934601E+02 -0.12580271944E+03  0.13409834273E+03  0.00000000000E+00 0. -1.
</event>
<event>
 7    1  0.2810263E-009  0.1243939E+03  0.7561462E-02  0.1236020E+00
          2   -1    0    0  501    0  0.00000000000E+00  0.00000000000E+00  0.39181814332E+03  0.39181814332E+03  0.00000000000E+00 0. -1.
         -2   -1    0    0    0  501 -0.00000000000E+00 -0.00000000000E+00 -0.42325940894E+02  0.42325940894E+02  0.00000000000E+00 0.  1.
         25    2    1    2    0    0 -0.12656937125E+02  0.68896927907E+02  0.24727082137E+03  0.28583053848E+03  0.12509697397E+03 0.  0.
          5    1    3    3  502    0 -0.36697253036E+02 -0.24817129386E+02  0.10149596123E+03  0.11082184278E+03  0.41800000000E+01 0. -1.
         -5    1    3    3    0  502  0.24040315911E+02  0.93714057293E+02  0.14577486014E+03  0.17500869571E+03  0.41800000000E+01 0. -1.
        -11    1    1    2    0    0 -0.34508838243E+02 -0.21919052207E+02  0.39818980311E+02  0.57068870319E+02  0.00000000000E+00 0. -1.
         11    1    1    2    0    0  0.47165775368E+02 -0.46977875701E+02  0.62402400743E+02  0.91244675406E+02  0.00000000000E+00 0.  1.
</event>
<event>
 7    1  0.2810263E-009  0.1137716E+03  0.7561462E-02  0.1253741E+00
         -3   -1    0    0    0  501 -0.00000000000E+00  0.00000000000E+00  0.33262262746E+03  0.33262262746E+03  0.00000000000E+00 0.  1.
          3   -1    0    0  501    0  0.00000000000E+00 -0.00000000000E+00 -0.43346861058E+02  0.43346861058E+02  0.00000000000E+00 0. -1.
         25    2    1    2    0    0 -0.14842959555E+02  0.53303346028E+02  0.17639219162E+03  0.22320596177E+03  0.12508051790E+03 0.  0.
          5    1    3    3  502    0  0.35823020217E+02  0.69255091216E+02  0.13411107594E+03  0.15518637030E+03  0.41800000000E+01 0. -1.
         -5    1    3    3    0  502 -0.50665979771E+02 -0.15951745188E+02  0.42281115677E+02  0.68019591469E+02  0.41800000000E+01 0. -1.
        -11    1    1    2    0    0 -0.30991525587E+02 -0.35196455755E+02  0.28022961834E+02  0.54631049284E+02  0.00000000000E+00 0. -1.
         11    1    1    2    0    0  0.45834485141E+02 -0.18106890272E+02  0.84860612951E+02  0.98132477468E+02  0.00000000000E+00 0.  1.
</event>
<event>
 7    1  0.2810263E-009  0.8572560E+02  0.7561462E-02  0.1313546E+00
         -1   -1    0    0    0  501 -0.00000000000E+00  0.00000000000E+00  0.40083359385E+02  0.40083359385E+02  0.00000000000E+00 0.  1.
          1   -1    0    0  501    0  0.00000000000E+00 -0.00000000000E+00 -0.31901049749E+03  0.31901049749E+03  0.00000000000E+00 0. -1.
         25    2    1    2    0    0  0.13130694172E+01  0.29683605085E+02 -0.14019412523E+03  0.19022318883E+03  0.12509048028E+03 0.  0.
          5    1    3    3  502    0  0.53808786765E+02 -0.12365773022E+02 -0.91987553939E+02  0.10736610431E+03  0.41800000000E+01 0.  1.
         -5    1    3    3    0  502 -0.52495717347E+02  0.42049378107E+02 -0.48206571293E+02  0.82857084518E+02  0.41800000000E+01 0.  1.
        -11    1    1    2    0    0  0.49876580212E+01 -0.37962032869E+02 -0.14924674091E+03  0.15407979214E+03  0.00000000000E+00 0. -1.
         11    1    1    2    0    0 -0.63007274384E+01  0.82784277842E+01  0.10513728039E+02  0.14790875907E+02  0.00000000000E+00 0.  1.
</event>
<event>
 7    1  0.2810263E-009  0.8372714E+02  0.7561462E-02  0.1318795E+00
         -2   -1    0    0    0  501 -0.00000000000E+00  0.00000000000E+00  0.48849106074E+02  0.48849106074E+02  0.00000000000E+00 0.  1.
          2   -1    0    0  501    0  0.00000000000E+00 -0.00000000000E+00 -0.33850931599E+03  0.33850931599E+03  0.00000000000E+00 0. -1.
         25    2    1    2    0    0 -0.39340320143E+02 -0.29919657068E+02 -0.24076407036E+03  0.27578583576E+03  0.12509053906E+03 0.  0.
          5    1    3    3  502    0 -0.65639539152E+02  0.94853912904E+01 -0.62286012852E+02  0.91079863554E+02  0.41800000000E+01 0. -1.
         -5    1    3    3    0  502  0.26299219009E+02 -0.39405048358E+02 -0.17847805751E+03  0.18470597221E+03  0.41800000000E+01 0. -1.
        -11    1    1    2    0    0  0.43947369532E+01  0.14669941331E+02 -0.67452264807E+02  0.69168843557E+02  0.00000000000E+00 0. -1.
         11    1    1    2    0    0  0.34945583190E+02  0.15249715737E+02  0.18556125251E+02  0.42403742746E+02  0.00000000000E+00 0.  1.
</event>
<event>
 7    1  0.2810263E-009  0.1151554E+03  0.7561462E-02  0.1251310E+00
          1   -1    0    0  501    0  0.00000000000E+00  0.00000000000E+00  0.54050473728E+03  0.54050473728E+03  0.00000000000E+00 0. -1.
         -1   -1    0    0    0  501 -0.00000000000E+00 -0.00000000000E+00 -0.28051275480E+02  0.28051275480E+02  0.00000000000E+00 0.  1.
         25    2    1    2    0    0  0.41655898131E+02  0.88075573346E+01  0.19999832953E+03  0.23970753618E+03  0.12509030407E+03 0.  0.
          5    1    3    3  502    0 -0.11194216620E+02  0.58313033376E+02  0.94242236585E+02  0.11146655061E+03  0.41800000000E+01 0. -1.
         -5    1    3    3    0  502  0.52850114751E+02 -0.49505476042E+02  0.10575609294E+03  0.12824098558E+03  0.41800000000E+01 0. -1.
        -11    1    1    2    0    0  0.27576286151E+02 -0.90328666465E+01  0.14077089389E+03  0.14373061192E+03  0.00000000000E+00 0. -1.
         11    1    1    2    0    0 -0.69232184282E+02  0.22530931191E+00  0.17168423839E+03  0.18511786466E+03  0.00000000000E+00 0.  1.
</event>
<event>
 7    1  0.2810263E-009  0.8468393E+02  0.7561462E-02  0.1316261E+00
         -2   -1    0    0    0  501 -0.00000000000E+00  0.00000000000E+00  0.12763605170E+03  0.12763605170E+03  0.00000000000E+00 0.  1.
          2   -1    0    0  501    0  0.00000000000E+00 -0.00000000000E+00 -0.97742362549E+02  0.97742362549E+02  0.00000000000E+00 0. -1.
         25    2    1    2    0    0 -0.16163157679E+02  0.19267221090E+02  0.67899875356E+01  0.12777331433E+03  0.12508973759E+03 0.  0.
          5    1    3    3  502    0  0.39954058013E+02  0.30490621941E+02 -0.30876539526E+02  0.59134066925E+02  0.41800000000E+01 0. -1.
         -5    1    3    3    0  502 -0.56117215692E+02 -0.11223400851E+02  0.37666527062E+02  0.68639247406E+02  0.41800000000E+01 0. -1.
        -11    1    1    2    0    0  0.31891340560E+01  0.19972247048E+02  0.46077009591E+02  0.50320493251E+02  0.00000000000E+00 0.  1.
         11    1    1    2    0    0  0.12974023623E+02 -0.39239468138E+02 -0.22973307972E+02  0.47284606670E+02  0.00000000000E+00 0. -1.
</event>
<event>
 7    1  0.2810263E-009  0.1044442E+03  0.7561462E-02  0.1271219E+00
         -2   -1    0    0    0  501 -0.00000000000E+00  0.00000000000E+00  0.32651778800E+02  0.32651778800E+02  0.00000000000E+00 0. -1.
          2   -1    0    0  501    0  0.00000000000E+00 -0.00000000000E+00 -0.69714577473E+03  0.69714577473E+03  0.00000000000E+00 0.  1.
         25    2    1    2    0    0 -0.34502781504E+02  0.42237132340E+02 -0.57899205968E+03  0.59485708841E+03  0.12509489670E+03 0.  0.
          5    1    3    3  502    0  0.40782828329E+02  0.40967875123E+02 -0.31579492235E+03  0.32106932470E+03  0.41800000000E+01 0. -1.
         -5    1    3    3    0  502 -0.75285609833E+02  0.12692572176E+01 -0.26319713733E+03  0.27378776371E+03  0.41800000000E+01 0. -1.
        -11    1    1    2    0    0  0.25544928856E+02  0.61782852283E+01 -0.81394466715E+02  0.85532296885E+02  0.00000000000E+00 0.  1.
         11    1    1    2    0    0  0.89578526479E+01 -0.48415417569E+02 -0.41074695368E+01  0.49408168236E+02  0.00000000000E+00 0. -1.
</event>
<event>
 7    1  0.2810263E-009  0.1594228E+03  0.7561462E-02  0.1189350E+00
          2   -1    0    0  501    0  0.00000000000E+00  0.00000000000E+00  0.63923481265E+03  0.63923481265E+03  0.00000000000E+00 0. -1.
         -2   -1    0    0    0  501 -0.00000000000E+00 -0.00000000000E+00 -0.44108133196E+02  0.44108133196E+02  0.00000000000E+00 0.  1.
         25    2    1    2    0    0 -0.65144789075E+01  0.12778139896E+03  0.33664647908E+03  0.38124889185E+03  0.12509732733E+03 0.  0.
          5    1    3    3  502    0 -0.63138702186E+02  0.61358408284E+02  0.13194800975E+03  0.15867923512E+03  0.41800000000E+01 0. -1.
         -5    1    3    3    0  502  0.56624223278E+02  0.66422990680E+02  0.20469846933E+03  0.22256965673E+03  0.41800000000E+01 0. -1.
        -11    1    1    2    0    0  0.31347668336E+02 -0.10514904686E+03  0.23966009077E+03  0.26358292334E+03  0.00000000000E+00 0. -1.
         11    1    1    2    0    0 -0.24833189428E+02 -0.22632352102E+02  0.18820109599E+02  0.38511130653E+02  0.00000000000E+00 0.  1.
</event>
<event>
 7    1  0.2810263E-009  0.1062564E+03  0.7561462E-02  0.1267664E+00
         -2   -1    0    0    0  501 -0.00000000000E+00  0.00000000000E+00  0.19472728468E+02  0.19472728468E+02  0.00000000000E+00 0.  1.
          2   -1    0    0  501    0  0.00000000000E+00 -0.00000000000E+00 -0.77939983836E+03  0.77939983836E+03  0.00000000000E+00 0. -1.
         25    2    1    2    0    0 -0.15571587015E+02  0.55676674225E+02 -0.39352563562E+03  0.41695572357E+03  0.12508910083E+03 0.  0.
          5    1    3    3  502    0 -0.15364021925E+02 -0.38215692525E+02 -0.15893074039E+03  0.16423442077E+03  0.41800000000E+01 0. -1.
         -5    1    3    3    0  502 -0.20756508930E+00  0.93892366751E+02 -0.23459489523E+03  0.25272130279E+03  0.41800000000E+01 0. -1.
        -11    1    1    2    0    0  0.97372112089E+01  0.83548867697E+01 -0.34111831680E+01  0.13276053091E+02  0.00000000000E+00 0.  1.
         11    1    1    2    0    0  0.58343758057E+01 -0.64031560995E+02 -0.36299029110E+03  0.36864079017E+03  0.00000000000E+00 0. -1.
</event>
<event>
 7    1  0.2810263E-009  0.9151736E+02  0.7561462E-02  0.1299218E+00
          1   -1    0    0  501    0  0.00000000000E+00  0.00000000000E+00  0.86963631032E+02  0.86963631032E+02  0.00000000000E+00 0. -1.
         -1   -1    0    0    0  501 -0.00000000000E+00 -0.00000000000E+00 -0.15751855285E+03  0.15751855285E+03  0.00000000000E+00 0.  1.
         25    2    1    2    0    0 -0.32652339827E+01 -0.26261249194E+02 -0.79201412793E+02  0.15040300697E+03  0.12509150952E+03 0.  0.
          5    1    3    3  502    0 -0.60770164426E+01 -0.67602175569E+02 -0.84450617334E+02  0.10842676532E+03  0.41800000000E+01 0. -1.
         -5    1    3    3    0  502  0.28117824599E+01  0.41340926375E+02  0.52492045411E+01  0.41976241642E+02  0.41800000000E+01 0. -1.
        -11    1    1    2    0    0 -0.21874558356E+02 -0.13962510710E+02 -0.24913334952E+02  0.35973910922E+02  0.00000000000E+00 0. -1.
         11    1    1    2    0    0  0.25139792338E+02  0.40223759905E+02  0.33559825928E+02  0.58105265992E+02  0.00000000000E+00 0.  1.
</event>
<event>
 7    1  0.2810263E-009  0.1987975E+03  0.7561462E-02  0.1150758E+00
         -2   -1    0    0    0  501 -0.00000000000E+00  0.00000000000E+00  0.27260323089E+03  0.27260323089E+03  0.00000000000E+00 0.  1.
          2   -1    0    0  501    0  0.00000000000E+00 -0.00000000000E+00 -0.15367821890E+03  0.15367821890E+03  0.00000000000E+00 0. -1.
         25    2    1    2    0    0  0.15003139847E+03  0.75581275258E+02  0.28490426300E+02  0.21138045333E+03  0.12509213389E+03 0.  0.
          5    1    3    3  502    0  0.12532670359E+02 -0.32104893149E+02  0.61817823093E+01  0.35262995094E+02  0.41800000000E+01 0.  1.
         -5    1    3    3    0  502  0.13749872811E+03  0.10768616841E+03  0.22308643990E+02  0.17611745823E+03  0.41800000000E+01 0.  1.
        -11    1    1    2    0    0 -0.85445612860E+02 -0.87726075752E+02  0.84771603427E+02  0.14893972563E+03  0.00000000000E+00 0.  1.
         11    1    1    2    0    0 -0.64585785606E+02  0.12144800494E+02  0.56629822604E+01  0.65961270829E+02  0.00000000000E+00 0. -1.
</event>
<event>
 7    1  0.2810263E-009  0.9158018E+02  0.7561462E-02  0.1299070E+00
          1   -1    0    0  501    0  0.00000000000E+00  0.00000000000E+00  0.16505247190E+03  0.16505247190E+03  0.00000000000E+00 0. -1.
         -1   -1    0    0    0  501 -0.00000000000E+00 -0.00000000000E+00 -0.97496421808E+02  0.97496421808E+02  0.00000000000E+00 0.  1.
         25    2    1    2    0    0 -0.65749508957E+02 -0.56786966934E+01  0.39658592320E+02  0.14688819432E+03  0.12509233455E+03 0.  0.
          5    1    3    3  502    0 -0.45008941601E+02  0.94611085100E+01 -0.41236078714E+02  0.61912874154E+02  0.41800000000E+01 0.  1.
         -5    1    3    3    0  502 -0.20740567356E+02 -0.15139805203E+02  0.80894671034E+02  0.84975320167E+02  0.41800000000E+01 0.  1.
        -11    1    1    2    0    0  0.56429283250E+02  0.43979387740E+02  0.95375911361E+01  0.72176285571E+02  0.00000000000E+00 0.  1.
         11    1    1    2    0    0  0.93202257069E+01 -0.38300691046E+02  0.18359866632E+02  0.43484413812E+02  0.00000000000E+00 0. -1.
</event>
<event>
 7    1  0.2810263E-009  0.1481032E+03  0.7561462E-02  0.1202823E+00
          2   -1    0    0  501    0  0.00000000000E+00  0.00000000000E+00  0.71411826061E+03  0.71411826061E+03  0.00000000000E+00 0. -1.
         -2   -1    0    0    0  501 -0.00000000000E+00 -0.00000000000E+00 -0.33503990971E+02  0.33503990971E+02  0.00000000000E+00 0.  1.
         25    2    1    2    0    0  0.71102958732E+02 -0.77734524902E+02  0.43506514914E+03  0.46478799191E+03  0.12509159174E+03 0.  0.
          5    1    3    3  502    0  0.83988161073E+02  0.54893433199E+00  0.22482951579E+03  0.24004186323E+03  0.41800000000E+01 0.  1.
         -5    1    3    3    0  502 -0.12885202341E+02 -0.78283459234E+02  0.21023563335E+03  0.22474612868E+03  0.41800000000E+01 0.  1.
        -11    1    1    2    0    0  0.18173983774E+02  0.11584945868E+02  0.84285065773E+02  0.86996994024E+02  0.00000000000E+00 0.  1.
         11    1    1    2    0    0 -0.89276942506E+02  0.66149579035E+02  0.16126405473E+03  0.19583726565E+03  0.00000000000E+00 0. -1.
</event>
<event>
 7    1  0.2810263E-009  0.1498902E+03  0.7561462E-02  0.1200608E+00
          2   -1    0    0  501    0  0.00000000000E+00  0.00000000000E+00  0.10208449169E+04  0.10208449169E+04  0.00000000000E+00 0. -1.
         -2   -1    0    0    0  501 -0.00000000000E+00 -0.00000000000E+00 -0.23905666576E+02  0.23905666576E+02  0.00000000000E+00 0.  1.
         25    2    1    2    0    0 -0.11280493030E+03  0.35932325418E+01  0.53405407594E+03  0.55999827236E+03  0.12508575216E+03 0.  0.
          5    1    3    3  502    0 -0.13817071929E+03 -0.68282227959E+01  0.47501352803E+03  0.49476569859E+03  0.41800000000E+01 0.  1.
         -5    1    3    3    0  502  0.25365788984E+02  0.10421455338E+02  0.59040547914E+02  0.65232573766E+02  0.41800000000E+01 0.  1.
        -11    1    1    2    0    0  0.61010288353E+02 -0.37610415986E+02  0.33581443646E+03  0.34337753918E+03  0.00000000000E+00 0. -1.
         11    1    1    2    0    0  0.51794641951E+02  0.34017183445E+02  0.12707073789E+03  0.14137477191E+03  0.00000000000E+00 0.  1.
</event>
<event>
 7    1  0.2810263E-009  0.7321221E+02  0.7561462E-02  0.1349498E+00
         -1   -1    0    0    0  501 -0.00000000000E+00  0.00000000000E+00  0.41877295191E+03  0.41877295191E+03  0.00000000000E+00 0.  1.
          1   -1    0    0  501    0  0.00000000000E+00 -0.00000000000E+00 -0.28533420453E+02  0.28533420453E+02  0.00000000000E+00 0. -1.
         25    2    1    2    0    0 -0.66100868860E+01  0.11764987324E+02  0.20336857264E+03  0.23913889956E+03  0.12508608543E+03 0.  0.
          5    1    3    3  502    0  0.20835630787E+02 -0.77889736452E+01  0.20392489062E+03  0.20517705777E+03  0.41800000000E+01 0.  1.
         -5    1    3    3    0  502 -0.27445717673E+02  0.19553960969E+02 -0.55631797745E+00  0.33961841791E+02  0.41800000000E+01 0.  1.
        -11    1    1    2    0    0  0.46243638002E+02  0.55647044468E+01  0.11774532379E+03  0.12662306767E+03  0.00000000000E+00 0.  1.
         11    1    1    2    0    0 -0.39633551116E+02 -0.17329691771E+02  0.69125635023E+02  0.81544405132E+02  0.00000000000E+00 0. -1.
</event>
<event>
 7    1  0.2810263E-009  0.1577565E+03  0.7561462E-02  0.1191253E+00
          1   -1    0    0  501    0  0.00000000000E+00  0.00000000000E+00  0.14063787033E+03  0.14063787033E+03  0.00000000000E+00 0. -1.
         -1   -1    0    0    0  501 -0.00000000000E+00 -0.00000000000E+00 -0.31339357946E+03  0.31339357946E+03  0.00000000000E+00 0.  1.
         25    2    1    2    0    0 -0.10684178761E+03 -0.50863446855E+02  0.58262428216E+02  0.18178034254E+03  0.12508926648E+03 0.  0.
          5    1    3    3  502    0 -0.12757556640E+03 -0.68299297794E+02  0.49747479878E+02  0.15307711578E+03  0.41800000000E+01 0. -1.
         -5    1    3    3    0  502  0.20733778796E+02  0.17435850939E+02  0.85149483380E+01  0.28703226758E+02  0.41800000000E+01 0. -1.
        -11    1    1    2    0    0  0.55707535493E+02  0.69356124493E+02 -0.12991301703E+03  0.15745155925E+03  0.00000000000E+00 0. -1.
         11    1    1    2    0    0  0.51134252113E+02 -0.18492677638E+02 -0.10110512032E+03  0.11479954800E+03  0.00000000000E+00 0.  1.
</event>
<event>
 7    1  0.2810263E-009  0.7551072E+02  0.7561462E-02  0.1342297E+00
          1   -1    0    0  501    0  0.00000000000E+00  0.00000000000E+00  0.67160076297E+02  0.67160076297E+02  0.00000000000E+00 0. -1.
         -1   -1    0    0    0  501 -0.00000000000E+00 -0.00000000000E+00 -0.34499158856E+03  0.34499158856E+03  0.00000000000E+00 0.  1.
         25    2    1    2    0    0 -0.30409309182E+02  0.80350779828E+01 -0.12954378365E+02  0.12961820977E+03  0.12507508074E+03 0.  0.
          5    1    3    3  502    0 -0.11968782467E+02  0.25152444316E+02  0.52384893949E+02  0.59477279047E+02  0.41800000000E+01 0. -1.
         -5    1    3    3    0  502 -0.18440526715E+02 -0.17117366333E+02 -0.65339272315E+02  0.70140930720E+02  0.41800000000E+01 0. -1.
        -11    1    1    2    0    0 -0.30824293020E+02 -0.17411302112E+02 -0.11601933996E+03  0.12130036161E+03  0.00000000000E+00 0.  1.
         11    1    1    2    0    0  0.61233602202E+02  0.93762241291E+01 -0.14885779394E+03  0.16123309348E+03  0.00000000000E+00 0. -1.
</event>
<event>
 7    1  0.2810263E-009  0.1239330E+03  0.7561462E-02  0.1236746E+00
         -1   -1    0    0    0  501 -0.00000000000E+00  0.00000000000E+00  0.30273228751E+02  0.30273228751E+02  0.00000000000E+00 0.  1.
          1   -1    0    0  501    0  0.00000000000E+00 -0.00000000000E+00 -0.54670119240E+03  0.54670119240E+03  0.00000000000E+00 0. -1.
         25    2    1    2    0    0 -0.16299825497E+02 -0.68638447488E+02 -0.26209868360E+03  0.29886422469E+03  0.12508870479E+03 0.  0.
          5    1    3    3  502    0  0.60905669228E+01  0.34622555149E+02 -0.43924106644E+02  0.56414677832E+02  0.41800000000E+01 0.  1.
         -5    1    3    3    0  502 -0.22390392419E+02 -0.10326100264E+03 -0.21817457696E+03  0.24244954686E+03  0.41800000000E+01 0.  1.
        -11    1    1    2    0    0 -0.25721653904E+02  0.57889059825E+02 -0.10518668492E+03  0.12278837653E+03  0.00000000000E+00 0.  1.
         11    1    1    2    0    0  0.42021479401E+02  0.10749387663E+02 -0.14914259513E+03  0.15532181993E+03  0.00000000000E+00 0. -1.
</event>
<event>
 7    1  0.2810263E-009  0.1115101E+03  0.7561462E-02  0.1257799E+00
          2   -1    0    0  501    0  0.00000000000E+00  0.00000000000E+00  0.30071096683E+03  0.30071096683E+03  0.00000000000E+00 0. -1.
         -2   -1    0    0    0  501 -0.00000000000E+00 -0.00000000000E+00 -0.55973931390E+02  0.55973931390E+02  0.00000000000E+00 0.  1.
         25    2    1    2    0    0 -0.82799340946E+01  0.65579998734E+02  0.17492761829E+03  0.22498135001E+03  0.12509053789E+03 0.  0.
          5    1    3    3  502    0 -0.16610123839E+01  0.10297300971E+03  0.13290398507E+03  0.16818781566E+03  0.41800000000E+01 0. -1.
         -5    1    3    3    0  502 -0.66189217107E+01 -0.37393010975E+02  0.42023633220E+02  0.56793534345E+02  0.41800000000E+01 0. -1.
        -11    1    1    2    0    0  0.23594316804E+02 -0.12912484017E+02 -0.14929764820E+02  0.30762345595E+02  0.00000000000E+00 0.  1.
         11    1    1    2    0    0 -0.15314382709E+02 -0.52667514717E+02  0.84739181968E+02  0.10094120261E+03  0.00000000000E+00 0. -1.
</event>
<event>
 7    1  0.2864109E-009  0.1589352E+03  0.7561462E-02  0.1189904E+00
         -1   -1    0    0    0  501 -0.00000000000E+00  0.00000000000E+00  0.19734871690E+02  0.19734871690E+02  0.00000000000E+00 0.  1.
          1   -1    0    0  501    0  0.00000000000E+00 -0.00000000000E+00 -0.17965201191E+04  0.17965201191E+04  0.00000000000E+00 0. -1.
         25    2    1    2    0    0 -0.11206178633E+03  0.72645163355E+02 -0.13038903445E+04  0.13166675161E+04  0.12509258094E+03 0.  0.
          5    1    3    3  502    0 -0.13917201046E+03  0.65628589780E+02 -0.11407899098E+04  0.11511277301E+04  0.41800000000E+01 0. -1.
         -5    1    3    3    0  502  0.27110224133E+02  0.70165735749E+01 -0.16310043474E+03  0.16553978606E+03  0.41800000000E+01 0. -1.
        -11    1    1    2    0    0  0.44293092486E+02 -0.42756429873E+02 -0.86578100884E+02  0.10623444776E+03  0.00000000000E+00 0.  1.
         11    1    1    2    0    0  0.67768693844E+02 -0.29888733482E+02 -0.38631680196E+03  0.39335302685E+03  0.00000000000E+00 0. -1.
</event>
<event>
 7    1  0.2810263E-009  0.1699928E+03  0.7561462E-02  0.1177855E+00
          1   -1    0    0  501    0  0.00000000000E+00  0.00000000000E+00  0.28262666093E+03  0.28262666093E+03  0.00000000000E+00 0. -1.
         -1   -1    0    0    0  501 -0.00000000000E+00 -0.00000000000E+00 -0.13453257405E+03  0.13453257405E+03  0.00000000000E+00 0.  1.
         25    2    1    2    0    0  0.15375647950E+03  0.41161218192E+02  0.50154200195E+02  0.20856347263E+03  0.12509187601E+03 0.  0.
          5    1    3    3  502    0  0.58862256627E+02  0.38147559660E+02  0.82321839632E+02  0.10823289354E+03  0.41800000000E+01 0. -1.
         -5    1    3    3    0  502  0.94894222878E+02  0.30136585312E+01 -0.32167639437E+02  0.10033057909E+03  0.41800000000E+01 0. -1.
        -11    1    1    2    0    0 -0.54514578232E+02  0.20048489724E+02  0.28784448172E+01  0.58155538211E+02  0.00000000000E+00 0.  1.
         11    1    1    2    0    0 -0.99241901273E+02 -0.61209707915E+02  0.95061441863E+02  0.15044022414E+03  0.00000000000E+00 0. -1.
</event>
<event>
 7    1  0.2810263E-009  0.1047229E+03  0.7561462E-02  0.1270667E+00
          1   -1    0    0  501    0  0.00000000000E+00  0.00000000000E+00  0.32363675097E+03  0.32363675097E+03  0.00000000000E+00 0. -1.
         -1   -1    0    0    0  501 -0.00000000000E+00 -0.00000000000E+00 -0.65386622982E+02  0.65386622982E+02  0.00000000000E+00 0.  1.
         25    2    1    2    0    0 -0.21205700274E+02  0.91462183791E+02  0.11659115905E+03  0.19508446415E+03  0.12509770980E+03 0.  0.
          5    1    3    3  502    0 -0.16065252460E+02  0.49048187111E+02 -0.17209382849E+02  0.54566035714E+02  0.41800000000E+01 0.  1.
         -5    1    3    3    0  502 -0.51404478144E+01  0.42413996680E+02  0.13380054190E+03  0.14051842844E+03  0.41800000000E+01 0.  1.
        -11    1    1    2    0    0 -0.22372262458E+02 -0.15687484431E+02 -0.18386946352E+00  0.27324880663E+02  0.00000000000E+00 0.  1.
         11    1    1    2    0    0  0.43577962733E+02 -0.75774699360E+02  0.14184283840E+03  0.16661402913E+03  0.00000000000E+00 0. -1.
</event>
<event>
 7    1  0.2810263E-009  0.1077195E+03  0.7561462E-02  0.1264852E+00
         -1   -1    0    0    0  501 -0.00000000000E+00  0.00000000000E+00  0.26760959583E+03  0.26760959583E+03  0.00000000000E+00 0.  1.
          1   -1    0    0  501    0  0.00000000000E+00 -0.00000000000E+00 -0.60152162274E+02  0.60152162274E+02  0.00000000000E+00 0. -1.
         25    2    1    2    0    0 -0.58894524932E+01 -0.64743268629E+02  0.10115092265E+03  0.17350624091E+03  0.12508609034E+03 0.  0.
          5    1    3    3  502    0  0.48946924622E+02 -0.51689494725E+02  0.19016398562E+02  0.73801769011E+02  0.41800000000E+01 0. -1.
         -5    1    3    3    0  502 -0.54836377115E+02 -0.13053773904E+02  0.82134524092E+02  0.99704471896E+02  0.41800000000E+01 0. -1.
        -11    1    1    2    0    0 -0.19522584976E+02  0.16559716857E+01  0.78279218119E+02  0.80693925147E+02  0.00000000000E+00 0.  1.
         11    1    1    2    0    0  0.25412037469E+02  0.63087296943E+02  0.28027292779E+02  0.73561592047E+02  0.00000000000E+00 0. -1.
</event>
<event>
 7    1  0.3034444E-009  0.1867922E+03  0.7561462E-02  0.1161387E+00
         -2   -1    0    0    0  501 -0.00000000000E+00  0.00000000000E+00  0.20091798743E+03  0.20091798743E+03  0.00000000000E+00 0.  1.
          2   -1    0    0  501    0  0.00000000000E+00 -0.00000000000E+00 -0.18871657014E+03  0.18871657014E+03  0.00000000000E+00 0. -1.
         25    2    1    2    0    0 -0.12671163414E+03  0.99059512298E+02  0.19362948901E+02  0.20467122989E+03  0.12508702312E+03 0.  0.
          5    1    3    3  502    0 -0.97404065726E+02  0.12876685416E+03  0.10842969115E+02  0.16187494287E+03  0.41800000000E+01 0.  1.
         -5    1    3    3    0  502 -0.29307568416E+02 -0.29707341866E+02  0.85199797861E+01  0.42796287021E+02  0.41800000000E+01 0.  1.
        -11    1    1    2    0    0  0.40508192045E+02 -0.23427247143E+01  0.29676577033E+02  0.50270281541E+02  0.00000000000E+00 0.  1.
         11    1    1    2    0    0  0.86203442097E+02 -0.96716787583E+02 -0.36838108644E+02  0.13469304614E+03  0.00000000000E+00 0. -1.
</event>
<event>
 7    1  0.2810263E-009  0.3152846E+03  0.7561462E-02  0.1077840E+00
         -1   -1    0    0    0  501 -0.00000000000E+00  0.00000000000E+00  0.28741150977E+03  0.28741150977E+03  0.00000000000E+00 0.  1.
          1   -1    0    0  501    0  0.00000000000E+00 -0.00000000000E+00 -0.46935380002E+03  0.46935380002E+03  0.00000000000E+00 0. -1.
         25    2    1    2    0    0 -0.25227595393E+03 -0.16421527641E+03  0.92838746611E+02  0.33893337681E+03  0.12508791750E+03 0.  0.
          5    1    3    3  502    0  0.90755464898E+01  0.49427367432E+00 -0.91755889812E+01  0.13574744333E+02  0.41800000000E+01 0.  1.
         -5    1    3    3    0  502 -0.26135150042E+03 -0.16470955009E+03  0.10201433559E+03  0.32535863248E+03  0.41800000000E+01 0.  1.
        -11    1    1    2    0    0  0.17681218238E+03  0.15583691289E+03 -0.18100058112E+03  0.29716813696E+03  0.00000000000E+00 0.  1.
         11    1    1    2    0    0  0.75463771548E+02  0.83783635202E+01 -0.93780455745E+02  0.12066379603E+03  0.00000000000E+00 0. -1.
</event>
<event>
 7    1  0.2810263E-009  0.1035969E+03  0.7561462E-02  0.1272909E+00
          2   -1    0    0  501    0  0.00000000000E+00  0.00000000000E+00  0.53766336796E+03  0.53766336796E+03  0.00000000000E+00 0. -1.
         -2   -1    0    0    0  501 -0.00000000000E+00 -0.00000000000E+00 -0.31715562208E+02  0.31715562208E+02  0.00000000000E+00 0.  1.
         25    2    1    2    0    0 -0.11036970690E+02  0.39870820000E+02  0.40685458228E+03  0.42765398267E+03  0.12508309544E+03 0.  0.
          5    1    3    3  502    0  0.49749824504E+02 -0.11794308121E+02  0.17872691414E+03  0.18594335960E+03  0.41800000000E+01 0. -1.
         -5    1    3    3    0  502 -0.60786795194E+02  0.51665128121E+02  0.22812766814E+03  0.24171062307E+03  0.41800000000E+01 0. -1.
        -11    1    1    2    0    0 -0.14307165091E+02  0.11741975464E+02 -0.80064621537E+01  0.20166120028E+02  0.00000000000E+00 0.  1.
         11    1    1    2    0    0  0.25344135781E+02 -0.51612795464E+02  0.10709968562E+03  0.12155882746E+03  0.00000000000E+00 0. -1.
</event>
<event>
 7    1  0.2810263E-009  0.1241779E+03  0.7561462E-02  0.1236360E+00
          2   -1    0    0  501    0  0.00000000000E+00  0.00000000000E+00  0.43563390813E+02  0.43563390813E+02  0.00000000000E+00 0. -1.
         -2   -1    0    0    0  501 -0.00000000000E+00 -0.00000000000E+00 -0.54247674467E+03  0.54247674467E+03  0.00000000000E+00 0.  1.
         25    2    1    2    0    0 -0.97951233266E+02  0.45488747148E+02 -0.31599554468E+03  0.35660001145E+03  0.12508682463E+03 0.  0.
          5    1    3    3  502    0 -0.19773186653E+02 -0.84367360712E+01 -0.22143188543E+03  0.22251226868E+03  0.41800000000E+01 0. -1.
         -5    1    3    3    0  502 -0.78178046613E+02  0.53925483219E+02 -0.94563659245E+02  0.13408774277E+03  0.41800000000E+01 0. -1.
        -11    1    1    2    0    0  0.90906006898E+02 -0.64270641125E+02 -0.17593214138E+03  0.20819878908E+03  0.00000000000E+00 0.  1.
         11    1    1    2    0    0  0.70452263683E+01  0.18781893977E+02 -0.69856677914E+01  0.21241334949E+02  0.00000000000E+00 0. -1.
</event>
<event>
 7    1  0.2810263E-009  0.2002759E+03  0.7561462E-02  0.1149506E+00
          2   -1    0    0  501    0  0.00000000000E+00  0.00000000000E+00  0.21161980397E+04  0.21161980397E+04  0.00000000000E+00 0. -1.
         -2   -1    0    0    0  501 -0.00000000000E+00 -0.00000000000E+00 -0.19327914771E+02  0.19327914771E+02  0.00000000000E+00 0.  1.
         25    2    1    2    0    0  0.16995678464E+03 -0.39560026147E+01  0.10779582368E+04  0.10984274038E+04  0.12509133700E+03 0.  0.
          5    1    3    3  502    0 -0.17974280519E+02 -0.90240367333E+01  0.16731463147E+03  0.16857095332E+03  0.41800000000E+01 0.  1.
         -5    1    3    3    0  502  0.18793106516E+03  0.50680341186E+01  0.91064360528E+03  0.92985645046E+03  0.41800000000E+01 0.  1.
        -11    1    1    2    0    0 -0.10071668521E+03  0.46250028761E+02  0.64879796208E+03  0.65819580023E+03  0.00000000000E+00 0. -1.
         11    1    1    2    0    0 -0.69240099433E+02 -0.42294026147E+02  0.37011392612E+03  0.37890275049E+03  0.00000000000E+00 0.  1.
</event>
<event>
 7    1  0.2810263E-009  0.1980489E+03  0.7561462E-02  0.1151396E+00
          2   -1    0    0  501    0  0.00000000000E+00  0.00000000000E+00  0.61016195697E+03  0.61016195697E+03  0.00000000000E+00 0.  1.
         -2   -1    0    0    0  501 -0.00000000000E+00 -0.00000000000E+00 -0.83757897679E+02  0.83757897679E+02  0.00000000000E+00 0. -1.
         25    2    1    2    0    0  0.15651585919E+03  0.10752605528E+03  0.18281730639E+03  0.29176766791E+03  0.12508851979E+03 0.  0.
          5    1    3    3  502    0  0.38965258676E+02  0.15752586031E+01 -0.11741598837E+02  0.40940326899E+02  0.41800000000E+01 0.  1.
         -5    1    3    3    0  502  0.11755060052E+03  0.10595079667E+03  0.19455890523E+03  0.25082734101E+03  0.41800000000E+01 0.  1.
        -11    1    1    2    0    0 -0.11562722805E+03 -0.45453263816E+02  0.27164739343E+03  0.29871049767E+03  0.00000000000E+00 0.  1.
         11    1    1    2    0    0 -0.40888631144E+02 -0.62072791460E+02  0.71939359466E+02  0.10344168907E+03  0.00000000000E+00 0. -1.
</event>
<event>
 7    1  0.2810263E-009  0.8727958E+02  0.7561462E-02  0.1309577E+00
          2   -1    0    0  501    0  0.00000000000E+00  0.00000000000E+00  0.77420204949E+03  0.77420204949E+03  0.00000000000E+00 0. -1.
         -2   -1    0    0    0  501 -0.00000000000E+00 -0.00000000000E+00 -0.23624202192E+02  0.23624202192E+02  0.00000000000E+00 0.  1.
         25    2    1    2    0    0  0.93477386536E+01 -0.26399132144E+02  0.19755419135E+03  0.23549916645E+03  0.12509158439E+03 0.  0.
          5    1    3    3  502    0  0.36521914338E+02 -0.32111963112E+01  0.23129291281E+01  0.36972747393E+02  0.41800000000E+01 0. -1.
         -5    1    3    3    0  502 -0.27174175684E+02 -0.23187935833E+02  0.19524126222E+03  0.19852641906E+03  0.41800000000E+01 0. -1.
        -11    1    1    2    0    0 -0.53776377936E+02  0.14229538673E+02  0.31873942435E+03  0.32355710351E+03  0.00000000000E+00 0. -1.
         11    1    1    2    0    0  0.44428639283E+02  0.12169593472E+02  0.23428423160E+03  0.23876998172E+03  0.00000000000E+00 0.  1.
</event>
<event>
 7    1  0.2810263E-009  0.1286464E+03  0.7561462E-02  0.1229478E+00
         -1   -1    0    0    0  501 -0.00000000000E+00  0.00000000000E+00  0.85619228937E+02  0.85619228937E+02  0.00000000000E+00 0.  1.
          1   -1    0    0  501    0  0.00000000000E+00 -0.00000000000E+00 -0.20125664418E+03  0.20125664418E+03  0.00000000000E+00 0. -1.
         25    2    1    2    0    0  0.48514085736E+02  0.49431118169E+02 -0.82956706544E+02  0.16530658295E+03  0.12508956491E+03 0.  0.
          5    1    3    3  502    0 -0.94734918948E+00  0.81173225268E+02 -0.63856501932E+02  0.10336883094E+03  0.41800000000E+01 0.  1.
         -5    1    3    3    0  502  0.49461434925E+02 -0.31742107100E+02 -0.19100204612E+02  0.61937752011E+02  0.41800000000E+01 0.  1.
        -11    1    1    2    0    0 -0.38897539305E+02  0.22218064830E+02 -0.13141548120E+02  0.46683629419E+02  0.00000000000E+00 0. -1.
         11    1    1    2    0    0 -0.96165464308E+01 -0.71649182999E+02 -0.19539160581E+02  0.74885660749E+02  0.00000000000E+00 0.  1.
</event>
<event>
 7    1  0.2810263E-009  0.8066165E+02  0.7561462E-02  0.1327184E+00
          1   -1    0    0  501    0  0.00000000000E+00  0.00000000000E+00  0.62762059419E+03  0.62762059419E+03  0.00000000000E+00 0. -1.
         -1   -1    0    0    0  501 -0.00000000000E+00 -0.00000000000E+00 -0.19156767936E+02  0.19156767936E+02  0.00000000000E+00 0.  1.
         25    2    1    2    0    0  0.12003042776E+02  0.52615352961E+01  0.37805637817E+03  0.39842806252E+03  0.12508612689E+03 0.  0.
          5    1    3    3  502    0  0.19881404078E+02 -0.31522685171E+02  0.29213723815E+02  0.47538026544E+02  0.41800000000E+01 0. -1.
         -5    1    3    3    0  502 -0.78783613026E+01  0.36784220467E+02  0.34884265435E+03  0.35089003598E+03  0.41800000000E+01 0. -1.
        -11    1    1    2    0    0  0.22705600310E+01 -0.44324158572E+02  0.16479197611E+03  0.17066394425E+03  0.00000000000E+00 0. -1.
         11    1    1    2    0    0 -0.14273602807E+02  0.39062623276E+02  0.65615471974E+02  0.77685355355E+02  0.00000000000E+00 0.  1.
</event>
<event>
 7    1  0.2810263E-009  0.8012871E+02  0.7561462E-02  0.1328687E+00
         -1   -1    0    0    0  501 -0.00000000000E+00  0.00000000000E+00  0.45214452110E+02  0.45214452110E+02  0.00000000000E+00 0.  1.
          1   -1    0    0  501    0  0.00000000000E+00 -0.00000000000E+00 -0.27098477970E+03  0.27098477970E+03  0.00000000000E+00 0. -1.
         25    2    1    2    0    0 -0.10150769698E+02  0.22035960824E+02 -0.16487756737E+03  0.20838344976E+03  0.12510167152E+03 0.  0.
          5    1    3    3  502    0 -0.32443151824E+02  0.45019375103E+02 -0.18737490815E+02  0.58718550705E+02  0.41800000000E+01 0. -1.
         -5    1    3    3    0  502  0.22292382126E+02 -0.22983414279E+02 -0.14614007656E+03  0.14966489906E+03  0.41800000000E+01 0. -1.
        -11    1    1    2    0    0 -0.98833745686E+01  0.21901961395E+02 -0.53911457420E+02  0.59023912501E+02  0.00000000000E+00 0. -1.
         11    1    1    2    0    0  0.20034144266E+02 -0.43937922219E+02 -0.69813027994E+01  0.48791869550E+02  0.00000000000E+00 0.  1.
</event>
<event>
 7    1  0.2810263E-009  0.1494124E+03  0.7561462E-02  0.1201197E+00
          1   -1    0    0  501    0  0.00000000000E+00  0.00000000000E+00  0.90797910412E+03  0.90797910412E+03  0.00000000000E+00 0. -1.
         -1   -1    0    0    0  501 -0.00000000000E+00 -0.00000000000E+00 -0.39073268135E+02  0.39073268135E+02  0.00000000000E+00 0.  1.
         25    2    1    2    0    0 -0.61799358999E+02  0.11494336084E+03  0.65487131431E+03  0.67936365252E+03  0.12508955623E+03 0.  0.
          5    1    3    3  502    0 -0.11836169349E+02 -0.59273425178E+01  0.26343428300E+01  0.14129418117E+02  0.41800000000E+01 0.  1.
         -5    1    3    3    0  502 -0.49963189650E+02  0.12087070336E+03  0.65223697148E+03  0.66523423440E+03  0.41800000000E+01 0.  1.
        -11    1    1    2    0    0  0.70006793505E+02 -0.44035093693E+02  0.15233313344E+03  0.17333615940E+03  0.00000000000E+00 0.  1.
         11    1    1    2    0    0 -0.82074345060E+01 -0.70908267152E+02  0.61701388237E+02  0.94352560336E+02  0.00000000000E+00 0. -1.
</event>
<event>
 7    1  0.2810263E-009  0.1872155E+03  0.7561462E-02  0.1160997E+00
         -3   -1    0    0    0  501 -0.00000000000E+00  0.00000000000E+00  0.94927515909E+03  0.94927515909E+03  0.00000000000E+00 0.  1.
          3   -1    0    0  501    0  0.00000000000E+00 -0.00000000000E+00 -0.44589302642E+02  0.44589302642E+02  0.00000000000E+00 0. -1.
         25    2    1    2    0    0  0.79387812636E+01  0.17193884671E+03  0.42263037837E+03  0.47316961257E+03  0.12508818602E+03 0.  0.
          5    1    3    3  502    0 -0.18735094698E+02  0.11274286625E+03  0.12890711198E+03  0.17232664791E+03  0.41800000000E+01 0. -1.
         -5    1    3    3    0  502  0.26673875961E+02  0.59195980459E+02  0.29372326639E+03  0.30084296465E+03  0.41800000000E+01 0. -1.
        -11    1    1    2    0    0 -0.49115374358E+02 -0.74641054538E+02  0.25660712330E+03  0.27171827828E+03  0.00000000000E+00 0.  1.
         11    1    1    2    0    0  0.41176593094E+02 -0.97297792168E+02  0.22544835478E+03  0.24897657089E+03  0.00000000000E+00 0. -1.
</event>
<event>
 7    1  0.2810263E-009  0.1922420E+03  0.7561462E-02  0.1156455E+00
         -1   -1    0    0    0  501 -0.00000000000E+00  0.00000000000E+00  0.11714770285E+03  0.11714770285E+03  0.00000000000E+00 0.  1.
          1   -1    0    0  501    0  0.00000000000E+00 -0.00000000000E+00 -0.46812782486E+03  0.46812782486E+03  0.00000000000E+00 0. -1.
         25    2    1    2    0    0  0.16813482919E+03 -0.79400837938E+02 -0.29559797278E+03  0.37094230737E+03  0.12508485134E+03 0.  0.
          5    1    3    3  502    0  0.59560084190E+02 -0.33192702516E+02 -0.22090800791E+03  0.23122927904E+03  0.41800000000E+01 0. -1.
         -5    1    3    3    0  502  0.10857474500E+03 -0.46208135423E+02 -0.74689964866E+02  0.13971302832E+03  0.41800000000E+01 0. -1.
        -11    1    1    2    0    0 -0.60850461438E+02  0.66341909393E+02 -0.56439538490E+02  0.10625181930E+03  0.00000000000E+00 0. -1.
         11    1    1    2    0    0 -0.10728436776E+03  0.13058928546E+02  0.10573892486E+01  0.10808140104E+03  0.00000000000E+00 0.  1.
</event>
<event>
 7    1  0.2810263E-009  0.9807679E+02  0.7561462E-02  0.1284393E+00
          1   -1    0    0  501    0  0.00000000000E+00  0.00000000000E+00  0.19774676875E+03  0.19774676875E+03  0.00000000000E+00 0. -1.
         -1   -1    0    0    0  501 -0.00000000000E+00 -0.00000000000E+00 -0.78389518700E+02  0.78389518700E+02  0.00000000000E+00 0.  1.
         25    2    1    2    0    0  0.43575951015E+02 -0.21930424511E+01  0.11085809060E+03  0.17274696177E+03  0.12509325964E+03 0.  0.
          5    1    3    3  502    0 -0.34544448622E+02 -0.28490289657E+02  0.62796645792E+02  0.77239281833E+02  0.41800000000E+01 0.  1.
         -5    1    3    3    0  502  0.78120399637E+02  0.26297247206E+02  0.48061444806E+02  0.95507679937E+02  0.41800000000E+01 0.  1.
        -11    1    1    2    0    0 -0.42139961200E+01 -0.22030136819E+02  0.41105638774E+02  0.46826896444E+02  0.00000000000E+00 0. -1.
         11    1    1    2    0    0 -0.39361954895E+02  0.24223179270E+02 -0.32606479323E+02  0.56562429234E+02  0.00000000000E+00 0.  1.
</event>
<event>
 7    1  0.2810263E-009  0.1407493E+03  0.7561462E-02  0.1212324E+00
         -4   -1    0    0    0  501 -0.00000000000E+00  0.00000000000E+00  0.42115482124E+02  0.42115482124E+02  0.00000000000E+00 0.  1.
          4   -1    0    0  501    0  0.00000000000E+00 -0.00000000000E+00 -0.61732931655E+03  0.61732931655E+03  0.00000000000E+00 0. -1.
         25    2    1    2    0    0 -0.10573863380E+03  0.40443904546E+02 -0.22560055573E+03  0.28171615930E+03  0.12510801561E+03 0.  0.
          5    1    3    3  502    0 -0.97346583861E+02  0.63310562175E+02 -0.98782464028E+02  0.15251240039E+03  0.41800000000E+01 0. -1.
         -5    1    3    3    0  502 -0.83920499351E+01 -0.22866657629E+02 -0.12681809170E+03  0.12920375891E+03  0.41800000000E+01 0. -1.
        -11    1    1    2    0    0  0.45703185961E+02 -0.61801627398E+02 -0.15618268870E+03  0.17407255557E+03  0.00000000000E+00 0.  1.
         11    1    1    2    0    0  0.60035447836E+02  0.21357722853E+02 -0.19343059000E+03  0.20365608381E+03  0.00000000000E+00 0. -1.
</event>
<event>
 7    1  0.3418351E-009  0.1336046E+03  0.7561462E-02  0.1222203E+00
         -1   -1    0    0    0  501 -0.00000000000E+00  0.00000000000E+00  0.99172508261E+02  0.99172508261E+02  0.00000000000E+00 0.  1.
          1   -1    0    0  501    0  0.00000000000E+00 -0.00000000000E+00 -0.35608073078E+03  0.35608073078E+03  0.00000000000E+00 0. -1.
         25    2    1    2    0    0 -0.78959076933E+02 -0.92116953948E+02 -0.24790803588E+03  0.30302816032E+03  0.12509037796E+03 0.  0.
          5    1    3    3  502    0 -0.17883774725E+02 -0.26655749935E+02 -0.19762874351E+03  0.20026220579E+03  0.41800000000E+01 0. -1.
         -5    1    3    3    0  502 -0.61075302208E+02 -0.65461204013E+02 -0.50279292362E+02  0.10276595453E+03  0.41800000000E+01 0. -1.
        -11    1    1    2    0    0  0.30118022490E+02  0.91541151185E+02 -0.27146139278E+02  0.10011888192E+03  0.00000000000E+00 0.  1.
         11    1    1    2    0    0  0.48841054443E+02  0.57580276229E+00  0.18145952638E+02  0.52106196801E+02  0.00000000000E+00 0. -1.
</event>
<event>
 7    1  0.2810263E-009  0.1655745E+03  0.7561462E-02  0.1182543E+00
          2   -1    0    0  501    0  0.00000000000E+00  0.00000000000E+00  0.11191949899E+04  0.11191949899E+04  0.00000000000E+00 0. -1.
         -2   -1    0    0    0  501 -0.00000000000E+00 -0.00000000000E+00 -0.40491856434E+02  0.40491856434E+02  0.00000000000E+00 0.  1.
         25    2    1    2    0    0 -0.44938061129E+02 -0.14484066084E+03  0.28788639324E+03  0.34860272265E+03  0.12508811475E+03 0.  0.
          5    1    3    3  502    0 -0.16365151337E+02 -0.46177254071E+02  0.72139728028E+01  0.49695782270E+02  0.41800000000E+01 0. -1.
         -5    1    3    3    0  502 -0.28572909791E+02 -0.98663406771E+02  0.28067242044E+03  0.29890694038E+03  0.41800000000E+01 0. -1.
        -11    1    1    2    0    0 -0.28559158590E+02  0.63044178000E+02  0.26476704819E+03  0.27366363245E+03  0.00000000000E+00 0. -1.
         11    1    1    2    0    0  0.73497219719E+02  0.81796482842E+02  0.52604969202E+03  0.53742049122E+03  0.00000000000E+00 0.  1.
</event>
<event>
 7    1  0.2810263E-009  0.1554359E+03  0.7561462E-02  0.1193948E+00
          2   -1    0    0  501    0  0.00000000000E+00  0.00000000000E+00  0.44224110140E+03  0.44224110140E+03  0.00000000000E+00 0.  1.
         -2   -1    0    0    0  501 -0.00000000000E+00 -0.00000000000E+00 -0.65223602269E+02  0.65223602269E+02  0.00000000000E+00 0. -1.
         25    2    1    2    0    0 -0.78574143108E+02 -0.10569660671E+03  0.19347214537E+03  0.26537665543E+03  0.12509048558E+03 0.  0.
          5    1    3    3  502    0  0.16683418312E+02 -0.32410169758E+02  0.11758196408E+03  0.12317364258E+03  0.41800000000E+01 0. -1.
         -5    1    3    3    0  502 -0.95257561420E+02 -0.73286436949E+02  0.75890181286E+02  0.14220301285E+03  0.41800000000E+01 0. -1.
        -11    1    1    2    0    0 -0.15756045881E+02  0.65302083040E+01  0.41334580127E+02  0.44715144153E+02  0.00000000000E+00 0. -1.
         11    1    1    2    0    0  0.94330188989E+02  0.99166398402E+02  0.14221077364E+03  0.19737290408E+03  0.00000000000E+00 0.  1.
</event>
<event>
 7    1  0.2810263E-009  0.2635637E+03  0.7561462E-02  0.1105021E+00
         -1   -1    0    0    0  501 -0.00000000000E+00  0.00000000000E+00  0.24054935076E+03  0.24054935076E+03  0.00000000000E+00 0.  1.
          1   -1    0    0  501    0  0.00000000000E+00 -0.00000000000E+00 -0.32188166166E+03  0.32188166166E+03  0.00000000000E+00 0. -1.
         25    2    1    2    0    0  0.61308318131E+02  0.23378407799E+03 -0.57364169001E+02  0.27812045590E+03  0.12508651050E+03 0.  0.
          5    1    3    3  502    0 -0.21751090459E+02  0.10531394443E+03  0.15311821034E+02  0.10870170694E+03  0.41800000000E+01 0.  1.
         -5    1    3    3    0  502  0.83059408590E+02  0.12847013356E+03 -0.72675990035E+02  0.16941874896E+03  0.41800000000E+01 0.  1.
        -11    1    1    2    0    0 -0.93811681783E+02 -0.19044945529E+03  0.21769791411E+02  0.21341403534E+03  0.00000000000E+00 0.  1.
         11    1    1    2    0    0  0.32503363652E+02 -0.43334622696E+02 -0.45737933308E+02  0.70896521186E+02  0.00000000000E+00 0. -1.
</event>
<event>
 7    1  0.2877161E-009  0.2307130E+03  0.7561462E-02  0.1126139E+00
         -2   -1    0    0    0  501 -0.00000000000E+00  0.00000000000E+00  0.42690279365E+02  0.42690279365E+02  0.00000000000E+00 0.  1.
          2   -1    0    0  501    0  0.00000000000E+00 -0.00000000000E+00 -0.13978322909E+04  0.13978322909E+04  0.00000000000E+00 0. -1.
         25    2    1    2    0    0  0.15199396443E+03 -0.14849095327E+03 -0.84732344089E+03  0.88247292026E+03  0.12509881327E+03 0.  0.
          5    1    3    3  502    0 -0.16622700419E+02 -0.35276321824E+01 -0.13786751181E+03  0.13897367222E+03  0.41800000000E+01 0. -1.
         -5    1    3    3    0  502  0.16861666484E+03 -0.14496332109E+03 -0.70945592908E+03  0.74349924803E+03  0.41800000000E+01 0. -1.
        -11    1    1    2    0    0 -0.46630522819E+02  0.89122711829E+02 -0.15223988243E+03  0.18246710724E+03  0.00000000000E+00 0.  1.
         11    1    1    2    0    0 -0.10536344161E+03  0.59368241443E+02 -0.35557868821E+03  0.37558254276E+03  0.00000000000E+00 0. -1.
</event>
<event>
 7    1  0.2810263E-009  0.1080333E+03  0.7561462E-02  0.1264256E+00
         -3   -1    0    0    0  501 -0.00000000000E+00  0.00000000000E+00  0.17583133844E+03  0.17583133844E+03  0.00000000000E+00 0.  1.
          3   -1    0    0  501    0  0.00000000000E+00 -0.00000000000E+00 -0.80602852170E+02  0.80602852170E+02  0.00000000000E+00 0. -1.
         25    2    1    2    0    0  0.64471728772E+01 -0.22562883771E+02  0.66012804167E+02  0.14337228647E+03  0.12508905808E+03 0.  0.
          5    1    3    3  502    0 -0.50776128827E+02 -0.41805451947E+02  0.26129877464E+02  0.70895373385E+02  0.41800000000E+01 0.  1.
         -5    1    3    3    0  502  0.57223301705E+02  0.19242568176E+02  0.39882926703E+02  0.72476913085E+02  0.41800000000E+01 0.  1.
        -11    1    1    2    0    0  0.14229003753E+02 -0.29977611825E+02 -0.19499729224E+02  0.38488455391E+02  0.00000000000E+00 0. -1.
         11    1    1    2    0    0 -0.20676176630E+02  0.52540495596E+02  0.48715411329E+02  0.74573448750E+02  0.00000000000E+00 0.  1.
</event>
<event>
 7    1  0.2810263E-009  0.1264263E+03  0.7561462E-02  0.1232857E+00
         -1   -1    0    0    0  501 -0.00000000000E+00  0.00000000000E+00  0.28120444357E+03  0.28120444357E+03  0.00000000000E+00 0.  1.
          1   -1    0    0  501    0  0.00000000000E+00 -0.00000000000E+00 -0.95712670020E+02  0.95712670020E+02  0.00000000000E+00 0. -1.
         25    2    1    2    0    0  0.55010243980E+02  0.76369371718E+02  0.72323921142E+01  0.15669536892E+03  0.12507087297E+03 0.  0.
          5    1    3    3  502    0  0.19388303966E+02 -0.28067360093E+02 -0.24025034595E+02  0.41932776208E+02  0.41800000000E+01 0. -1.
         -5    1    3    3    0  502  0.35621940015E+02  0.10443673181E+03  0.31257426710E+02  0.11476259271E+03  0.41800000000E+01 0. -1.
        -11    1    1    2    0    0 -0.22538963571E+02  0.25881980304E+01  0.12706863683E+00  0.22687436928E+02  0.00000000000E+00 0. -1.
         11    1    1    2    0    0 -0.32471280409E+02 -0.78957569749E+02  0.17813231280E+03  0.19753430774E+03  0.00000000000E+00 0.  1.
</event>
<event>
 7    1  0.2810263E-009  0.1194318E+03  0.7561462E-02  0.1244037E+00
         -2   -1    0    0    0  501 -0.00000000000E+00  0.00000000000E+00  0.27535906530E+02  0.27535906530E+02  0.00000000000E+00 0.  1.
          2   -1    0    0  501    0  0.00000000000E+00 -0.00000000000E+00 -0.61781055598E+03  0.61781055598E+03  0.00000000000E+00 0. -1.
         25    2    1    2    0    0  0.74566915358E+01 -0.55716850224E+02 -0.43422605119E+03  0.45536731903E+03  0.12508861684E+03 0.  0.
          5    1    3    3  502    0 -0.57752310853E+02 -0.15446990494E+02 -0.20896562496E+03  0.21738915276E+03  0.41800000000E+01 0.  1.
         -5    1    3    3    0  502  0.65209002389E+02 -0.40269859729E+02 -0.22526042623E+03  0.23797816626E+03  0.41800000000E+01 0.  1.
        -11    1    1    2    0    0  0.39036208095E+02  0.22702264940E+02 -0.38548126022E+02  0.59373195936E+02  0.00000000000E+00 0.  1.
         11    1    1    2    0    0 -0.46492899631E+02  0.33014585284E+02 -0.11750047225E+03  0.13060594755E+03  0.00000000000E+00 0. -1.
</event>
<event>
 7    1  0.2810263E-009  0.8904818E+02  0.7561462E-02  0.1305173E+00
         -2   -1    0    0    0  501 -0.00000000000E+00  0.00000000000E+00  0.17483077431E+03  0.17483077431E+03  0.00000000000E+00 0.  1.
          2   -1    0    0  501    0  0.00000000000E+00 -0.00000000000E+00 -0.75351089450E+02  0.75351089450E+02  0.00000000000E+00 0. -1.
         25    2    1    2    0    0 -0.31878070544E+02  0.32889076497E+01  0.79851744021E+02  0.15182112257E+03  0.12508526668E+03 0.  0.
          5    1    3    3  502    0 -0.72672420232E+02  0.27376496452E+02  0.31229050068E+02  0.83806200180E+02  0.41800000000E+01 0.  1.
         -5    1    3    3    0  502  0.40794349689E+02 -0.24087588802E+02  0.48622693954E+02  0.68014922393E+02  0.41800000000E+01 0.  1.
        -11    1    1    2    0    0  0.32210132868E+02  0.14252421888E+02 -0.29657604741E+02  0.46045604655E+02  0.00000000000E+00 0. -1.
         11    1    1    2    0    0 -0.33206232392E+00 -0.17541329538E+02  0.49285545578E+02  0.52315136531E+02  0.00000000000E+00 0.  1.
</event>
<event>
 7    1  0.2810263E-009  0.1506949E+03  0.7561462E-02  0.1199622E+00
          2   -1    0    0  501    0  0.00000000000E+00  0.00000000000E+00  0.72523859311E+03  0.72523859311E+03  0.00000000000E+00 0. -1.
         -2   -1    0    0    0  501 -0.00000000000E+00 -0.00000000000E+00 -0.33611570202E+02  0.33611570202E+02  0.00000000000E+00 0.  1.
         25    2    1    2    0    0  0.11001934248E+03  0.12287563648E+02  0.41713354346E+03  0.44933737397E+03  0.12509373539E+03 0.  0.
          5    1    3    3  502    0  0.12204052067E+03  0.46354482909E+02  0.32110561624E+03  0.34665388495E+03  0.41800000000E+01 0. -1.
         -5    1    3    3    0  502 -0.12021178185E+02 -0.34066919261E+02  0.96027927218E+02  0.10268348903E+03  0.41800000000E+01 0. -1.
        -11    1    1    2    0    0 -0.10077733460E+03  0.18326414002E+02  0.15479569631E+03  0.18561690714E+03  0.00000000000E+00 0. -1.
         11    1    1    2    0    0 -0.92420078844E+01 -0.30613977650E+02  0.11969778314E+03  0.12389588220E+03  0.00000000000E+00 0.  1.
</event>
<event>
 7    1  0.2810263E-009  0.6362092E+02  0.7561462E-02  0.1383235E+00
          1   -1    0    0  501    0  0.00000000000E+00  0.00000000000E+00  0.21779918594E+03  0.21779918594E+03  0.00000000000E+00 0. -1.
         -1   -1    0    0    0  501 -0.00000000000E+00 -0.00000000000E+00 -0.78025299594E+02  0.78025299594E+02  0.00000000000E+00 0.  1.
         25    2    1    2    0    0  0.40447318498E+01 -0.11011153749E+02  0.15799757742E+03  0.20186234091E+03  0.12509022682E+03 0.  0.
          5    1    3    3  502    0  0.99320056137E+01  0.11071994732E+02 -0.18351570733E+02  0.23989296597E+02  0.41800000000E+01 0.  1.
         -5    1    3    3    0  502 -0.58872737639E+01 -0.22083148481E+02  0.17634914815E+03  0.17787304432E+03  0.41800000000E+01 0.  1.
        -11    1    1    2    0    0  0.41895747233E+02  0.64958150074E+01  0.42713801596E+01  0.42610960295E+02  0.00000000000E+00 0. -1.
         11    1    1    2    0    0 -0.45940479083E+02  0.45153387414E+01 -0.22495071231E+02  0.51351184329E+02  0.00000000000E+00 0.  1.
</event>
<event>
 7    1  0.2810263E-009  0.1039824E+03  0.7561462E-02  0.1272138E+00
         -2   -1    0    0    0  501 -0.00000000000E+00  0.00000000000E+00  0.12838175672E+02  0.12838175672E+02  0.00000000000E+00 0.  1.
          2   -1    0    0  501    0  0.00000000000E+00 -0.00000000000E+00 -0.10711544450E+04  0.10711544450E+04  0.00000000000E+00 0. -1.
         25    2    1    2    0    0  0.36472525850E+01 -0.15044117913E+02 -0.79683455525E+03  0.80674200468E+03  0.12509086997E+03 0.  0.
          5    1    3    3  502    0 -0.56819643668E+02  0.10038462758E+02 -0.45576269752E+03  0.45941958109E+03  0.41800000000E+01 0.  1.
         -5    1    3    3    0  502  0.60466896253E+02 -0.25082580670E+02 -0.34107185773E+03  0.34732242359E+03  0.41800000000E+01 0.  1.
        -11    1    1    2    0    0 -0.24295236554E+02  0.43223357763E+02 -0.95196656027E+02  0.10733555093E+03  0.00000000000E+00 0.  1.
         11    1    1    2    0    0  0.20647983969E+02 -0.28179239850E+02 -0.16628505810E+03  0.16991506510E+03  0.00000000000E+00 0. -1.
</event>
<event>
 7    1  0.2810263E-009  0.7780029E+02  0.7561462E-02  0.1335412E+00
          2   -1    0    0  501    0  0.00000000000E+00  0.00000000000E+00  0.97648243017E+03  0.97648243017E+03  0.00000000000E+00 0. -1.
         -2   -1    0    0    0  501 -0.00000000000E+00 -0.00000000000E+00 -0.14341316170E+02  0.14341316170E+02  0.00000000000E+00 0.  1.
         25    2    1    2    0    0  0.44167919798E+02 -0.45776824210E+01  0.59852401378E+03  0.61306637999E+03  0.12509049081E+03 0.  0.
          5    1    3    3  502    0  0.53717147471E+01 -0.11893894292E+02  0.55087589620E+03  0.55104631879E+03  0.41800000000E+01 0. -1.
         -5    1    3    3    0  502  0.38796205051E+02  0.73162118711E+01  0.47648117584E+02  0.62020061205E+02  0.41800000000E+01 0. -1.
        -11    1    1    2    0    0 -0.33822060844E+02  0.47350801965E+02  0.19551082888E+03  0.20398655459E+03  0.00000000000E+00 0. -1.
         11    1    1    2    0    0 -0.10345858954E+02 -0.42773119544E+02  0.16810627134E+03  0.17377081175E+03  0.00000000000E+00 0.  1.
</event>
<event>
 7    1  0.2820303E-009  0.1143408E+03  0.7561462E-02  0.1252736E+00
          2   -1    0    0  501    0  0.00000000000E+00  0.00000000000E+00  0.12375709813E+03  0.12375709813E+03  0.00000000000E+00 0. -1.
         -2   -1    0    0    0  501 -0.00000000000E+00 -0.00000000000E+00 -0.11901359145E+03  0.11901359145E+03  0.00000000000E+00 0.  1.
         25    2    1    2    0    0 -0.35096698658E+02 -0.33633527611E+02 -0.21646791647E+02  0.13593648324E+03  0.12508857442E+03 0.  0.
          5    1    3    3  502    0  0.42243991726E+02 -0.22676455213E+01  0.14464268296E+02  0.44904170302E+02  0.41800000000E+01 0.  1.
         -5    1    3    3    0  502 -0.77340690384E+02 -0.31365882089E+02 -0.36111059943E+02  0.91032312936E+02  0.41800000000E+01 0.  1.
        -11    1    1    2    0    0  0.63238166098E+02  0.65947563225E+01  0.23185944841E+02  0.67676764850E+02  0.00000000000E+00 0. -1.
         11    1    1    2    0    0 -0.28141467440E+02  0.27038771288E+02  0.32043534854E+01  0.39157441486E+02  0.00000000000E+00 0.  1.
</event>
<event>
 7    1  0.2810263E-009  0.1511066E+03  0.7561462E-02  0.1199120E+00
         -2   -1    0    0    0  501 -0.00000000000E+00  0.00000000000E+00  0.17823210297E+02  0.17823210297E+02  0.00000000000E+00 0.  1.
          2   -1    0    0  501    0  0.00000000000E+00 -0.00000000000E+00 -0.15547777438E+04  0.15547777438E+04  0.00000000000E+00 0. -1.
         25    2    1    2    0    0  0.10129929746E+03  0.29079576509E+02 -0.11265454245E+04  0.11383561667E+04  0.12507197670E+03 0.  0.
          5    1    3    3  502    0  0.11153897737E+03  0.62530358732E+02 -0.91390409872E+03  0.92281588808E+03  0.41800000000E+01 0.  1.
         -5    1    3    3    0  502 -0.10239679914E+02 -0.33450782223E+02 -0.21264132580E+03  0.21554027863E+03  0.41800000000E+01 0.  1.
        -11    1    1    2    0    0 -0.17453613361E+02  0.31218368737E+02 -0.71458024683E+02  0.79909101218E+02  0.00000000000E+00 0.  1.
         11    1    1    2    0    0 -0.83845684094E+02 -0.60297945245E+02 -0.33895108432E+03  0.35433568619E+03  0.00000000000E+00 0. -1.
</event>
<event>
 7    1  0.2810263E-009  0.1069433E+03  0.7561462E-02  0.1266338E+00
         -1   -1    0    0    0  501 -0.00000000000E+00  0.00000000000E+00  0.58473058096E+03  0.58473058096E+03  0.00000000000E+00 0.  1.
          1   -1    0    0  501    0  0.00000000000E+00 -0.00000000000E+00 -0.27844791897E+02  0.27844791897E+02  0.00000000000E+00 0. -1.
         25    2    1    2    0    0  0.26722417150E+02 -0.61777862866E+02  0.29648471880E+03  0.32875796427E+03  0.12509204079E+03 0.  0.
          5    1    3    3  502    0  0.38888799405E+02  0.97075069630E+01  0.21850876551E+03  0.22219389599E+03  0.41800000000E+01 0.  1.
         -5    1    3    3    0  502 -0.12166382254E+02 -0.71485369829E+02  0.77975953291E+02  0.10656406828E+03  0.41800000000E+01 0.  1.
        -11    1    1    2    0    0  0.26030079480E+02  0.28418766937E+02  0.43505155495E+02  0.58119617227E+02  0.00000000000E+00 0. -1.
         11    1    1    2    0    0 -0.52752496631E+02  0.33359095929E+02  0.21689591477E+03  0.22569779136E+03  0.00000000000E+00 0.  1.
</event>
<event>
 7    1  0.2810263E-009  0.1691761E+03  0.7561462E-02  0.1178710E+00
          3   -1    0    0  501    0  0.00000000000E+00  0.00000000000E+00  0.19177674313E+03  0.19177674313E+03  0.00000000000E+00 0. -1.
         -3   -1    0    0    0  501 -0.00000000000E+00 -0.00000000000E+00 -0.18775779770E+03  0.18775779770E+03  0.00000000000E+00 0.  1.
         25    2    1    2    0    0  0.12936291274E+03 -0.69972994548E+02 -0.46067673128E+02  0.19849295475E+03  0.12508492882E+03 0.  0.
          5    1    3    3  502    0  0.80443973648E+02  0.77554617986E+01 -0.65993635993E+02  0.10442227959E+03  0.41800000000E+01 0.  1.
         -5    1    3    3    0  502  0.48918939092E+02 -0.77728456347E+02  0.19925962865E+02  0.94070675155E+02  0.41800000000E+01 0.  1.
        -11    1    1    2    0    0  0.10136894218E+02  0.76655663118E+01 -0.10697537679E+02  0.16611888624E+02  0.00000000000E+00 0. -1.
         11    1    1    2    0    0 -0.13949980696E+03  0.62307428236E+02  0.60784156242E+02  0.16442969745E+03  0.00000000000E+00 0.  1.
</event>
<event>
 7    1  0.2810263E-009  0.1097584E+03  0.7561462E-02  0.1261018E+00
         -1   -1    0    0    0  501 -0.00000000000E+00  0.00000000000E+00  0.19792475602E+03  0.19792475602E+03  0.00000000000E+00 0.  1.
          1   -1    0    0  501    0  0.00000000000E+00 -0.00000000000E+00 -0.72618927129E+02  0.72618927129E+02  0.00000000000E+00 0. -1.
         25    2    1    2    0    0  0.56450726952E+01  0.42022522839E+02  0.10768875943E+03  0.17041875827E+03  0.12509166636E+03 0.  0.
          5    1    3    3  502    0  0.61642880226E+02  0.12155993685E+02  0.29240597181E+02  0.69426924089E+02  0.41800000000E+01 0.  1.
         -5    1    3    3    0  502 -0.55997807531E+02  0.29866529153E+02  0.78448162246E+02  0.10099183418E+03  0.41800000000E+01 0.  1.
        -11    1    1    2    0    0 -0.19690116792E+02 -0.63946133673E+02  0.27412429275E+02  0.72306638629E+02  0.00000000000E+00 0.  1.
         11    1    1    2    0    0  0.14045044097E+02  0.21923610835E+02 -0.97953598134E+01  0.27818286245E+02  0.00000000000E+00 0. -1.
</event>
<event>
 7    1  0.2810263E-009  0.1282423E+03  0.7561462E-02  0.1230087E+00
          2   -1    0    0  501    0  0.00000000000E+00  0.00000000000E+00  0.11199208722E+03  0.11199208722E+03  0.00000000000E+00 0. -1.
         -2   -1    0    0    0  501 -0.00000000000E+00 -0.00000000000E+00 -0.17447973107E+03  0.17447973107E+03  0.00000000000E+00 0.  1.
         25    2    1    2    0    0 -0.56177829998E+02  0.52232936229E+02 -0.78017296590E+02  0.16618114217E+03  0.12508095472E+03 0.  0.
          5    1    3    3  502    0 -0.48665650342E+01 -0.39240054465E+02 -0.96522880758E+01  0.40915820837E+02  0.41800000000E+01 0. -1.
         -5    1    3    3    0  502 -0.51311264964E+02  0.91472990695E+02 -0.68365008514E+02  0.12526532133E+03  0.41800000000E+01 0. -1.
        -11    1    1    2    0    0  0.46891796180E+02  0.10738971028E+02 -0.14028678246E+02  0.50109578536E+02  0.00000000000E+00 0.  1.
         11    1    1    2    0    0  0.92860338182E+01 -0.62971907258E+02  0.29558330988E+02  0.70181097587E+02  0.00000000000E+00 0. -1.
</event>
<event>
 7    1  0.2810263E-009  0.3008198E+03  0.7561462E-02  0.1084832E+00
         -1   -1    0    0    0  501 -0.00000000000E+00  0.00000000000E+00  0.18878977206E+03  0.18878977206E+03  0.00000000000E+00 0.  1.
          1   -1    0    0  501    0  0.00000000000E+00 -0.00000000000E+00 -0.52839351133E+03  0.52839351133E+03  0.00000000000E+00 0. -1.
         25    2    1    2    0    0  0.10168157540E+03  0.27332215459E+03 -0.11238046989E+03  0.33663171706E+03  0.12508956772E+03 0.  0.
          5    1    3    3  502    0  0.12217790171E+03  0.24994888509E+03 -0.75677201623E+02  0.28835116797E+03  0.41800000000E+01 0. -1.
         -5    1    3    3    0  502 -0.20496326310E+02  0.23373269503E+02 -0.36703268263E+02  0.48280549092E+02  0.41800000000E+01 0. -1.
        -11    1    1    2    0    0 -0.37280889906E+02 -0.12211243237E+03 -0.45526928691E+02  0.13555077324E+03  0.00000000000E+00 0.  1.
         11    1    1    2    0    0 -0.64400685499E+02 -0.15120972223E+03 -0.18169634070E+03  0.24500079308E+03  0.00000000000E+00 0. -1.
</event>
<event>
 7    1  0.2810263E-009  0.9050043E+02  0.7561462E-02  0.1301644E+00
         -2   -1    0    0    0  501 -0.00000000000E+00  0.00000000000E+00  0.14311942112E+03  0.14311942112E+03  0.00000000000E+00 0.  1.
          2   -1    0    0  501    0  0.00000000000E+00 -0.00000000000E+00 -0.10209235603E+03  0.10209235603E+03  0.00000000000E+00 0. -1.
         25    2    1    2    0    0  0.26374201160E+02 -0.43324176698E+02  0.38823768222E+02  0.14045321731E+03  0.12508892237E+03 0.  0.
          5    1    3    3  502    0  0.48432890538E+02 -0.60640405859E+02  0.65412111442E+02  0.10158356379E+03  0.41800000000E+01 0.  1.
         -5    1    3    3    0  502 -0.22058689378E+02  0.17316229161E+02 -0.26588343220E+02  0.38869653518E+02  0.41800000000E+01 0.  1.
        -11    1    1    2    0    0 -0.37237663103E+01  0.50905500188E+02  0.36652911415E+02  0.62838461949E+02  0.00000000000E+00 0.  1.
         11    1    1    2    0    0 -0.22650434850E+02 -0.75813234899E+01 -0.34449614551E+02  0.41920097894E+02  0.00000000000E+00 0. -1.
</event>
<event>
 7    1  0.2810263E-009  0.1157909E+03  0.7561462E-02  0.1250207E+00
          2   -1    0    0  501    0  0.00000000000E+00  0.00000000000E+00  0.64627789180E+03  0.64627789180E+03  0.00000000000E+00 0. -1.
         -2   -1    0    0    0  501 -0.00000000000E+00 -0.00000000000E+00 -0.28749702010E+02  0.28749702010E+02  0.00000000000E+00 0.  1.
         25    2    1    2    0    0  0.49445795730E+02 -0.48686702143E+02  0.45379419474E+03  0.47580673554E+03  0.12509035425E+03 0.  0.
          5    1    3    3  502    0 -0.20831425823E+02  0.23161304615E+02  0.20583374270E+03  0.20821958689E+03  0.41800000000E+01 0.  1.
         -5    1    3    3    0  502  0.70277221553E+02 -0.71848006758E+02  0.24796045204E+03  0.26758714865E+03  0.41800000000E+01 0.  1.
        -11    1    1    2    0    0  0.44418199013E+01  0.45353036947E+02  0.28855321333E+02  0.53937531401E+02  0.00000000000E+00 0.  1.
         11    1    1    2    0    0 -0.53887615631E+02  0.33336651959E+01  0.13487867372E+03  0.14528332687E+03  0.00000000000E+00 0. -1.
</event>
<event>
 7    1  0.2810263E-009  0.1030552E+03  0.7561462E-02  0.1273999E+00
          1   -1    0    0  501    0  0.00000000000E+00  0.00000000000E+00  0.69780833798E+02  0.69780833798E+02  0.00000000000E+00 0.  1.
         -1   -1    0    0    0  501 -0.00000000000E+00 -0.00000000000E+00 -0.25216606657E+03  0.25216606657E+03  0.00000000000E+00 0. -1.
         25    2    1    2    0    0  0.47319969442E+02  0.33218201613E+02 -0.34889265822E+02  0.14215054909E+03  0.12508752660E+03 0.  0.
          5    1    3    3  502    0  0.64633099668E+02  0.49610490205E+02 -0.64430621731E+02  0.10395872127E+03  0.41800000000E+01 0. -1.
         -5    1    3    3    0  502 -0.17313130226E+02 -0.16392288592E+02  0.29541355909E+02  0.38191827823E+02  0.41800000000E+01 0. -1.
        -11    1    1    2    0    0 -0.40796399170E+02 -0.60110581021E+02 -0.12293789116E+03  0.14279829557E+03  0.00000000000E+00 0.  1.
         11    1    1    2    0    0 -0.65235702722E+01  0.26892379408E+02 -0.24558075790E+02  0.36998055703E+02  0.00000000000E+00 0. -1.
</event>
<event>
 7    1  0.2810263E-009  0.9285952E+02  0.7561462E-02  0.1296071E+00
          1   -1    0    0  501    0  0.00000000000E+00  0.00000000000E+00  0.12914375476E+03  0.12914375476E+03  0.00000000000E+00 0. -1.
         -1   -1    0    0    0  501 -0.00000000000E+00 -0.00000000000E+00 -0.14898949200E+03  0.14898949200E+03  0.00000000000E+00 0.  1.
         25    2    1    2    0    0  0.57522139500E+02 -0.35450819312E+02  0.43201574229E+02  0.14859773937E+03  0.12509738210E+03 0.  0.
          5    1    3    3  502    0  0.33395804886E+02  0.68653776882E+00 -0.41423749488E+02  0.53377434743E+02  0.41800000000E+01 0. -1.
         -5    1    3    3    0  502  0.24126334614E+02 -0.36137357081E+02  0.84625323717E+02  0.95220304625E+02  0.41800000000E+01 0. -1.
        -11    1    1    2    0    0 -0.77336991666E+02  0.12935627714E+02 -0.27658155042E+02  0.83146342582E+02  0.00000000000E+00 0. -1.
         11    1    1    2    0    0  0.19814852167E+02  0.22515191597E+02 -0.35389156424E+02  0.46389164806E+02  0.00000000000E+00 0.  1.
</event>
<event>
 7    1  0.2810263E-009  0.1821582E+03  0.7561462E-02  0.1165731E+00
          2   -1    0    0  501    0  0.00000000000E+00  0.00000000000E+00  0.16859707530E+04  0.16859707530E+04  0.00000000000E+00 0. -1.
         -2   -1    0    0    0  501 -0.00000000000E+00 -0.00000000000E+00 -0.22871712163E+02  0.22871712163E+02  0.00000000000E+00 0.  1.
         25    2    1    2    0    0  0.88542331006E+02  0.13034328326E+03  0.10616991831E+04  0.10805923821E+04  0.12508247282E+03 0.  0.
          5    1    3    3  502    0  0.10847989661E+03  0.66450354843E+02  0.55108439198E+03  0.56559262469E+03  0.41800000000E+01 0.  1.
         -5    1    3    3    0  502 -0.19937565606E+02  0.63892928415E+02  0.51061479116E+03  0.51499975745E+03  0.41800000000E+01 0.  1.
        -11    1    1    2    0    0 -0.54857593334E+02 -0.26736269143E+02  0.11940335209E+03  0.13409453429E+03  0.00000000000E+00 0. -1.
         11    1    1    2    0    0 -0.33684737672E+02 -0.10360701411E+03  0.48199650559E+03  0.49415554871E+03  0.00000000000E+00 0.  1.
</event>
<event>
 7    1  0.2810263E-009  0.2031565E+03  0.7561462E-02  0.1147103E+00
          2   -1    0    0  501    0  0.00000000000E+00  0.00000000000E+00  0.11751668463E+04  0.11751668463E+04  0.00000000000E+00 0. -1.
         -2   -1    0    0    0  501 -0.00000000000E+00 -0.00000000000E+00 -0.61263358775E+02  0.61263358775E+02  0.00000000000E+00 0.  1.
         25    2    1    2    0    0  0.14992910659E+03 -0.84738698124E+02  0.16923573882E+03  0.27193286752E+03  0.12508942874E+03 0.  0.
          5    1    3    3  502    0  0.13304105338E+02  0.30817237638E+02  0.25010685714E+02  0.42067899334E+02  0.41800000000E+01 0. -1.
         -5    1    3    3    0  502  0.13662500125E+03 -0.11555593576E+03  0.14422505311E+03  0.22986496819E+03  0.41800000000E+01 0. -1.
        -11    1    1    2    0    0 -0.48743841306E+02  0.78141867652E+02  0.39936538862E+03  0.40984732178E+03  0.00000000000E+00 0. -1.
         11    1    1    2    0    0 -0.10118526528E+03  0.65968304713E+01  0.54530236011E+03  0.55465001580E+03  0.00000000000E+00 0.  1.
</event>
<event>
 7    1  0.2810263E-009  0.5790475E+02  0.7561462E-02  0.1406841E+00
         -1   -1    0    0    0  501 -0.00000000000E+00  0.00000000000E+00  0.11286048557E+03  0.11286048557E+03  0.00000000000E+00 0. -1.
          1   -1    0    0  501    0  0.00000000000E+00 -0.00000000000E+00 -0.10330733252E+03  0.10330733252E+03  0.00000000000E+00 0.  1.
         25    2    1    2    0    0  0.25256468109E+02  0.16619379360E+02 -0.82714534787E+01  0.12895972024E+03  0.12509236408E+03 0.  0.
          5    1    3    3  502    0  0.23622553252E+02  0.71224132411E+01 -0.65842830183E+02  0.70437947720E+02  0.41800000000E+01 0. -1.
         -5    1    3    3    0  502  0.16339148571E+01  0.94969661189E+01  0.57571376704E+02  0.58521772519E+02  0.41800000000E+01 0. -1.
        -11    1    1    2    0    0 -0.26958770754E+02  0.26102688448E+02 -0.63993381313E+01  0.38066746556E+02  0.00000000000E+00 0.  1.
         11    1    1    2    0    0  0.17023026452E+01 -0.42722067808E+02  0.24223944663E+02  0.49141351295E+02  0.00000000000E+00 0. -1.
</event>
<event>
 7    1  0.2810263E-009  0.1273083E+03  0.7561462E-02  0.1231505E+00
         -1   -1    0    0    0  501 -0.00000000000E+00  0.00000000000E+00  0.27974069996E+02  0.27974069996E+02  0.00000000000E+00 0.  1.
          1   -1    0    0  501    0  0.00000000000E+00 -0.00000000000E+00 -0.88603951511E+03  0.88603951511E+03  0.00000000000E+00 0. -1.
         25    2    1    2    0    0 -0.10556166595E+03 -0.38615752851E+02 -0.51471695495E+03  0.54149396901E+03  0.12509089924E+03 0.  0.
          5    1    3    3  502    0 -0.59972850697E+02 -0.20981275196E+02 -0.72203143778E+02  0.96269014231E+02  0.41800000000E+01 0.  1.
         -5    1    3    3    0  502 -0.45588815255E+02 -0.17634477655E+02 -0.44251381117E+03  0.44522495478E+03  0.41800000000E+01 0.  1.
        -11    1    1    2    0    0  0.94320455564E+02 -0.73085271199E+01 -0.19347961865E+03  0.21536974193E+03  0.00000000000E+00 0.  1.
         11    1    1    2    0    0  0.11241210388E+02  0.45924279971E+02 -0.14986887151E+03  0.15714987416E+03  0.00000000000E+00 0. -1.
</event>
<event>
 7    1  0.2810263E-009  0.1280297E+03  0.7561462E-02  0.1230409E+00
         -1   -1    0    0    0  501 -0.00000000000E+00  0.00000000000E+00  0.83059984169E+03  0.83059984169E+03  0.00000000000E+00 0.  1.
          1   -1    0    0  501    0  0.00000000000E+00 -0.00000000000E+00 -0.24023130663E+02  0.24023130663E+02  0.00000000000E+00 0. -1.
         25    2    1    2    0    0  0.31035086877E+02  0.83064373929E+02  0.39707274809E+03  0.42564971692E+03  0.12509215562E+03 0.  0.
          5    1    3    3  502    0  0.10756013003E+02 -0.21749149053E+02  0.14797887814E+02  0.28725723385E+02  0.41800000000E+01 0.  1.
         -5    1    3    3    0  502  0.20279073875E+02  0.10481352298E+03  0.38227486028E+03  0.39692399353E+03  0.41800000000E+01 0.  1.
        -11    1    1    2    0    0 -0.51014948709E+02 -0.14285675970E+02  0.22257461081E+03  0.22879261987E+03  0.00000000000E+00 0. -1.
         11    1    1    2    0    0  0.19979861831E+02 -0.68778697960E+02  0.18692935212E+03  0.20018063557E+03  0.00000000000E+00 0.  1.
</event>
<event>
 7    1  0.2810263E-009  0.9190772E+02  0.7561462E-02  0.1298297E+00
          1   -1    0    0  501    0  0.00000000000E+00  0.00000000000E+00  0.12266762855E+03  0.12266762855E+03  0.00000000000E+00 0. -1.
         -1   -1    0    0    0  501 -0.00000000000E+00 -0.00000000000E+00 -0.12242304578E+03  0.12242304578E+03  0.00000000000E+00 0.  1.
         25    2    1    2    0    0  0.28670965499E+02  0.44192566292E+02 -0.22909684740E+02  0.13764938758E+03  0.12508993992E+03 0.  0.
          5    1    3    3  502    0  0.48757542008E+02  0.64728598974E+02  0.22090609703E+02  0.84098495022E+02  0.41800000000E+01 0. -1.
         -5    1    3    3    0  502 -0.20086576509E+02 -0.20536032682E+02 -0.45000294443E+02  0.53550892561E+02  0.41800000000E+01 0. -1.
        -11    1    1    2    0    0 -0.43720682998E+02 -0.35016906646E+02 -0.21059935703E+02  0.59843151360E+02  0.00000000000E+00 0.  1.
         11    1    1    2    0    0  0.15049717499E+02 -0.91756596459E+01  0.44214203212E+02  0.47598135388E+02  0.00000000000E+00 0. -1.
</event>
<event>
 7    1  0.2810263E-009  0.1442824E+03  0.7561462E-02  0.1207680E+00
          2   -1    0    0  501    0  0.00000000000E+00  0.00000000000E+00  0.90986985588E+03  0.90986985588E+03  0.00000000000E+00 0.  1.
         -2   -1    0    0    0  501 -0.00000000000E+00 -0.00000000000E+00 -0.32221329905E+02  0.32221329905E+02  0.00000000000E+00 0. -1.
         25    2    1    2    0    0 -0.97913484875E+02 -0.86871041786E+02  0.48861165840E+03  0.52107821643E+03  0.12509007351E+03 0.  0.
          5    1    3    3  502    0 -0.64635875796E+02 -0.73959948114E+02  0.47082391678E+03  0.48097869327E+03  0.41800000000E+01 0.  1.
         -5    1    3    3    0  502 -0.33277609079E+02 -0.12911093673E+02  0.17787741622E+02  0.40099523162E+02  0.41800000000E+01 0.  1.
        -11    1    1    2    0    0  0.87445117734E+02  0.10298260689E+03  0.37030168420E+03  0.39417686798E+03  0.00000000000E+00 0.  1.
         11    1    1    2    0    0  0.10468367141E+02 -0.16111565100E+02  0.18735183380E+02  0.26836101372E+02  0.00000000000E+00 0. -1.
</event>
<event>
 7    1  0.2810263E-009  0.2172973E+03  0.7561462E-02  0.1135914E+00
          1   -1    0    0  501    0  0.00000000000E+00  0.00000000000E+00  0.44963326801E+03  0.44963326801E+03  0.00000000000E+00 0. -1.
         -1   -1    0    0    0  501 -0.00000000000E+00 -0.00000000000E+00 -0.17572070925E+03  0.17572070925E+03  0.00000000000E+00 0.  1.
         25    2    1    2    0    0 -0.20028052108E+03  0.64543490204E+02 -0.27889494769E+02  0.24638018045E+03  0.12508884901E+03 0.  0.
          5    1    3    3  502    0 -0.29604514453E+02 -0.87362323006E+01 -0.50383113941E+02  0.59234108427E+02  0.41800000000E+01 0.  1.
         -5    1    3    3    0  502 -0.17067600663E+03  0.73279722504E+02  0.22493619172E+02  0.18714607202E+03  0.41800000000E+01 0.  1.
        -11    1    1    2    0    0  0.12919234223E+03 -0.68934921999E+02  0.25402836220E+03  0.29321168729E+03  0.00000000000E+00 0.  1.
         11    1    1    2    0    0  0.71088178855E+02  0.43914317951E+01  0.47773691328E+02  0.85762109519E+02  0.00000000000E+00 0. -1.
</event>
<event>
 7    1  0.2810263E-009  0.1278368E+03  0.7561462E-02  0.1230701E+00
          2   -1    0    0  501    0  0.00000000000E+00  0.00000000000E+00  0.86883209376E+02  0.86883209376E+02  0.00000000000E+00 0. -1.
         -2   -1    0    0    0  501 -0.00000000000E+00 -0.00000000000E+00 -0.22341559745E+03  0.22341559745E+03  0.00000000000E+00 0.  1.
         25    2    1    2    0    0 -0.60868403439E+02  0.60131730651E+02 -0.77811064898E+02  0.17035689908E+03  0.12508446617E+03 0.  0.
          5    1    3    3  502    0  0.10769188797E+02  0.63738558948E+02 -0.74084657544E+02  0.98410305393E+02  0.41800000000E+01 0. -1.
         -5    1    3    3    0  502 -0.71637592236E+02 -0.36068282971E+01 -0.37264073537E+01  0.71946593690E+02  0.41800000000E+01 0. -1.
        -11    1    1    2    0    0 -0.14897576053E+01  0.18573001315E+02 -0.30321724731E+02  0.35589081840E+02  0.00000000000E+00 0.  1.
         11    1    1    2    0    0  0.62358161045E+02 -0.78704731965E+02 -0.28399598449E+02  0.10435282591E+03  0.00000000000E+00 0. -1.
</event>
<event>
 7    1  0.2810263E-009  0.2680588E+03  0.7561462E-02  0.1102396E+00
         -1   -1    0    0    0  501 -0.00000000000E+00  0.00000000000E+00  0.48841173791E+03  0.48841173791E+03  0.00000000000E+00 0.  1.
          1   -1    0    0  501    0  0.00000000000E+00 -0.00000000000E+00 -0.31023665284E+03  0.31023665284E+03  0.00000000000E+00 0. -1.
         25    2    1    2    0    0  0.25907201213E+03 -0.31703330405E+01  0.36596004104E+03  0.46551393244E+03  0.12509241057E+03 0.  0.
          5    1    3    3  502    0 -0.57402214708E+01 -0.64044856321E+01  0.60335862914E+02  0.61088921519E+02  0.41800000000E+01 0. -1.
         -5    1    3    3    0  502  0.26481223360E+03  0.32341525916E+01  0.30562417812E+03  0.40442501092E+03  0.41800000000E+01 0. -1.
        -11    1    1    2    0    0 -0.19865401452E+03 -0.13205034264E+02 -0.93483404092E+02  0.21994757843E+03  0.00000000000E+00 0.  1.
         11    1    1    2    0    0 -0.60417997611E+02  0.16375367305E+02 -0.94301551881E+02  0.11318687988E+03  0.00000000000E+00 0. -1.
</event>
<event>
 7    1  0.2810263E-009  0.1226301E+03  0.7561462E-02  0.1238820E+00
          2   -1    0    0  501    0  0.00000000000E+00  0.00000000000E+00  0.27254935051E+03  0.27254935051E+03  0.00000000000E+00 0. -1.
         -2   -1    0    0    0  501 -0.00000000000E+00 -0.00000000000E+00 -0.13018611695E+03  0.13018611695E+03  0.00000000000E+00 0.  1.
         25    2    1    2    0    0 -0.67622298876E+02 -0.13196131534E+02  0.22156579132E+03  0.26360074032E+03  0.12508811783E+03 0.  0.
          5    1    3    3  502    0  0.35230616674E+02  0.10669486961E+02  0.61729700245E+02  0.71993489953E+02  0.41800000000E+01 0.  1.
         -5    1    3    3    0  502 -0.10285291555E+03 -0.23865618494E+02  0.15983609108E+03  0.19160725037E+03  0.41800000000E+01 0.  1.
        -11    1    1    2    0    0  0.52904910564E+02 -0.27245433395E+02 -0.14204003733E+02  0.61180036979E+02  0.00000000000E+00 0.  1.
         11    1    1    2    0    0  0.14717388312E+02  0.40441564929E+02 -0.64998554024E+02  0.77954690159E+02  0.00000000000E+00 0. -1.
</event>
<event>
 7    1  0.2810263E-009  0.8516573E+02  0.7561462E-02  0.1315000E+00
          2   -1    0    0  501    0  0.00000000000E+00  0.00000000000E+00  0.13345618315E+02  0.13345618315E+02  0.00000000000E+00 0. -1.
         -2   -1    0    0    0  501 -0.00000000000E+00 -0.00000000000E+00 -0.12391670461E+04  0.12391670461E+04  0.00000000000E+00 0.  1.
         25    2    1    2    0    0  0.78971431565E+01  0.37696988104E+02 -0.97309516310E+03  0.98185792082E+03  0.12508937780E+03 0.  0.
          5    1    3    3  502    0  0.48923463760E+02  0.18777121647E+02 -0.83173865656E+03  0.83339831463E+03  0.41800000000E+01 0. -1.
         -5    1    3    3    0  502 -0.41026320603E+02  0.18919866457E+02 -0.14135650654E+03  0.14845960619E+03  0.41800000000E+01 0. -1.
        -11    1    1    2    0    0 -0.25714227477E+02  0.49362018994E+01 -0.18863679805E+02  0.32271132607E+02  0.00000000000E+00 0. -1.
         11    1    1    2    0    0  0.17817084320E+02 -0.42633190003E+02 -0.23386258485E+03  0.23838361097E+03  0.00000000000E+00 0.  1.
</event>
<event>
 7    1  0.3232172E-009  0.1771718E+03  0.7561462E-02  0.1170569E+00
          2   -1    0    0  501    0  0.00000000000E+00  0.00000000000E+00  0.17409573275E+03  0.17409573275E+03  0.00000000000E+00 0. -1.
         -2   -1    0    0    0  501 -0.00000000000E+00 -0.00000000000E+00 -0.22793219486E+03  0.22793219486E+03  0.00000000000E+00 0.  1.
         25    2    1    2    0    0 -0.80449791946E+02  0.13784355439E+03 -0.76322648897E+02  0.21666863116E+03  0.12508850660E+03 0.  0.
          5    1    3    3  502    0 -0.10184516670E+03  0.13946422683E+03 -0.45063498526E+02  0.17852422761E+03  0.41800000000E+01 0.  1.
         -5    1    3    3    0  502  0.21395374751E+02 -0.16206724433E+01 -0.31259150371E+02  0.38144403545E+02  0.41800000000E+01 0.  1.
        -11    1    1    2    0    0  0.40784772282E+02 -0.76439020897E+02 -0.33902904329E+02  0.93036167632E+02  0.00000000000E+00 0.  1.
         11    1    1    2    0    0  0.39665019664E+02 -0.61404533490E+02  0.56389091116E+02  0.92323128819E+02  0.00000000000E+00 0. -1.
</event>
<event>
 7    1  0.2810263E-009  0.9292983E+02  0.7561462E-02  0.1295908E+00
          2   -1    0    0  501    0  0.00000000000E+00  0.00000000000E+00  0.18369660655E+03  0.18369660655E+03  0.00000000000E+00 0. -1.
         -2   -1    0    0    0  501 -0.00000000000E+00 -0.00000000000E+00 -0.10940047664E+03  0.10940047664E+03  0.00000000000E+00 0.  1.
         25    2    1    2    0    0  0.11556461828E+02  0.57238545927E+02  0.11258368000E+03  0.17813630365E+03  0.12509058608E+03 0.  0.
          5    1    3    3  502    0  0.17533224396E+02 -0.17192231445E+02 -0.15843265889E+02  0.29520641148E+02  0.41800000000E+01 0.  1.
         -5    1    3    3    0  502 -0.59767625679E+01  0.74430777372E+02  0.12842694589E+03  0.14861566250E+03  0.41800000000E+01 0.  1.
        -11    1    1    2    0    0  0.13693743388E+02  0.82422034741E+01 -0.41740004568E+02  0.44695419311E+02  0.00000000000E+00 0.  1.
         11    1    1    2    0    0 -0.25250205217E+02 -0.65480749401E+02  0.34524544835E+01  0.70265360225E+02  0.00000000000E+00 0. -1.
</event>
<event>
 7    1  0.2810263E-009  0.2751485E+03  0.7561462E-02  0.1098369E+00
          2   -1    0    0  501    0  0.00000000000E+00  0.00000000000E+00  0.23143966930E+04  0.23143966930E+04  0.00000000000E+00 0. -1.
         -2   -1    0    0    0  501 -0.00000000000E+00 -0.00000000000E+00 -0.39014340426E+02  0.39014340426E+02  0.00000000000E+00 0.  1.
         25    2    1    2    0    0  0.25379137904E+01  0.26734531523E+03  0.14871172717E+04  0.15161288722E+04  0.12509603800E+03 0.  0.
          5    1    3    3  502    0  0.95840027629E+01  0.20397843549E+03  0.78591282351E+03  0.81201939250E+03  0.41800000000E+01 0.  1.
         -5    1    3    3    0  502 -0.70460889724E+01  0.63366879743E+02  0.70120444817E+03  0.70410947967E+03  0.41800000000E+01 0.  1.
        -11    1    1    2    0    0 -0.42880354248E+02 -0.82705844889E+02  0.24893131942E+03  0.26579274510E+03  0.00000000000E+00 0.  1.
         11    1    1    2    0    0  0.40342440457E+02 -0.18463947034E+03  0.53933376147E+03  0.57148941615E+03  0.00000000000E+00 0. -1.
</event>
<event>
 7    1  0.2810263E-009  0.1939035E+03  0.7561462E-02  0.1154987E+00
          1   -1    0    0  501    0  0.00000000000E+00  0.00000000000E+00  0.11508444622E+04  0.11508444622E+04  0.00000000000E+00 0. -1.
         -1   -1    0    0    0  501 -0.00000000000E+00 -0.00000000000E+00 -0.42591471658E+02  0.42591471658E+02  0.00000000000E+00 0.  1.
         25    2    1    2    0    0 -0.10366070765E+03  0.15480952624E+03  0.71294206122E+03  0.74742561825E+03  0.12508853040E+03 0.  0.
          5    1    3    3  502    0 -0.41211185632E+01  0.14960636622E+02  0.21813802776E+01  0.16218356460E+02  0.41800000000E+01 0. -1.
         -5    1    3    3    0  502 -0.99539589086E+02  0.13984888962E+03  0.71076068094E+03  0.73120726179E+03  0.41800000000E+01 0. -1.
        -11    1    1    2    0    0  0.85923501433E+02 -0.15994486643E+03  0.31477719854E+03  0.36338669914E+03  0.00000000000E+00 0.  1.
         11    1    1    2    0    0  0.17737206216E+02  0.51353401923E+01  0.80533730788E+02  0.82623616466E+02  0.00000000000E+00 0. -1.
</event>
<event>
 7    1  0.2810263E-009  0.9238933E+02  0.7561462E-02  0.1297167E+00
         -2   -1    0    0    0  501 -0.00000000000E+00  0.00000000000E+00  0.97267140098E+02  0.97267140098E+02  0.00000000000E+00 0. -1.
          2   -1    0    0  501    0  0.00000000000E+00 -0.00000000000E+00 -0.15445344351E+03  0.15445344351E+03  0.00000000000E+00 0.  1.
         25    2    1    2    0    0 -0.24072323963E+02  0.26858802385E+02  0.18230550682E+02  0.13145625483E+03  0.12509005520E+03 0.  0.
          5    1    3    3  502    0 -0.53321832250E+02  0.53032904983E+02 -0.18476492673E+02  0.77553594287E+02  0.41800000000E+01 0.  1.
         -5    1    3    3    0  502  0.29249508287E+02 -0.26174102598E+02  0.36707043355E+02  0.53902660543E+02  0.41800000000E+01 0.  1.
        -11    1    1    2    0    0 -0.14149201334E+02 -0.28403683539E+02  0.41275051502E+01  0.32000084933E+02  0.00000000000E+00 0. -1.
         11    1    1    2    0    0  0.38221525297E+02  0.15448811538E+01 -0.79544359240E+02  0.88264243841E+02  0.00000000000E+00 0.  1.
</event>
<event>
 7    1  0.2810263E-009  0.8050440E+02  0.7561462E-02  0.1327626E+00
         -2   -1    0    0    0  501 -0.00000000000E+00  0.00000000000E+00  0.20172435643E+02  0.20172435643E+02  0.00000000000E+00 0. -1.
          2   -1    0    0  501    0  0.00000000000E+00 -0.00000000000E+00 -0.70126347717E+03  0.70126347717E+03  0.00000000000E+00 0.  1.
         25    2    1    2    0    0  0.37981969413E+01 -0.12095723392E+02 -0.52462343209E+03  0.53948110417E+03  0.12509749570E+03 0.  0.
          5    1    3    3  502    0  0.58387074570E+02 -0.18742706992E+02 -0.37527520298E+03  0.38027528176E+03  0.41800000000E+01 0.  1.
         -5    1    3    3    0  502 -0.54588877629E+02  0.66469836001E+01 -0.14934822911E+03  0.15920582241E+03  0.41800000000E+01 0.  1.
        -11    1    1    2    0    0 -0.15394323142E+02  0.23523760163E+02 -0.16225748914E+03  0.16467496853E+03  0.00000000000E+00 0.  1.
         11    1    1    2    0    0  0.11596126200E+02 -0.11428036772E+02  0.57898797085E+01  0.17279840113E+02  0.00000000000E+00 0. -1.
</event>
<event>
 7    1  0.2810263E-009  0.1119263E+03  0.7561462E-02  0.1257044E+00
          1   -1    0    0  501    0  0.00000000000E+00  0.00000000000E+00  0.44245656781E+03  0.44245656781E+03  0.00000000000E+00 0. -1.
         -1   -1    0    0    0  501 -0.00000000000E+00 -0.00000000000E+00 -0.52409606036E+02  0.52409606036E+02  0.00000000000E+00 0.  1.
         25    2    1    2    0    0 -0.63456144411E+02 -0.85489689492E+02  0.19522394860E+03  0.25513187233E+03  0.12507882673E+03 0.  0.
          5    1    3    3  502    0 -0.66843318447E+02 -0.87066668986E+02  0.21127797826E+03  0.23812704711E+03  0.41800000000E+01 0.  1.
         -5    1    3    3    0  502  0.33871740364E+01  0.15769794940E+01 -0.16054029657E+02  0.17004825212E+02  0.41800000000E+01 0.  1.
        -11    1    1    2    0    0  0.14982541113E+02  0.79637954563E+01 -0.68535581595E+01  0.18299449055E+02  0.00000000000E+00 0.  1.
         11    1    1    2    0    0  0.48473603298E+02  0.77525894035E+02  0.20167657133E+03  0.22143485246E+03  0.00000000000E+00 0. -1.
</event>
<event>
 7    1  0.2810263E-009  0.3218910E+03  0.7561462E-02  0.1074782E+00
          2   -1    0    0  501    0  0.00000000000E+00  0.00000000000E+00  0.97421379361E+03  0.97421379361E+03  0.00000000000E+00 0. -1.
         -2   -1    0    0    0  501 -0.00000000000E+00 -0.00000000000E+00 -0.16111949372E+03  0.16111949372E+03  0.00000000000E+00 0.  1.
         25    2    1    2    0    0  0.24151029691E+03  0.20534111817E+03  0.71165583550E+03  0.78904582611E+03  0.12508832549E+03 0.  0.
          5    1    3    3  502    0  0.11848598613E+03  0.12957938366E+03  0.52090379248E+03  0.54971627136E+03  0.41800000000E+01 0.  1.
         -5    1    3    3    0  502  0.12302431078E+03  0.75761734512E+02  0.19075204301E+03  0.23932955474E+03  0.41800000000E+01 0.  1.
        -11    1    1    2    0    0 -0.47940153494E+02 -0.10742869397E+02 -0.98499731169E+01  0.50106781280E+02  0.00000000000E+00 0.  1.
         11    1    1    2    0    0 -0.19357014341E+03 -0.19459824877E+03  0.11128843751E+03  0.29618067994E+03  0.00000000000E+00 0. -1.
</event>
<event>
 7    1  0.2810263E-009  0.1297310E+03  0.7561462E-02  0.1227855E+00
          2   -1    0    0  501    0  0.00000000000E+00  0.00000000000E+00  0.58064639738E+03  0.58064639738E+03  0.00000000000E+00 0. -1.
         -2   -1    0    0    0  501 -0.00000000000E+00 -0.00000000000E+00 -0.31548643653E+02  0.31548643653E+02  0.00000000000E+00 0.  1.
         25    2    1    2    0    0  0.51984462862E+02  0.55124705054E+02  0.24773969494E+03  0.28768661966E+03  0.12509003634E+03 0.  0.
          5    1    3    3  502    0  0.77013236772E+02 -0.86360778165E+01  0.13355156713E+03  0.15446395683E+03  0.41800000000E+01 0.  1.
         -5    1    3    3    0  502 -0.25028773910E+02  0.63760782870E+02  0.11418812781E+03  0.13322266282E+03  0.41800000000E+01 0.  1.
        -11    1    1    2    0    0 -0.11412942543E+02 -0.69314074273E+02  0.12915935675E+03  0.14702664924E+03  0.00000000000E+00 0. -1.
         11    1    1    2    0    0 -0.40571520319E+02  0.14189369220E+02  0.17219870203E+03  0.17748177214E+03  0.00000000000E+00 0.  1.
</event>
<event>
 7    1  0.2810263E-009  0.1638624E+03  0.7561462E-02  0.1184404E+00
         -1   -1    0    0    0  501 -0.00000000000E+00  0.00000000000E+00  0.25456151408E+03  0.25456151408E+03  0.00000000000E+00 0.  1.
          1   -1    0    0  501    0  0.00000000000E+00 -0.00000000000E+00 -0.13421812407E+03  0.13421812407E+03  0.00000000000E+00 0. -1.
         25    2    1    2    0    0  0.22275358382E+00 -0.12792903160E+03  0.65763056917E+02  0.19062801116E+03  0.12509345402E+03 0.  0.
          5    1    3    3  502    0  0.61195290871E+02 -0.64761385240E+02  0.46727673598E+02  0.10069681486E+03  0.41800000000E+01 0. -1.
         -5    1    3    3    0  502 -0.60972537287E+02 -0.63167646360E+02  0.19035383319E+02  0.89931196300E+02  0.41800000000E+01 0. -1.
        -11    1    1    2    0    0  0.78241632221E+01 -0.98722755547E+01 -0.32559695459E+02  0.34911504166E+02  0.00000000000E+00 0. -1.
         11    1    1    2    0    0 -0.80469168059E+01  0.13780130715E+03  0.87140028546E+02  0.16324012282E+03  0.00000000000E+00 0.  1.
</event>
<event>
 7    1  0.2810263E-009  0.1164938E+03  0.7561462E-02  0.1248996E+00
         -1   -1    0    0    0  501 -0.00000000000E+00  0.00000000000E+00  0.78763411945E+02  0.78763411945E+02  0.00000000000E+00 0.  1.
          1   -1    0    0  501    0  0.00000000000E+00 -0.00000000000E+00 -0.25331591357E+03  0.25331591357E+03  0.00000000000E+00 0. -1.
         25    2    1    2    0    0 -0.55866631435E+02 -0.71043361749E+02 -0.84033340596E+02  0.17571881606E+03  0.12508900923E+03 0.  0.
          5    1    3    3  502    0  0.11267897836E+02 -0.20033928149E+02 -0.88156615825E+02  0.91199699081E+02  0.41800000000E+01 0.  1.
         -5    1    3    3    0  502 -0.67134529271E+02 -0.51009433599E+02  0.41232752296E+01  0.84519116981E+02  0.41800000000E+01 0.  1.
        -11    1    1    2    0    0  0.11806069589E+02  0.79474709759E+02 -0.71792587448E+02  0.10774872799E+03  0.00000000000E+00 0. -1.
         11    1    1    2    0    0  0.44060561846E+02 -0.84313480105E+01 -0.18726573587E+02  0.48611781470E+02  0.00000000000E+00 0.  1.
</event>
<event>
 7    1  0.2810263E-009  0.7708305E+02  0.7561462E-02  0.1337539E+00
         -2   -1    0    0    0  501 -0.00000000000E+00  0.00000000000E+00  0.41615141090E+02  0.41615141090E+02  0.00000000000E+00 0.  1.
          2   -1    0    0  501    0  0.00000000000E+00 -0.00000000000E+00 -0.28241602977E+03  0.28241602977E+03  0.00000000000E+00 0. -1.
         25    2    1    2    0    0 -0.14914325943E+02  0.75915034335E+01 -0.11959228185E+03  0.17386490985E+03  0.12508646991E+03 0.  0.
          5    1    3    3  502    0  0.32785376787E+02  0.44649516781E+02 -0.91671586713E+02  0.10718960999E+03  0.41800000000E+01 0. -1.
         -5    1    3    3    0  502 -0.47699702730E+02 -0.37058013347E+02 -0.27920695138E+02  0.66675299855E+02  0.41800000000E+01 0. -1.
        -11    1    1    2    0    0  0.26067020956E+02 -0.64718493551E+01 -0.13194154806E+03  0.13464748984E+03  0.00000000000E+00 0. -1.
         11    1    1    2    0    0 -0.11152695013E+02 -0.11196540784E+01  0.10732941230E+02  0.15518771174E+02  0.00000000000E+00 0.  1.
</event>
<event>
 7    1  0.3325727E-009  0.9364153E+02  0.7561462E-02  0.1294265E+00
         -1   -1    0    0    0  501 -0.00000000000E+00  0.00000000000E+00  0.84674193633E+02  0.84674193633E+02  0.00000000000E+00 0.  1.
          1   -1    0    0  501    0  0.00000000000E+00 -0.00000000000E+00 -0.22792918679E+03  0.22792918679E+03  0.00000000000E+00 0. -1.
         25    2    1    2    0    0 -0.16024624177E+02  0.47857480478E+02 -0.15762102008E+03  0.20745864391E+03  0.12509027118E+03 0.  0.
          5    1    3    3  502    0  0.35214393463E+02  0.67152059554E+02 -0.11560837831E+03  0.13831927612E+03  0.41800000000E+01 0.  1.
         -5    1    3    3    0  502 -0.51239017640E+02 -0.19294579076E+02 -0.42012641770E+02  0.69139367793E+02  0.41800000000E+01 0.  1.
        -11    1    1    2    0    0  0.22812860109E+02 -0.33240789675E+02  0.51065850625E+02  0.65062260832E+02  0.00000000000E+00 0.  1.
         11    1    1    2    0    0 -0.67882359317E+01 -0.14616690803E+02 -0.36699823693E+02  0.40082475674E+02  0.00000000000E+00 0. -1.
</event>
<event>
 7    1  0.2810263E-009  0.9314375E+02  0.7561462E-02  0.1295412E+00
          1   -1    0    0  501    0  0.00000000000E+00  0.00000000000E+00  0.11228064324E+03  0.11228064324E+03  0.00000000000E+00 0. -1.
         -1   -1    0    0    0  501 -0.00000000000E+00 -0.00000000000E+00 -0.12465096439E+03  0.12465096439E+03  0.00000000000E+00 0.  1.
         25    2    1    2    0    0  0.41244209113E+02 -0.18542690004E+02 -0.16485822541E+02  0.13402382184E+03  0.12508271798E+03 0.  0.
          5    1    3    3  502    0  0.54846150109E+02  0.42837912824E+02 -0.43240497209E+01  0.69852392679E+02  0.41800000000E+01 0.  1.
         -5    1    3    3    0  502 -0.13601940996E+02 -0.61380602828E+02 -0.12161772820E+02  0.64171429161E+02  0.41800000000E+01 0.  1.
        -11    1    1    2    0    0 -0.14426612929E+02 -0.74299806635E+01  0.44824859646E+02  0.47671792661E+02  0.00000000000E+00 0. -1.
         11    1    1    2    0    0 -0.26817596185E+02  0.25972670667E+02 -0.40709358253E+02  0.55235993121E+02  0.00000000000E+00 0.  1.
</event>
<event>
 7    1  0.2810263E-009  0.1119721E+03  0.7561462E-02  0.1256961E+00
         -1   -1    0    0    0  501 -0.00000000000E+00  0.00000000000E+00  0.14643693985E+02  0.14643693985E+02  0.00000000000E+00 0.  1.
          1   -1    0    0  501    0  0.00000000000E+00 -0.00000000000E+00 -0.94320946032E+03  0.94320946032E+03  0.00000000000E+00 0. -1.
         25    2    1    2    0    0  0.28311471948E+02  0.11656772049E+02 -0.38996922103E+03  0.41068002529E+03  0.12507865544E+03 0.  0.
          5    1    3    3  502    0  0.43246764950E+02  0.61501999655E+02 -0.25789599061E+03  0.26866446176E+03  0.41800000000E+01 0.  1.
         -5    1    3    3    0  502 -0.14935293002E+02 -0.49845227606E+02 -0.13207323042E+03  0.14201556353E+03  0.41800000000E+01 0.  1.
        -11    1    1    2    0    0  0.23594757423E+02  0.23852461093E+02 -0.19657589778E+03  0.19941849479E+03  0.00000000000E+00 0. -1.
         11    1    1    2    0    0 -0.51906229372E+02 -0.35509233142E+02 -0.34202064753E+03  0.34775463422E+03  0.00000000000E+00 0.  1.
</event>
<event>
 7    1  0.2810263E-009  0.1787973E+03  0.7561462E-02  0.1168972E+00
         -1   -1    0    0    0  501 -0.00000000000E+00  0.00000000000E+00  0.37367106141E+03  0.37367106141E+03  0.00000000000E+00 0.  1.
          1   -1    0    0  501    0  0.00000000000E+00 -0.00000000000E+00 -0.10561399187E+03  0.10561399187E+03  0.00000000000E+00 0. -1.
         25    2    1    2    0    0  0.34415663557E+02  0.15978093738E+03  0.10984117364E+03  0.23329494789E+03  0.12508822260E+03 0.  0.
          5    1    3    3  502    0 -0.67759509060E+01 -0.93197258562E+01  0.46414066969E+02  0.48005299846E+02  0.41800000000E+01 0. -1.
         -5    1    3    3    0  502  0.41191614463E+02  0.16910066324E+03  0.63427106675E+02  0.18528964804E+03  0.41800000000E+01 0. -1.
        -11    1    1    2    0    0  0.78230151102E+01 -0.84976501408E+02  0.27660786026E+02  0.89706880675E+02  0.00000000000E+00 0. -1.
         11    1    1    2    0    0 -0.42238678667E+02 -0.74804435975E+02  0.13055510986E+03  0.15628322472E+03  0.00000000000E+00 0.  1.
</event>
<event>
 7    1  0.2810263E-009  0.1000767E+03  0.7561462E-02  0.1280135E+00
         -2   -1    0    0    0  501 -0.00000000000E+00  0.00000000000E+00  0.67431651884E+02  0.67431651884E+02  0.00000000000E+00 0. -1.
          2   -1    0    0  501    0  0.00000000000E+00 -0.00000000000E+00 -0.19639967129E+03  0.19639967129E+03  0.00000000000E+00 0.  1.
         25    2    1    2    0    0  0.45849851223E+01 -0.32225514335E+02 -0.48667463865E+02  0.13812427490E+03  0.12510110876E+03 0.  0.
          5    1    3    3  502    0  0.57708386130E+02 -0.83893042939E+01 -0.53893653833E+02  0.79515008519E+02  0.41800000000E+01 0. -1.
         -5    1    3    3    0  502 -0.53123401007E+02 -0.23836210041E+02  0.52261899682E+01  0.58609266377E+02  0.41800000000E+01 0. -1.
        -11    1    1    2    0    0  0.35116902820E+02  0.57282742730E+01 -0.67475556852E+02  0.76282112991E+02  0.00000000000E+00 0.  1.
         11    1    1    2    0    0 -0.39701887942E+02  0.26497240062E+02 -0.12824998694E+02  0.49424935291E+02  0.00000000000E+00 0. -1.
</event>
<event>
 7    1  0.2810263E-009  0.2087576E+03  0.7561462E-02  0.1142554E+00
          1   -1    0    0  501    0  0.00000000000E+00  0.00000000000E+00  0.33267076011E+03  0.33267076011E+03  0.00000000000E+00 0. -1.
         -1   -1    0    0    0  501 -0.00000000000E+00 -0.00000000000E+00 -0.17987162834E+03  0.17987162834E+03  0.00000000000E+00 0.  1.
         25    2    1    2    0    0 -0.90323970270E+02 -0.16389335039E+03  0.19787449758E+03  0.29969998417E+03  0.12508522621E+03 0.  0.
          5    1    3    3  502    0 -0.96050752687E+02 -0.75127137986E+02  0.16403588716E+03  0.20443844705E+03  0.41800000000E+01 0.  1.
         -5    1    3    3    0  502  0.57267824167E+01 -0.88766212402E+02  0.33838610415E+02  0.95261537127E+02  0.41800000000E+01 0.  1.
        -11    1    1    2    0    0 -0.17389352993E+02  0.17181320706E+02 -0.14093384677E+02  0.28217208763E+02  0.00000000000E+00 0. -1.
         11    1    1    2    0    0  0.10771332326E+03  0.14671202968E+03 -0.30981981127E+02  0.18462519551E+03  0.00000000000E+00 0.  1.
</event>
<event>
 7    1  0.2810263E-009  0.1316538E+03  0.7561462E-02  0.1225022E+00
         -2   -1    0    0    0  501 -0.00000000000E+00  0.00000000000E+00  0.10559926462E+02  0.10559926462E+02  0.00000000000E+00 0.  1.
          2   -1    0    0  501    0  0.00000000000E+00 -0.00000000000E+00 -0.16607470367E+04  0.16607470367E+04  0.00000000000E+00 0. -1.
         25    2    1    2    0    0  0.43828059624E+02 -0.60585787186E+02 -0.98886994294E+03  0.99955153026E+03  0.12509181100E+03 0.  0.
          5    1    3    3  502    0 -0.21000165532E+02  0.28181054232E+02 -0.21235030383E+03  0.21527959194E+03  0.41800000000E+01 0.  1.
         -5    1    3    3    0  502  0.64828225157E+02 -0.88766841417E+02 -0.77651963911E+03  0.78427193832E+03  0.41800000000E+01 0.  1.
        -11    1    1    2    0    0  0.28666432334E+02  0.17241470163E+02 -0.17929391178E+03  0.18238788183E+03  0.00000000000E+00 0.  1.
         11    1    1    2    0    0 -0.72494491959E+02  0.43344317023E+02 -0.48202325550E+03  0.48936755105E+03  0.00000000000E+00 0. -1.
</event>
<event>
 7    1  0.2828218E-009  0.1587538E+03  0.7561462E-02  0.1190111E+00
         -2   -1    0    0    0  501 -0.00000000000E+00  0.00000000000E+00  0.20746008021E+03  0.20746008021E+03  0.00000000000E+00 0.  1.
          2   -1    0    0  501    0  0.00000000000E+00 -0.00000000000E+00 -0.15015762749E+03  0.15015762749E+03  0.00000000000E+00 0. -1.
         25    2    1    2    0    0  0.12380283866E+03 -0.47408758661E+02  0.72233750611E+02  0.19606107438E+03  0.12508995524E+03 0.  0.
          5    1    3    3  502    0  0.11984412854E+03  0.88273039470E+01  0.25971643268E+02  0.12301436946E+03  0.41800000000E+01 0.  1.
         -5    1    3    3    0  502  0.39587101221E+01 -0.56236062608E+02  0.46262107343E+02  0.73046704917E+02  0.41800000000E+01 0.  1.
        -11    1    1    2    0    0 -0.63218974050E+02  0.49227899116E+02  0.30578611041E+02  0.85761740797E+02  0.00000000000E+00 0.  1.
         11    1    1    2    0    0 -0.60583864608E+02 -0.18191404553E+01 -0.45509908934E+02  0.75794892533E+02  0.00000000000E+00 0. -1.
</event>
<event>
 7    1  0.2810263E-009  0.2199165E+03  0.7561462E-02  0.1133945E+00
          2   -1    0    0  501    0  0.00000000000E+00  0.00000000000E+00  0.33347044801E+03  0.33347044801E+03  0.00000000000E+00 0. -1.
         -2   -1    0    0    0  501 -0.00000000000E+00 -0.00000000000E+00 -0.23855991592E+03  0.23855991592E+03  0.00000000000E+00 0.  1.
         25    2    1    2    0    0  0.19249863149E+03 -0.84468388370E+02  0.20361334100E+03  0.31827205336E+03  0.12509226818E+03 0.  0.
          5    1    3    3  502    0  0.80292974240E+02 -0.45467289145E+02  0.12499059630E+02  0.93209092830E+02  0.41800000000E+01 0.  1.
         -5    1    3    3    0  502  0.11220565725E+03 -0.39001099226E+02  0.19111428138E+03  0.22506296054E+03  0.41800000000E+01 0.  1.
        -11    1    1    2    0    0 -0.22066260806E+02  0.50092204906E+02 -0.34633820634E+02  0.64773840322E+02  0.00000000000E+00 0. -1.
         11    1    1    2    0    0 -0.17043237068E+03  0.34376183464E+02 -0.74068988286E+02  0.18898447024E+03  0.00000000000E+00 0.  1.
</event>
<event>
 7    1  0.2810263E-009  0.1816396E+03  0.7561462E-02  0.1166226E+00
         -2   -1    0    0    0  501 -0.00000000000E+00  0.00000000000E+00  0.16043828025E+03  0.16043828025E+03  0.00000000000E+00 0.  1.
          2   -1    0    0  501    0  0.00000000000E+00 -0.00000000000E+00 -0.22103987708E+03  0.22103987708E+03  0.00000000000E+00 0. -1.
         25    2    1    2    0    0  0.54199534785E+02  0.14208494263E+03 -0.48521788239E+02  0.20280230295E+03  0.12509472273E+03 0.  0.
          5    1    3    3  502    0  0.43741643679E+02 -0.82090834652E+01 -0.21810323217E+02  0.49738144737E+02  0.41800000000E+01 0. -1.
         -5    1    3    3    0  502  0.10457891106E+02  0.15029402610E+03 -0.26711465022E+02  0.15306415822E+03  0.41800000000E+01 0. -1.
        -11    1    1    2    0    0  0.98899376885E+01 -0.72848304731E+02  0.24492807408E+02  0.77489250767E+02  0.00000000000E+00 0.  1.
         11    1    1    2    0    0 -0.64089472473E+02 -0.69236637901E+02 -0.36572615992E+02  0.10118660361E+03  0.00000000000E+00 0. -1.
</event>
<event>
 7    1  0.2810263E-009  0.8387642E+02  0.7561462E-02  0.1318397E+00
         -2   -1    0    0    0  501 -0.00000000000E+00  0.00000000000E+00  0.38285526116E+03  0.38285526116E+03  0.00000000000E+00 0.  1.
          2   -1    0    0  501    0  0.00000000000E+00 -0.00000000000E+00 -0.30892952591E+02  0.30892952591E+02  0.00000000000E+00 0. -1.
         25    2    1    2    0    0  0.15345537311E+01 -0.72599710582E+01  0.19984433376E+03  0.23588221942E+03  0.12509037402E+03 0.  0.
          5    1    3    3  502    0  0.27793727534E+02  0.27954549075E+02  0.98710797687E+01  0.40851667286E+02  0.41800000000E+01 0.  1.
         -5    1    3    3    0  502 -0.26259173803E+02 -0.35214520134E+02  0.18997325399E+03  0.19503055214E+03  0.41800000000E+01 0.  1.
        -11    1    1    2    0    0 -0.42602674615E+02  0.35118017393E+01  0.40550291170E+02  0.58920681851E+02  0.00000000000E+00 0.  1.
         11    1    1    2    0    0  0.41068120884E+02  0.37481693189E+01  0.11156768364E+03  0.11894531247E+03  0.00000000000E+00 0. -1.
</event>
<event>
 7    1  0.2810263E-009  0.2314895E+03  0.7561462E-02  0.1125596E+00
          1   -1    0    0  501    0  0.00000000000E+00  0.00000000000E+00  0.12926450797E+04  0.12926450797E+04  0.00000000000E+00 0. -1.
         -1   -1    0    0    0  501 -0.00000000000E+00 -0.00000000000E+00 -0.63174228769E+02  0.63174228769E+02  0.00000000000E+00 0.  1.
         25    2    1    2    0    0  0.18577001770E+03  0.10714352731E+03  0.99289081305E+03  0.10234615070E+04  0.12510417571E+03 0.  0.
          5    1    3    3  502    0  0.19110338761E+03  0.11795363552E+03  0.82324467816E+03  0.85333629795E+03  0.41800000000E+01 0.  1.
         -5    1    3    3    0  502 -0.53333699148E+01 -0.10810108207E+02  0.16964613490E+03  0.17012520907E+03  0.41800000000E+01 0.  1.
        -11    1    1    2    0    0 -0.10020618623E+03 -0.96966072684E+02  0.18592499960E+03  0.23240439860E+03  0.00000000000E+00 0. -1.
         11    1    1    2    0    0 -0.85563831461E+02 -0.10177454628E+02  0.50655038256E+02  0.99953402832E+02  0.00000000000E+00 0.  1.
</event>
<event>
 7    1  0.2810263E-009  0.3422074E+03  0.7561462E-02  0.1065860E+00
         -1   -1    0    0    0  501 -0.00000000000E+00  0.00000000000E+00  0.53550559773E+03  0.53550559773E+03  0.00000000000E+00 0.  1.
          1   -1    0    0  501    0  0.00000000000E+00 -0.00000000000E+00 -0.24055701783E+03  0.24055701783E+03  0.00000000000E+00 0. -1.
         25    2    1    2    0    0 -0.27361436514E+03 -0.19674780320E+03  0.86542108718E+02  0.36974622746E+03  0.12509283459E+03 0.  0.
          5    1    3    3  502    0 -0.37040731495E+02 -0.60146979048E+02 -0.24427401893E+02  0.74858835428E+02  0.41800000000E+01 0. -1.
         -5    1    3    3    0  502 -0.23657363365E+03 -0.13660082415E+03  0.11096951061E+03  0.29488739204E+03  0.41800000000E+01 0. -1.
        -11    1    1    2    0    0  0.25661313928E+03  0.16696771011E+03  0.15578445377E+03  0.34350737330E+03  0.00000000000E+00 0.  1.
         11    1    1    2    0    0  0.17001225862E+02  0.29780093085E+02  0.52622017406E+02  0.62809014806E+02  0.00000000000E+00 0. -1.
</event>
<event>
 7    1  0.2810263E-009  0.9200059E+02  0.7561462E-02  0.1298078E+00
         -1   -1    0    0    0  501 -0.00000000000E+00  0.00000000000E+00  0.74127678358E+02  0.74127678358E+02  0.00000000000E+00 0.  1.
          1   -1    0    0  501    0  0.00000000000E+00 -0.00000000000E+00 -0.24391855485E+03  0.24391855485E+03  0.00000000000E+00 0. -1.
         25    2    1    2    0    0 -0.33227627601E+02  0.59335591919E+02 -0.13889069762E+03  0.19890551913E+03  0.12509193401E+03 0.  0.
          5    1    3    3  502    0 -0.24019021927E+02  0.50650425717E+02  0.30928315592E+01  0.56297575851E+02  0.41800000000E+01 0. -1.
         -5    1    3    3    0  502 -0.92086056734E+01  0.86851662019E+01 -0.14198352918E+03  0.14260794328E+03  0.41800000000E+01 0. -1.
        -11    1    1    2    0    0  0.44898403751E+02  0.84401764364E+01 -0.63858514976E+01  0.46128975027E+02  0.00000000000E+00 0. -1.
         11    1    1    2    0    0 -0.11670776151E+02 -0.67775768355E+02 -0.24514327380E+02  0.73011739049E+02  0.00000000000E+00 0.  1.
</event>
<event>
 7    1  0.2810263E-009  0.1073775E+03  0.7561462E-02  0.1265505E+00
          2   -1    0    0  501    0  0.00000000000E+00  0.00000000000E+00  0.41604721447E+03  0.41604721447E+03  0.00000000000E+00 0. -1.
         -2   -1    0    0    0  501 -0.00000000000E+00 -0.00000000000E+00 -0.57861675129E+02  0.57861675129E+02  0.00000000000E+00 0.  1.
         25    2    1    2    0    0 -0.61996897334E+01 -0.48021229589E+02  0.34476350980E+03  0.36993844262E+03  0.12509236186E+03 0.  0.
          5    1    3    3  502    0  0.28331595533E+02 -0.71449271137E+02  0.29491635529E+03  0.30479633638E+03  0.41800000000E+01 0. -1.
         -5    1    3    3    0  502 -0.34531285267E+02  0.23428041548E+02  0.49847154505E+02  0.65142106239E+02  0.41800000000E+01 0. -1.
        -11    1    1    2    0    0 -0.35529601779E+02  0.49514459033E+01 -0.13376254658E+02  0.38285684110E+02  0.00000000000E+00 0.  1.
         11    1    1    2    0    0  0.41729291512E+02  0.43069783685E+02  0.26798284196E+02  0.65684762865E+02  0.00000000000E+00 0. -1.
</event>
<event>
 7    1  0.2810263E-009  0.2859316E+03  0.7561462E-02  0.1092493E+00
         -1   -1    0    0    0  501 -0.00000000000E+00  0.00000000000E+00  0.16814909515E+03  0.16814909515E+03  0.00000000000E+00 0.  1.
          1   -1    0    0  501    0  0.00000000000E+00 -0.00000000000E+00 -0.97870859309E+03  0.97870859309E+03  0.00000000000E+00 0. -1.
         25    2    1    2    0    0  0.28095752164E+03  0.45383879154E+02 -0.31583970587E+02  0.31247805998E+03  0.12509262696E+03 0.  0.
          5    1    3    3  502    0  0.17805246004E+03  0.26960494575E+02 -0.80117773029E+02  0.19714430438E+03  0.41800000000E+01 0.  1.
         -5    1    3    3    0  502  0.10290506159E+03  0.18423384579E+02  0.48533802443E+02  0.11533375560E+03  0.41800000000E+01 0.  1.
        -11    1    1    2    0    0 -0.25831541175E+03 -0.52044992369E+02 -0.75906354845E+03  0.80350046905E+03  0.00000000000E+00 0. -1.
         11    1    1    2    0    0 -0.22642109884E+02  0.66611132144E+01 -0.19911978906E+02  0.30879159205E+02  0.00000000000E+00 0.  1.
</event>
<event>
 7    1  0.2810263E-009  0.1082086E+03  0.7561462E-02  0.1263924E+00
         -1   -1    0    0    0  501 -0.00000000000E+00  0.00000000000E+00  0.50962642507E+02  0.50962642507E+02  0.00000000000E+00 0.  1.
          1   -1    0    0  501    0  0.00000000000E+00 -0.00000000000E+00 -0.34591974166E+03  0.34591974166E+03  0.00000000000E+00 0. -1.
         25    2    1    2    0    0 -0.35640903492E+02  0.10215389352E+02 -0.61960661509E+02  0.14443742449E+03  0.12509363628E+03 0.  0.
          5    1    3    3  502    0 -0.80610960179E+02 -0.39684488873E+01 -0.51884173269E+02  0.96038093085E+02  0.41800000000E+01 0. -1.
         -5    1    3    3    0  502  0.44970056687E+02  0.14183838239E+02 -0.10076488240E+02  0.48399331409E+02  0.41800000000E+01 0. -1.
        -11    1    1    2    0    0 -0.24116154397E+02 -0.14855914040E+02 -0.32157383172E+02  0.42853055636E+02  0.00000000000E+00 0.  1.
         11    1    1    2    0    0  0.59757057889E+02  0.46405246889E+01 -0.20083905448E+03  0.20959190404E+03  0.00000000000E+00 0. -1.
</event>
<event>
 7    1  0.2810263E-009  0.1620786E+03  0.7561462E-02  0.1186370E+00
         -2   -1    0    0    0  501 -0.00000000000E+00  0.00000000000E+00  0.21524243755E+03  0.21524243755E+03  0.00000000000E+00 0.  1.
          2   -1    0    0  501    0  0.00000000000E+00 -0.00000000000E+00 -0.16059312866E+03  0.16059312866E+03  0.00000000000E+00 0. -1.
         25    2    1    2    0    0  0.13273936914E+02 -0.13076045545E+03 -0.45757916251E+02  0.18711650271E+03  0.12507719447E+03 0.  0.
          5    1    3    3  502    0  0.18959492579E+02 -0.15088412087E+03 -0.57667192770E+02  0.16269129605E+03  0.41800000000E+01 0.  1.
         -5    1    3    3    0  502 -0.56855556646E+01  0.20123665421E+02  0.11909276519E+02  0.24425206660E+02  0.41800000000E+01 0.  1.
        -11    1    1    2    0    0  0.13950104415E+02  0.12097204969E+03  0.52185134586E+02  0.13248445377E+03  0.00000000000E+00 0. -1.
         11    1    1    2    0    0 -0.27224041328E+02  0.97884057565E+01  0.48222090557E+02  0.56234609727E+02  0.00000000000E+00 0.  1.
</event>
<event>
 7    1  0.2810263E-009  0.7675617E+02  0.7561462E-02  0.1338517E+00
          2   -1    0    0  501    0  0.00000000000E+00  0.00000000000E+00  0.17155137086E+03  0.17155137086E+03  0.00000000000E+00 0. -1.
         -2   -1    0    0    0  501 -0.00000000000E+00 -0.00000000000E+00 -0.88325613739E+02  0.88325613739E+02  0.00000000000E+00 0.  1.
         25    2    1    2    0    0 -0.31383844413E+02  0.15764384781E+02 -0.32563630483E+01  0.12996590517E+03  0.12508825320E+03 0.  0.
          5    1    3    3  502    0  0.11729466295E+02  0.70761845838E+01 -0.57930010362E+02  0.59674209407E+02  0.41800000000E+01 0. -1.
         -5    1    3    3    0  502 -0.43113310708E+02  0.86882001969E+01  0.54673647313E+02  0.70291695764E+02  0.41800000000E+01 0. -1.
        -11    1    1    2    0    0 -0.10210502412E+02  0.30874899770E+02  0.17872957729E+02  0.37107363330E+02  0.00000000000E+00 0.  1.
         11    1    1    2    0    0  0.41594346824E+02 -0.46639284550E+02  0.68609162443E+02  0.92803716101E+02  0.00000000000E+00 0. -1.
</event>
<event>
 7    1  0.2810263E-009  0.7818096E+02  0.7561462E-02  0.1334294E+00
         -3   -1    0    0    0  501 -0.00000000000E+00  0.00000000000E+00  0.45762049299E+03  0.45762049299E+03  0.00000000000E+00 0.  1.
          3   -1    0    0  501    0  0.00000000000E+00 -0.00000000000E+00 -0.30595047753E+02  0.30595047753E+02  0.00000000000E+00 0. -1.
         25    2    1    2    0    0 -0.85955865591E+01  0.25829301431E+02  0.32157711632E+03  0.34612286136E+03  0.12509259169E+03 0.  0.
          5    1    3    3  502    0  0.19306685060E+02 -0.42288220451E+01  0.29789621726E+03  0.29858040740E+03  0.41800000000E+01 0. -1.
         -5    1    3    3    0  502 -0.27902271620E+02  0.30058123477E+02  0.23680899057E+02  0.47542453961E+02  0.41800000000E+01 0. -1.
        -11    1    1    2    0    0 -0.16022205431E+02 -0.54697482616E+02  0.57661036287E+02  0.81076018508E+02  0.00000000000E+00 0. -1.
         11    1    1    2    0    0  0.24617791990E+02  0.28868181185E+02  0.47787292638E+02  0.61016660881E+02  0.00000000000E+00 0.  1.
</event>
<event>
 7    1  0.4067752E-009  0.1355461E+03  0.7561462E-02  0.1219451E+00
         -2   -1    0    0    0  501 -0.00000000000E+00  0.00000000000E+00  0.35969335552E+02  0.35969335552E+02  0.00000000000E+00 0.  1.
          2   -1    0    0  501    0  0.00000000000E+00 -0.00000000000E+00 -0.94916368332E+03  0.94916368332E+03  0.00000000000E+00 0. -1.
         25    2    1    2    0    0  0.10429513175E+03  0.58830070045E+02 -0.71903752119E+03  0.73959412160E+03  0.12508419637E+03 0.  0.
          5    1    3    3  502    0  0.23987350239E+02 -0.24799673256E+02 -0.52021225550E+02  0.62562745087E+02  0.41800000000E+01 0. -1.
         -5    1    3    3    0  502  0.80307781506E+02  0.83629743301E+02 -0.66701629564E+03  0.67703137652E+03  0.41800000000E+01 0. -1.
        -11    1    1    2    0    0 -0.40051083133E+02 -0.16131243958E+02 -0.78386545330E+01  0.43883377224E+02  0.00000000000E+00 0.  1.
         11    1    1    2    0    0 -0.64244048612E+02 -0.42698826087E+02 -0.18631817204E+03  0.20165552005E+03  0.00000000000E+00 0. -1.
</event>
<event>
 7    1  0.2810263E-009  0.1280918E+03  0.7561462E-02  0.1230315E+00
         -1   -1    0    0    0  501 -0.00000000000E+00  0.00000000000E+00  0.64374525473E+02  0.64374525473E+02  0.00000000000E+00 0.  1.
          1   -1    0    0  501    0  0.00000000000E+00 -0.00000000000E+00 -0.28800188780E+03  0.28800188780E+03  0.00000000000E+00 0. -1.
         25    2    1    2    0    0 -0.48559315430E+01  0.78989549477E+02 -0.12304315064E+03  0.19248484600E+03  0.12509144664E+03 0.  0.
          5    1    3    3  502    0  0.42758505906E+02  0.76040713922E+02 -0.11422858223E+03  0.14379193788E+03  0.41800000000E+01 0. -1.
         -5    1    3    3    0  502 -0.47614437449E+02  0.29488355554E+01 -0.88145684128E+01  0.48692908119E+02  0.41800000000E+01 0. -1.
        -11    1    1    2    0    0  0.40278972280E+02 -0.72189946747E+01 -0.52345770446E+02  0.66442374850E+02  0.00000000000E+00 0.  1.
         11    1    1    2    0    0 -0.35423040737E+02 -0.71770554802E+02 -0.48238441241E+02  0.93449192426E+02  0.00000000000E+00 0. -1.
</event>
<event>
 7    1  0.2810263E-009  0.1690660E+03  0.7561462E-02  0.1178825E+00
         -2   -1    0    0    0  501 -0.00000000000E+00  0.00000000000E+00  0.22595459033E+03  0.22595459033E+03  0.00000000000E+00 0.  1.
          2   -1    0    0  501    0  0.00000000000E+00 -0.00000000000E+00 -0.15845522000E+03  0.15845522000E+03  0.00000000000E+00 0. -1.
         25    2    1    2    0    0  0.15175714909E+03  0.28795159377E+02  0.33629606151E+02  0.20158905902E+03  0.12509118594E+03 0.  0.
          5    1    3    3  502    0  0.49987946713E+02 -0.21647141317E+02 -0.38622459017E+02  0.66907101897E+02  0.41800000000E+01 0. -1.
         -5    1    3    3    0  502  0.10176920238E+03  0.50442300694E+02  0.72252065168E+02  0.13468195712E+03  0.41800000000E+01 0. -1.
        -11    1    1    2    0    0 -0.10872334593E+03 -0.52468190437E+02 -0.40207242872E+01  0.12078842321E+03  0.00000000000E+00 0. -1.
         11    1    1    2    0    0 -0.43033803163E+02  0.23673031060E+02  0.37890488466E+02  0.62032328108E+02  0.00000000000E+00 0.  1.
</event>
<event>
 7    1  0.2810263E-009  0.1677831E+03  0.7561462E-02  0.1180180E+00
          2   -1    0    0  501    0  0.00000000000E+00  0.00000000000E+00  0.37567037112E+03  0.37567037112E+03  0.00000000000E+00 0. -1.
         -2   -1    0    0    0  501 -0.00000000000E+00 -0.00000000000E+00 -0.88420034644E+02  0.88420034644E+02  0.00000000000E+00 0.  1.
         25    2    1    2    0    0 -0.74485573271E+02  0.10898232944E+03  0.18461791469E+03  0.25914604437E+03  0.12509056371E+03 0.  0.
          5    1    3    3  502    0 -0.85719991706E+02  0.12892558131E+03  0.13977017044E+03  0.20862141653E+03  0.41800000000E+01 0. -1.
         -5    1    3    3    0  502  0.11234418435E+02 -0.19943251868E+02  0.44847744257E+02  0.50524627832E+02  0.41800000000E+01 0. -1.
        -11    1    1    2    0    0 -0.18746224051E+02 -0.92780468584E+01 -0.14190575920E+02  0.25275986916E+02  0.00000000000E+00 0.  1.
         11    1    1    2    0    0  0.93231797322E+02 -0.99704282579E+02  0.11682299770E+03  0.17966837448E+03  0.00000000000E+00 0. -1.
</event>
<event>
 7    1  0.2810263E-009  0.1045402E+03  0.7561462E-02  0.1271028E+00
          1   -1    0    0  501    0  0.00000000000E+00  0.00000000000E+00  0.21470963265E+03  0.21470963265E+03  0.00000000000E+00 0. -1.
         -1   -1    0    0    0  501 -0.00000000000E+00 -0.00000000000E+00 -0.73046642090E+02  0.73046642090E+02  0.00000000000E+00 0.  1.
         25    2    1    2    0    0  0.33431972806E+02  0.45871980806E+02  0.48985055627E+02  0.14584415385E+03  0.12509614746E+03 0.  0.
          5    1    3    3  502    0  0.61993552140E+02  0.36006124824E+02 -0.16427628879E+02  0.73668045463E+02  0.41800000000E+01 0. -1.
         -5    1    3    3    0  502 -0.28561579334E+02  0.98658559821E+01  0.65412684506E+02  0.72176108392E+02  0.41800000000E+01 0. -1.
        -11    1    1    2    0    0 -0.64255100170E+02 -0.39058300605E+02  0.72458080798E+02  0.10442433728E+03  0.00000000000E+00 0.  1.
         11    1    1    2    0    0  0.30823127364E+02 -0.68136802012E+01  0.20219854138E+02  0.37487783607E+02  0.00000000000E+00 0. -1.
</event>
<event>
 7    1  0.2810263E-009  0.6083462E+02  0.7561462E-02  0.1394362E+00
         -1   -1    0    0    0  501 -0.00000000000E+00  0.00000000000E+00  0.10729724287E+03  0.10729724287E+03  0.00000000000E+00 0.  1.
          1   -1    0    0  501    0  0.00000000000E+00 -0.00000000000E+00 -0.11174638378E+03  0.11174638378E+03  0.00000000000E+00 0. -1.
         25    2    1    2    0    0 -0.21330445563E+01  0.47318520173E+01  0.16613124797E+02  0.12629723317E+03  0.12509218556E+03 0.  0.
          5    1    3    3  502    0  0.45086350004E+02  0.14509954352E+00  0.50514518856E+02  0.67837961539E+02  0.41800000000E+01 0. -1.
         -5    1    3    3    0  502 -0.47219394560E+02  0.45867524738E+01 -0.33901394059E+02  0.58459271634E+02  0.41800000000E+01 0. -1.
        -11    1    1    2    0    0  0.12778013051E+02  0.55800483027E+01 -0.54455395033E+02  0.56212139301E+02  0.00000000000E+00 0. -1.
         11    1    1    2    0    0 -0.10644968495E+02 -0.10311900320E+02  0.33393129324E+02  0.36534254180E+02  0.00000000000E+00 0.  1.
</event>
<event>
 7    1  0.2810263E-009  0.1079040E+03  0.7561462E-02  0.1264501E+00
          2   -1    0    0  501    0  0.00000000000E+00  0.00000000000E+00  0.13232075240E+04  0.13232075240E+04  0.00000000000E+00 0. -1.
         -2   -1    0    0    0  501 -0.00000000000E+00 -0.00000000000E+00 -0.18996041301E+02  0.18996041301E+02  0.00000000000E+00 0.  1.
         25    2    1    2    0    0 -0.92690639454E+02 -0.17135936463E+02  0.97359100012E+03  0.98610928353E+03  0.12508752376E+03 0.  0.
          5    1    3    3  502    0 -0.10009324646E+03 -0.28394416130E+02  0.43336088503E+03  0.44569499653E+03  0.41800000000E+01 0. -1.
         -5    1    3    3    0  502  0.74026070064E+01  0.11258479667E+02  0.54023011508E+03  0.54041428700E+03  0.41800000000E+01 0. -1.
        -11    1    1    2    0    0  0.25123950467E+02 -0.65704501590E+01  0.10413819686E+02  0.27979123339E+02  0.00000000000E+00 0.  1.
         11    1    1    2    0    0  0.67566688987E+02  0.23706386622E+02  0.32020666290E+03  0.32811515843E+03  0.00000000000E+00 0. -1.
</event>
<event>
 7    1  0.2810263E-009  0.9717960E+02  0.7561462E-02  0.1286341E+00
         -2   -1    0    0    0  501 -0.00000000000E+00  0.00000000000E+00  0.59843145993E+02  0.59843145993E+02  0.00000000000E+00 0.  1.
          2   -1    0    0  501    0  0.00000000000E+00 -0.00000000000E+00 -0.30062871326E+03  0.30062871326E+03  0.00000000000E+00 0. -1.
         25    2    1    2    0    0  0.33605038738E+01  0.38124166602E+02 -0.22564109355E+03  0.26081705985E+03  0.12508753152E+03 0.  0.
          5    1    3    3  502    0  0.26766366270E+02  0.58930625689E+02 -0.48778487648E+02  0.81154607168E+02  0.41800000000E+01 0. -1.
         -5    1    3    3    0  502 -0.23405862397E+02 -0.20806459087E+02 -0.17686260591E+03  0.17966245268E+03  0.41800000000E+01 0. -1.
        -11    1    1    2    0    0  0.43249155189E+02 -0.14244417628E+02 -0.16082605198E+01  0.45562916501E+02  0.00000000000E+00 0.  1.
         11    1    1    2    0    0 -0.46609659063E+02 -0.23879748973E+02 -0.13536213197E+02  0.54091882910E+02  0.00000000000E+00 0. -1.
</event>
<event>
 7    1  0.2810263E-009  0.1002957E+03  0.7561462E-02  0.1279675E+00
         -1   -1    0    0    0  501 -0.00000000000E+00  0.00000000000E+00  0.41979322449E+02  0.41979322449E+02  0.00000000000E+00 0.  1.
          1   -1    0    0  501    0  0.00000000000E+00 -0.00000000000E+00 -0.31559105181E+03  0.31559105181E+03  0.00000000000E+00 0. -1.
         25    2    1    2    0    0 -0.11658852243E+00 -0.13485902752E+02 -0.97996150347E+02  0.15947246753E+03  0.12508532788E+03 0.  0.
          5    1    3    3  502    0  0.27343929547E+02  0.47646478123E+02 -0.25665691310E+02  0.60778922918E+02  0.41800000000E+01 0.  1.
         -5    1    3    3    0  502 -0.27460518070E+02 -0.61132380875E+02 -0.72330459036E+02  0.98693544614E+02  0.41800000000E+01 0.  1.
        -11    1    1    2    0    0 -0.14852866180E+02 -0.29393574623E+02 -0.26657942691E+02  0.42370222697E+02  0.00000000000E+00 0.  1.
         11    1    1    2    0    0  0.14969454702E+02  0.42879477375E+02 -0.14895763633E+03  0.15572768403E+03  0.00000000000E+00 0. -1.
</event>
<event>
 7    1  0.2810263E-009  0.1002430E+03  0.7561462E-02  0.1279786E+00
         -1   -1    0    0    0  501 -0.00000000000E+00  0.00000000000E+00  0.12414199032E+03  0.12414199032E+03  0.00000000000E+00 0.  1.
          1   -1    0    0  501    0  0.00000000000E+00 -0.00000000000E+00 -0.12911896099E+03  0.12911896099E+03  0.00000000000E+00 0. -1.
         25    2    1    2    0    0  0.30460380504E+02  0.59879835068E+02  0.69682549585E+01  0.14215257096E+03  0.12508144317E+03 0.  0.
          5    1    3    3  502    0  0.15883670532E+02  0.77606284496E+02  0.49600114096E+02  0.93555705872E+02  0.41800000000E+01 0.  1.
         -5    1    3    3    0  502  0.14576709973E+02 -0.17726449428E+02 -0.42631859137E+02  0.48596865089E+02  0.41800000000E+01 0.  1.
        -11    1    1    2    0    0  0.19318642163E+02  0.81491542934E+00 -0.24924641463E+02  0.31545392282E+02  0.00000000000E+00 0. -1.
         11    1    1    2    0    0 -0.49779022667E+02 -0.60694750497E+02  0.12979415829E+02  0.79562988071E+02  0.00000000000E+00 0.  1.
</event>
<event>
 7    1  0.2810263E-009  0.1526212E+03  0.7561462E-02  0.1197289E+00
          2   -1    0    0  501    0  0.00000000000E+00  0.00000000000E+00  0.11165790130E+04  0.11165790130E+04  0.00000000000E+00 0. -1.
         -2   -1    0    0    0  501 -0.00000000000E+00 -0.00000000000E+00 -0.25084268816E+02  0.25084268816E+02  0.00000000000E+00 0.  1.
         25    2    1    2    0    0 -0.82673213840E+02  0.96758437319E+02  0.57465652985E+03  0.60172795084E+03  0.12509733829E+03 0.  0.
          5    1    3    3  502    0 -0.55096698992E+02  0.11376535957E+03  0.53782901912E+03  0.55249952895E+03  0.41800000000E+01 0.  1.
         -5    1    3    3    0  502 -0.27576514848E+02 -0.17006922253E+02  0.36827510723E+02  0.49228421890E+02  0.41800000000E+01 0.  1.
        -11    1    1    2    0    0  0.90642914863E+02 -0.60504915463E+02  0.45449374578E+03  0.46737730771E+03  0.00000000000E+00 0.  1.
         11    1    1    2    0    0 -0.79697010226E+01 -0.36253521856E+02  0.62344468604E+02  0.72558023312E+02  0.00000000000E+00 0. -1.
</event>
<event>
 7    1  0.3341292E-009  0.1546550E+03  0.7561462E-02  0.1194867E+00
         -2   -1    0    0    0  501 -0.00000000000E+00  0.00000000000E+00  0.14647444976E+02  0.14647444976E+02  0.00000000000E+00 0. -1.
          2   -1    0    0  501    0  0.00000000000E+00 -0.00000000000E+00 -0.17242335199E+04  0.17242335199E+04  0.00000000000E+00 0.  1.
         25    2    1    2    0    0  0.11126920823E+03  0.12239518160E+02 -0.10783596969E+04  0.10913467906E+04  0.12509012320E+03 0.  0.
          5    1    3    3  502    0 -0.13064740450E+02  0.38101686851E+02 -0.23350389836E+03  0.23698938570E+03  0.41800000000E+01 0. -1.
         -5    1    3    3    0  502  0.12433394868E+03 -0.25862168691E+02 -0.84485579857E+03  0.85435740492E+03  0.41800000000E+01 0. -1.
        -11    1    1    2    0    0 -0.79672641013E+02  0.33276206159E+02 -0.44237612957E+03  0.45072350242E+03  0.00000000000E+00 0. -1.
         11    1    1    2    0    0 -0.31596567216E+02 -0.45515724319E+02 -0.18885024846E+03  0.19681067187E+03  0.00000000000E+00 0.  1.
</event>
<event>
 7    1  0.2810263E-009  0.1051325E+03  0.7561462E-02  0.1269859E+00
         -1   -1    0    0    0  501 -0.00000000000E+00  0.00000000000E+00  0.26058056576E+02  0.26058056576E+02  0.00000000000E+00 0.  1.
          1   -1    0    0  501    0  0.00000000000E+00 -0.00000000000E+00 -0.71840951984E+03  0.71840951984E+03  0.00000000000E+00 0. -1.
         25    2    1    2    0    0  0.15212178542E+02  0.45775451009E+02 -0.19729327920E+03  0.23853514288E+03  0.12509026374E+03 0.  0.
          5    1    3    3  502    0  0.52616512029E+02  0.69488132629E+01 -0.26662864628E+02  0.59541280588E+02  0.41800000000E+01 0. -1.
         -5    1    3    3    0  502 -0.37404333487E+02  0.38826637746E+02 -0.17063041457E+03  0.17899386229E+03  0.41800000000E+01 0. -1.
        -11    1    1    2    0    0 -0.16186709598E+02 -0.73474572515E+02 -0.39527139078E+03  0.40236798425E+03  0.00000000000E+00 0. -1.
         11    1    1    2    0    0  0.97453105567E+00  0.27699121506E+02 -0.99786793284E+02  0.10356444929E+03  0.00000000000E+00 0.  1.
</event>
<event>
 7    1  0.2810263E-009  0.2544806E+03  0.7561462E-02  0.1110506E+00
         -1   -1    0    0    0  501 -0.00000000000E+00  0.00000000000E+00  0.27998309897E+03  0.27998309897E+03  0.00000000000E+00 0.  1.
          1   -1    0    0  501    0  0.00000000000E+00 -0.00000000000E+00 -0.26801384131E+03  0.26801384131E+03  0.00000000000E+00 0. -1.
         25    2    1    2    0    0 -0.12346403789E+03 -0.20550239478E+03  0.80670178019E+02  0.28219126360E+03  0.12509847607E+03 0.  0.
          5    1    3    3  502    0 -0.16488571847E+02  0.13960771842E+02  0.21877477369E+02  0.31030188011E+02  0.41800000000E+01 0.  1.
         -5    1    3    3    0  502 -0.10697546605E+03 -0.21946316662E+03  0.58792700650E+02  0.25116107559E+03  0.41800000000E+01 0.  1.
        -11    1    1    2    0    0  0.28329010751E+02  0.82784494499E+02  0.15973895051E+02  0.88943637786E+02  0.00000000000E+00 0.  1.
         11    1    1    2    0    0  0.95135027141E+02  0.12271790028E+03 -0.84674815412E+02  0.17686203890E+03  0.00000000000E+00 0. -1.
</event>
<event>
 7    1  0.2810263E-009  0.5068971E+02  0.7561462E-02  0.1441657E+00
         -4   -1    0    0    0  501 -0.00000000000E+00  0.00000000000E+00  0.14351383924E+03  0.14351383924E+03  0.00000000000E+00 0.  1.
          4   -1    0    0  501    0  0.00000000000E+00 -0.00000000000E+00 -0.10771477504E+03  0.10771477504E+03  0.00000000000E+00 0. -1.
         25    2    1    2    0    0  0.37279270864E+01 -0.44536970267E+02 -0.22405380425E+02  0.13471240050E+03  0.12509192866E+03 0.  0.
          5    1    3    3  502    0  0.15304726833E+01 -0.46949985250E+02 -0.71324788222E+02  0.85506381496E+02  0.41800000000E+01 0. -1.
         -5    1    3    3    0  502  0.21974544032E+01  0.24130149836E+01  0.48919407797E+02  0.49206019005E+02  0.41800000000E+01 0. -1.
        -11    1    1    2    0    0  0.55551799717E+01  0.35596651743E+02 -0.17267435842E+02  0.39951795710E+02  0.00000000000E+00 0. -1.
         11    1    1    2    0    0 -0.92831070581E+01  0.89403185231E+01  0.75471880470E+02  0.76564418065E+02  0.00000000000E+00 0.  1.
</event>
<event>
 7    1  0.2810263E-009  0.1349375E+03  0.7561462E-02  0.1220308E+00
          2   -1    0    0  501    0  0.00000000000E+00  0.00000000000E+00  0.72267618787E+03  0.72267618787E+03  0.00000000000E+00 0. -1.
         -2   -1    0    0    0  501 -0.00000000000E+00 -0.00000000000E+00 -0.27783502395E+02  0.27783502395E+02  0.00000000000E+00 0.  1.
         25    2    1    2    0    0 -0.56432976263E+02 -0.66581796056E+02  0.31621001171E+03  0.35107516663E+03  0.12508870749E+03 0.  0.
          5    1    3    3  502    0 -0.86234030652E+02 -0.21521718108E+02  0.13298561424E+03  0.16000668232E+03  0.41800000000E+01 0.  1.
         -5    1    3    3    0  502  0.29801054389E+02 -0.45060077948E+02  0.18322439747E+03  0.19106848431E+03  0.41800000000E+01 0.  1.
        -11    1    1    2    0    0 -0.24800420563E+02  0.63927402763E+01  0.85953293215E+02  0.89687772872E+02  0.00000000000E+00 0.  1.
         11    1    1    2    0    0  0.81233396826E+02  0.60189055779E+02  0.29272938055E+03  0.30969675076E+03  0.00000000000E+00 0. -1.
</event>
<event>
 7    1  0.2810263E-009  0.8257690E+02  0.7561462E-02  0.1321894E+00
         -3   -1    0    0    0  501 -0.00000000000E+00  0.00000000000E+00  0.92228236216E+02  0.92228236216E+02  0.00000000000E+00 0.  1.
          3   -1    0    0  501    0  0.00000000000E+00 -0.00000000000E+00 -0.16198709025E+03  0.16198709025E+03  0.00000000000E+00 0. -1.
         25    2    1    2    0    0 -0.27407133742E+02 -0.88900276277E+01 -0.57631556308E+02  0.14070949023E+03  0.12509029053E+03 0.  0.
          5    1    3    3  502    0 -0.44759209687E+01  0.20620617382E+02  0.34805194571E+02  0.40915983416E+02  0.41800000000E+01 0.  1.
         -5    1    3    3    0  502 -0.22931212773E+02 -0.29510645010E+02 -0.92436750880E+02  0.99793506809E+02  0.41800000000E+01 0.  1.
        -11    1    1    2    0    0  0.47919209868E+02  0.44206828033E+02  0.11677448790E+02  0.66233353602E+02  0.00000000000E+00 0.  1.
         11    1    1    2    0    0 -0.20512076126E+02 -0.35316800406E+02 -0.23804746512E+02  0.47272482634E+02  0.00000000000E+00 0. -1.
</event>
<event>
 7    1  0.2810263E-009  0.1252070E+03  0.7561462E-02  0.1234746E+00
         -2   -1    0    0    0  501 -0.00000000000E+00  0.00000000000E+00  0.35572112872E+03  0.35572112872E+03  0.00000000000E+00 0.  1.
          2   -1    0    0  501    0  0.00000000000E+00 -0.00000000000E+00 -0.85101131488E+02  0.85101131488E+02  0.00000000000E+00 0. -1.
         25    2    1    2    0    0  0.10994984640E+03  0.45455308110E+02  0.22560118137E+03  0.28407604071E+03  0.12509256616E+03 0.  0.
          5    1    3    3  502    0  0.32820393391E+02  0.35679257178E+02  0.19406618963E+03  0.20007335148E+03  0.41800000000E+01 0.  1.
         -5    1    3    3    0  502  0.77129453008E+02  0.97760509326E+01  0.31534991745E+02  0.84002689228E+02  0.41800000000E+01 0.  1.
        -11    1    1    2    0    0 -0.33421229990E+02 -0.31851811259E+02 -0.24674824713E+02  0.52348481058E+02  0.00000000000E+00 0. -1.
         11    1    1    2    0    0 -0.76528616409E+02 -0.13603496851E+02  0.69693640570E+02  0.10439773844E+03  0.00000000000E+00 0.  1.
</event>
<event>
 7    1  0.2810263E-009  0.1063737E+03  0.7561462E-02  0.1267436E+00
          2   -1    0    0  501    0  0.00000000000E+00  0.00000000000E+00  0.54547836614E+02  0.54547836614E+02  0.00000000000E+00 0. -1.
         -2   -1    0    0    0  501 -0.00000000000E+00 -0.00000000000E+00 -0.48242666653E+03  0.48242666653E+03  0.00000000000E+00 0.  1.
         25    2    1    2    0    0  0.91622976627E+02 -0.34966925441E+02 -0.36398095890E+03  0.39717284693E+03  0.12508667465E+03 0.  0.
          5    1    3    3  502    0  0.80146798444E+02 -0.34285996675E+02 -0.99264692582E+02  0.13217409149E+03  0.41800000000E+01 0. -1.
         -5    1    3    3    0  502  0.11476178184E+02 -0.68092876599E+00 -0.26471626631E+03  0.26499875543E+03  0.41800000000E+01 0. -1.
        -11    1    1    2    0    0 -0.20863300026E+02 -0.15786373996E+02 -0.42864419668E+02  0.50217978508E+02  0.00000000000E+00 0.  1.
         11    1    1    2    0    0 -0.70759676601E+02  0.50753299438E+02 -0.21033451353E+02  0.89583677712E+02  0.00000000000E+00 0. -1.
</event>
<event>
 7    1  0.2810263E-009  0.1002503E+03  0.7561462E-02  0.1279770E+00
          1   -1    0    0  501    0  0.00000000000E+00  0.00000000000E+00  0.25569987032E+03  0.25569987032E+03  0.00000000000E+00 0. -1.
         -1   -1    0    0    0  501 -0.00000000000E+00 -0.00000000000E+00 -0.45161923726E+02  0.45161923726E+02  0.00000000000E+00 0.  1.
         25    2    1    2    0    0 -0.16773545529E+02 -0.34424581763E+01  0.14998831655E+03  0.19605316264E+03  0.12508854917E+03 0.  0.
          5    1    3    3  502    0 -0.27023240982E+02 -0.60076510740E+02  0.60294683255E+02  0.89400021951E+02  0.41800000000E+01 0. -1.
         -5    1    3    3    0  502  0.10249695453E+02  0.56634052564E+02  0.89693633291E+02  0.10665314069E+03  0.41800000000E+01 0. -1.
        -11    1    1    2    0    0  0.34455978537E+02 -0.25503985110E+02  0.10142766407E+02  0.44051599561E+02  0.00000000000E+00 0. -1.
         11    1    1    2    0    0 -0.17682433008E+02  0.28946443286E+02  0.50406863639E+02  0.60757031839E+02  0.00000000000E+00 0.  1.
</event>
<event>
 7    1  0.2810263E-009  0.9875516E+02  0.7561462E-02  0.1282936E+00
         -1   -1    0    0    0  501 -0.00000000000E+00  0.00000000000E+00  0.13599198639E+03  0.13599198639E+03  0.00000000000E+00 0.  1.
          1   -1    0    0  501    0  0.00000000000E+00 -0.00000000000E+00 -0.11751902880E+03  0.11751902880E+03  0.00000000000E+00 0. -1.
         25    2    1    2    0    0  0.25835381741E+01 -0.52987549792E+02  0.48901556542E+02  0.14440766158E+03  0.12509138814E+03 0.  0.
          5    1    3    3  502    0 -0.59277039078E+02 -0.33891427357E+02  0.39101392951E+02  0.78795859921E+02  0.41800000000E+01 0.  1.
         -5    1    3    3    0  502  0.61860577252E+02 -0.19096122435E+02  0.98001635909E+01  0.65611801655E+02  0.41800000000E+01 0.  1.
        -11    1    1    2    0    0  0.16638621949E+02  0.19702638656E+02 -0.56874240735E+02  0.62447713886E+02  0.00000000000E+00 0. -1.
         11    1    1    2    0    0 -0.19222160123E+02  0.33284911136E+02  0.26445641785E+02  0.46655639729E+02  0.00000000000E+00 0.  1.
</event>
<event>
 7    1  0.4170284E-009  0.1370871E+03  0.7561462E-02  0.1217303E+00
         -1   -1    0    0    0  501 -0.00000000000E+00  0.00000000000E+00  0.50669930635E+02  0.50669930635E+02  0.00000000000E+00 0.  1.
          1   -1    0    0  501    0  0.00000000000E+00 -0.00000000000E+00 -0.46411125964E+03  0.46411125964E+03  0.00000000000E+00 0. -1.
         25    2    1    2    0    0 -0.11741611478E+02  0.10015139562E+03 -0.28831376289E+03  0.33006197297E+03  0.12509161699E+03 0.  0.
          5    1    3    3  502    0 -0.67997896042E+02  0.63155156869E+02 -0.15671008711E+03  0.18217522199E+03  0.41800000000E+01 0.  1.
         -5    1    3    3    0  502  0.56256284564E+02  0.36996238756E+02 -0.13160367578E+03  0.14788675098E+03  0.41800000000E+01 0.  1.
        -11    1    1    2    0    0 -0.84308294405E+01 -0.91466535736E+02 -0.46249761643E+02  0.10284087950E+03  0.00000000000E+00 0.  1.
         11    1    1    2    0    0  0.20172440919E+02 -0.86848598891E+01 -0.78877804476E+02  0.81878337812E+02  0.00000000000E+00 0. -1.
</event>
<event>
 7    1  0.2810263E-009  0.1152828E+03  0.7561462E-02  0.1251088E+00
          2   -1    0    0  501    0  0.00000000000E+00  0.00000000000E+00  0.22780550883E+03  0.22780550883E+03  0.00000000000E+00 0. -1.
         -2   -1    0    0    0  501 -0.00000000000E+00 -0.00000000000E+00 -0.83107679987E+02  0.83107679987E+02  0.00000000000E+00 0.  1.
         25    2    1    2    0    0  0.32127037698E+02  0.21719361729E+02  0.16143523202E+03  0.20787685432E+03  0.12509026820E+03 0.  0.
          5    1    3    3  502    0  0.38293122847E+02  0.70221373729E+02  0.82890913244E+02  0.11526396004E+03  0.41800000000E+01 0.  1.
         -5    1    3    3    0  502 -0.61660851484E+01 -0.48502012001E+02  0.78544318776E+02  0.92612894276E+02  0.41800000000E+01 0.  1.
        -11    1    1    2    0    0 -0.65547103659E+02 -0.12436286498E+02 -0.74639187341E+01  0.67132660478E+02  0.00000000000E+00 0.  1.
         11    1    1    2    0    0  0.33420065961E+02 -0.92830752307E+01 -0.92734844425E+01  0.35903674022E+02  0.00000000000E+00 0. -1.
</event>
<event>
 7    1  0.2810263E-009  0.1880805E+03  0.7561462E-02  0.1160204E+00
         -1   -1    0    0    0  501 -0.00000000000E+00  0.00000000000E+00  0.22976190262E+03  0.22976190262E+03  0.00000000000E+00 0.  1.
          1   -1    0    0  501    0  0.00000000000E+00 -0.00000000000E+00 -0.18051750315E+03  0.18051750315E+03  0.00000000000E+00 0. -1.
         25    2    1    2    0    0 -0.38958664440E+02 -0.16133133611E+03  0.71772060452E+02  0.21987254892E+03  0.12508849492E+03 0.  0.
          5    1    3    3  502    0 -0.57301810268E+02 -0.15877682786E+03  0.26680700727E+02  0.17094709917E+03  0.41800000000E+01 0. -1.
         -5    1    3    3    0  502  0.18343145828E+02 -0.25545082581E+01  0.45091359726E+02  0.48925449750E+02  0.41800000000E+01 0. -1.
        -11    1    1    2    0    0 -0.18439545158E+02  0.15032830947E+01 -0.73519730725E+01  0.19907993212E+02  0.00000000000E+00 0. -1.
         11    1    1    2    0    0  0.57398209598E+02  0.15982805302E+03 -0.15175687907E+02  0.17049886363E+03  0.00000000000E+00 0.  1.
</event>
<event>
 7    1  0.2810263E-009  0.5879080E+02  0.7561462E-02  0.1402977E+00
         -1   -1    0    0    0  501 -0.00000000000E+00  0.00000000000E+00  0.13285510182E+03  0.13285510182E+03  0.00000000000E+00 0.  1.
          1   -1    0    0  501    0  0.00000000000E+00 -0.00000000000E+00 -0.18643655224E+03  0.18643655224E+03  0.00000000000E+00 0. -1.
         25    2    1    2    0    0 -0.28341719726E+02 -0.82540964714E+01 -0.14008526876E+03  0.19011278568E+03  0.12509038960E+03 0.  0.
          5    1    3    3  502    0 -0.23510942844E+02 -0.10637491454E+02  0.18090029977E+02  0.31790599907E+02  0.41800000000E+01 0.  1.
         -5    1    3    3    0  502 -0.48307768822E+01  0.23833949831E+01 -0.15817529874E+03  0.15832218577E+03  0.41800000000E+01 0.  1.
        -11    1    1    2    0    0  0.32228760246E+02 -0.31270716864E+02  0.75704762806E+02  0.88021371449E+02  0.00000000000E+00 0.  1.
         11    1    1    2    0    0 -0.38870405202E+01  0.39524813336E+02  0.10799055540E+02  0.41157496933E+02  0.00000000000E+00 0. -1.
</event>
<event>
 7    1  0.2810263E-009  0.1346629E+03  0.7561462E-02  0.1220696E+00
         -2   -1    0    0    0  501 -0.00000000000E+00  0.00000000000E+00  0.64088652267E+02  0.64088652267E+02  0.00000000000E+00 0.  1.
          2   -1    0    0  501    0  0.00000000000E+00 -0.00000000000E+00 -0.35300645111E+03  0.35300645111E+03  0.00000000000E+00 0. -1.
         25    2    1    2    0    0  0.90398901849E+02  0.44229683690E+02 -0.23767001197E+03  0.28681498141E+03  0.12509025780E+03 0.  0.
          5    1    3    3  502    0 -0.22930110863E+02 -0.10146534869E+02 -0.11226932200E+02  0.27789540491E+02  0.41800000000E+01 0. -1.
         -5    1    3    3    0  502  0.11332901271E+03  0.54376218560E+02 -0.22644307977E+03  0.25902544091E+03  0.41800000000E+01 0. -1.
        -11    1    1    2    0    0 -0.30639453168E+02 -0.49425240085E+02 -0.35980074071E+02  0.68382718417E+02  0.00000000000E+00 0. -1.
         11    1    1    2    0    0 -0.59759448681E+02  0.51955563949E+01 -0.15267712809E+02  0.61897403558E+02  0.00000000000E+00 0.  1.
</event>
<event>
 7    1  0.2810263E-009  0.7364623E+02  0.7561462E-02  0.1348115E+00
          3   -1    0    0  501    0  0.00000000000E+00  0.00000000000E+00  0.17371905440E+03  0.17371905440E+03  0.00000000000E+00 0. -1.
         -3   -1    0    0    0  501 -0.00000000000E+00 -0.00000000000E+00 -0.75236925144E+02  0.75236925144E+02  0.00000000000E+00 0.  1.
         25    2    1    2    0    0  0.34843514247E+02 -0.40882187216E+01  0.67616380457E+02  0.14646063758E+03  0.12509180403E+03 0.  0.
          5    1    3    3  502    0  0.13988372754E+01  0.37379751703E+02  0.82761218706E+02  0.90918063688E+02  0.41800000000E+01 0.  1.
         -5    1    3    3    0  502  0.33444676972E+02 -0.41467970425E+02 -0.15144838249E+02  0.55542573891E+02  0.41800000000E+01 0.  1.
        -11    1    1    2    0    0 -0.32542240030E+02  0.21272417410E+02 -0.23502259125E+02  0.45429828446E+02  0.00000000000E+00 0.  1.
         11    1    1    2    0    0 -0.23012742172E+01 -0.17184198689E+02  0.54368007923E+02  0.57065513518E+02  0.00000000000E+00 0. -1.
</event>
<event>
 7    1  0.3550015E-009  0.1166443E+03  0.7561462E-02  0.1248738E+00
          1   -1    0    0  501    0  0.00000000000E+00  0.00000000000E+00  0.40346506280E+03  0.40346506280E+03  0.00000000000E+00 0. -1.
         -1   -1    0    0    0  501 -0.00000000000E+00 -0.00000000000E+00 -0.48693041547E+02  0.48693041547E+02  0.00000000000E+00 0.  1.
         25    2    1    2    0    0 -0.62226300967E+02  0.70668001962E+00  0.29523384271E+03  0.32662871666E+03  0.12510269676E+03 0.  0.
          5    1    3    3  502    0 -0.74295465199E+02  0.39234164464E+02  0.11868556300E+03  0.14547464066E+03  0.41800000000E+01 0.  1.
         -5    1    3    3    0  502  0.12069164231E+02 -0.38527484444E+02  0.17654827971E+03  0.18115407600E+03  0.41800000000E+01 0.  1.
        -11    1    1    2    0    0  0.37138298690E+02  0.43836922818E+02  0.19769450960E+02  0.60759857003E+02  0.00000000000E+00 0.  1.
         11    1    1    2    0    0  0.25088002277E+02 -0.44543602837E+02  0.39768727589E+02  0.64769530692E+02  0.00000000000E+00 0. -1.
</event>
<event>
 7    1  0.2810263E-009  0.2121447E+03  0.7561462E-02  0.1139879E+00
         -1   -1    0    0    0  501 -0.00000000000E+00  0.00000000000E+00  0.77761681357E+02  0.77761681357E+02  0.00000000000E+00 0.  1.
          1   -1    0    0  501    0  0.00000000000E+00 -0.00000000000E+00 -0.65645348193E+03  0.65645348193E+03  0.00000000000E+00 0. -1.
         25    2    1    2    0    0  0.12227140136E+03 -0.15883516271E+03 -0.29491307444E+03  0.37788930291E+03  0.12509076412E+03 0.  0.
          5    1    3    3  502    0  0.38935927543E+02  0.39403161461E+01 -0.11407013589E+03  0.12066897218E+03  0.41800000000E+01 0. -1.
         -5    1    3    3    0  502  0.83335473818E+02 -0.16277547886E+03 -0.18084293856E+03  0.25722033073E+03  0.41800000000E+01 0. -1.
        -11    1    1    2    0    0 -0.27293829068E+02  0.20149811311E+02 -0.10542477336E+02  0.35526213272E+02  0.00000000000E+00 0.  1.
         11    1    1    2    0    0 -0.94977572293E+02  0.13868535140E+03 -0.27323624879E+03  0.32079964711E+03  0.00000000000E+00 0. -1.
</event>
<event>
 7    1  0.2810263E-009  0.1980006E+03  0.7561462E-02  0.1151437E+00
         -1   -1    0    0    0  501 -0.00000000000E+00  0.00000000000E+00  0.37456006590E+03  0.37456006590E+03  0.00000000000E+00 0.  1.
          1   -1    0    0  501    0  0.00000000000E+00 -0.00000000000E+00 -0.16800935782E+03  0.16800935782E+03  0.00000000000E+00 0. -1.
         25    2    1    2    0    0 -0.14193376773E+03 -0.90366938857E+02  0.26956688562E+03  0.34150379447E+03  0.12508859961E+03 0.  0.
          5    1    3    3  502    0 -0.37023769568E+02  0.28732827428E+02  0.91807748567E+02  0.10316234770E+03  0.41800000000E+01 0. -1.
         -5    1    3    3    0  502 -0.10490999816E+03 -0.11909976628E+03  0.17775913705E+03  0.23834144677E+03  0.41800000000E+01 0. -1.
        -11    1    1    2    0    0  0.13935634292E+03  0.47492388819E+02 -0.41156697592E+02  0.15287115838E+03  0.00000000000E+00 0.  1.
         11    1    1    2    0    0  0.25774248151E+01  0.42874550037E+02 -0.21859479941E+02  0.48194470875E+02  0.00000000000E+00 0. -1.
</event>
<event>
 7    1  0.2810263E-009  0.1275943E+03  0.7561462E-02  0.1231070E+00
          1   -1    0    0  501    0  0.00000000000E+00  0.00000000000E+00  0.14038454168E+04  0.14038454168E+04  0.00000000000E+00 0. -1.
         -1   -1    0    0    0  501 -0.00000000000E+00 -0.00000000000E+00 -0.14945522112E+02  0.14945522112E+02  0.00000000000E+00 0.  1.
         25    2    1    2    0    0 -0.32023846415E+02  0.62206570491E+02  0.10705932797E+04  0.10801442978E+04  0.12508616794E+03 0.  0.
          5    1    3    3  502    0 -0.38714264127E+02  0.96722602770E+02  0.67969973804E+03  0.68765053801E+03  0.41800000000E+01 0.  1.
         -5    1    3    3    0  502  0.66904177120E+01 -0.34516032279E+02  0.39089354169E+03  0.39249375984E+03  0.41800000000E+01 0.  1.
        -11    1    1    2    0    0  0.53028411704E+02 -0.74297107970E+02  0.24626297059E+03  0.26263572374E+03  0.00000000000E+00 0. -1.
         11    1    1    2    0    0 -0.21004565288E+02  0.12090537479E+02  0.72043644398E+02  0.76010917358E+02  0.00000000000E+00 0.  1.
</event>
<event>
 7    1  0.2810263E-009  0.1084796E+03  0.7561462E-02  0.1263412E+00
         -1   -1    0    0    0  501 -0.00000000000E+00  0.00000000000E+00  0.75156023743E+03  0.75156023743E+03  0.00000000000E+00 0.  1.
          1   -1    0    0  501    0  0.00000000000E+00 -0.00000000000E+00 -0.16201277808E+02  0.16201277808E+02  0.00000000000E+00 0. -1.
         25    2    1    2    0    0 -0.12747225080E+02 -0.51624409781E+01  0.48067763542E+03  0.49687761542E+03  0.12508890025E+03 0.  0.
          5    1    3    3  502    0 -0.67481084860E+02  0.84382195229E+01  0.29569057459E+03  0.30343910206E+03  0.41800000000E+01 0. -1.
         -5    1    3    3    0  502  0.54733859780E+02 -0.13600660501E+02  0.18498706084E+03  0.19343851335E+03  0.41800000000E+01 0. -1.
        -11    1    1    2    0    0  0.11859621753E+02  0.47990422532E+02  0.13463860662E+03  0.14342693497E+03  0.00000000000E+00 0.  1.
         11    1    1    2    0    0  0.88760332724E+00 -0.42827981554E+02  0.12004271759E+03  0.12745696485E+03  0.00000000000E+00 0. -1.
</event>
<event>
 7    1  0.2810263E-009  0.8507448E+02  0.7561462E-02  0.1315238E+00
          2   -1    0    0  501    0  0.00000000000E+00  0.00000000000E+00  0.30388424765E+03  0.30388424765E+03  0.00000000000E+00 0. -1.
         -2   -1    0    0    0  501 -0.00000000000E+00 -0.00000000000E+00 -0.50645502649E+02  0.50645502649E+02  0.00000000000E+00 0.  1.
         25    2    1    2    0    0  0.10754168194E+02 -0.57935115287E+02  0.16824332936E+03  0.21777211403E+03  0.12508695399E+03 0.  0.
          5    1    3    3  502    0  0.85949044616E+01 -0.61176016493E+02  0.18761880886E+03  0.19757192922E+03  0.41800000000E+01 0.  1.
         -5    1    3    3    0  502  0.21592637326E+01  0.32409012067E+01 -0.19375479501E+02  0.20200184811E+02  0.41800000000E+01 0.  1.
        -11    1    1    2    0    0 -0.31987007614E+02  0.70800865202E+02  0.79839235761E+02  0.11140123310E+03  0.00000000000E+00 0. -1.
         11    1    1    2    0    0  0.21232839419E+02 -0.12865749915E+02  0.51561798800E+01  0.25356403169E+02  0.00000000000E+00 0.  1.
</event>
<event>
 7    1  0.3052229E-009  0.1514746E+03  0.7561462E-02  0.1198673E+00
         -2   -1    0    0    0  501 -0.00000000000E+00  0.00000000000E+00  0.89922138781E+02  0.89922138781E+02  0.00000000000E+00 0.  1.
          2   -1    0    0  501    0  0.00000000000E+00 -0.00000000000E+00 -0.32803252688E+03  0.32803252688E+03  0.00000000000E+00 0. -1.
         25    2    1    2    0    0  0.11352454230E+03 -0.63198572742E+02 -0.92487025880E+02  0.20269027270E+03  0.12509042885E+03 0.  0.
          5    1    3    3  502    0  0.13125253387E+03 -0.40520505778E+02 -0.10302012764E+03  0.17175493628E+03  0.41800000000E+01 0. -1.
         -5    1    3    3    0  502 -0.17727991576E+02 -0.22678066965E+02  0.10533101764E+02  0.30935336419E+02  0.41800000000E+01 0. -1.
        -11    1    1    2    0    0 -0.21372725799E+02 -0.48055415236E+01 -0.80688511874E+02  0.83609345087E+02  0.00000000000E+00 0. -1.
         11    1    1    2    0    0 -0.92151816499E+02  0.68004114266E+02 -0.64934850342E+02  0.13165504787E+03  0.00000000000E+00 0.  1.
</event>
<event>
 7    1  0.2810263E-009  0.9618032E+02  0.7561462E-02  0.1288540E+00
          2   -1    0    0  501    0  0.00000000000E+00  0.00000000000E+00  0.31248353662E+03  0.31248353662E+03  0.00000000000E+00 0.  1.
         -2   -1    0    0    0  501 -0.00000000000E+00 -0.00000000000E+00 -0.50732623743E+02  0.50732623743E+02  0.00000000000E+00 0. -1.
         25    2    1    2    0    0  0.62802110628E+02  0.15387571208E+02  0.14088990457E+03  0.19919651882E+03  0.12509358677E+03 0.  0.
          5    1    3    3  502    0  0.70778417018E+02  0.11981654649E+02  0.16131511627E+03  0.17661592086E+03  0.41800000000E+01 0.  1.
         -5    1    3    3    0  502 -0.79763063902E+01  0.34059165589E+01 -0.20425211697E+02  0.22580597957E+02  0.41800000000E+01 0.  1.
        -11    1    1    2    0    0 -0.49357095795E+02  0.33808335397E+02  0.62611744823E+02  0.86598828153E+02  0.00000000000E+00 0.  1.
         11    1    1    2    0    0 -0.13445014833E+02 -0.49195906605E+02  0.58249263481E+02  0.77420813394E+02  0.00000000000E+00 0. -1.
</event>
<event>
 7    1  0.2810263E-009  0.8970699E+02  0.7561462E-02  0.1303563E+00
         -1   -1    0    0    0  501 -0.00000000000E+00  0.00000000000E+00  0.19833384522E+02  0.19833384522E+02  0.00000000000E+00 0.  1.
          1   -1    0    0  501    0  0.00000000000E+00 -0.00000000000E+00 -0.97040168169E+03  0.97040168169E+03  0.00000000000E+00 0. -1.
         25    2    1    2    0    0 -0.57465085057E+01  0.19047945936E+02 -0.82391639345E+03  0.83359477121E+03  0.12508466170E+03 0.  0.
          5    1    3    3  502    0  0.55160761641E+02  0.31307796440E+02 -0.36868018851E+03  0.37411955515E+03  0.41800000000E+01 0.  1.
         -5    1    3    3    0  502 -0.60907270146E+02 -0.12259850505E+02 -0.45523620493E+03  0.45947521606E+03  0.41800000000E+01 0.  1.
        -11    1    1    2    0    0  0.25374967994E+02  0.11701637923E+01  0.14813585730E+01  0.25445092007E+02  0.00000000000E+00 0.  1.
         11    1    1    2    0    0 -0.19628459489E+02 -0.20218109728E+02 -0.12813326230E+03  0.13119520300E+03  0.00000000000E+00 0. -1.
</event>
<event>
 7    1  0.3954479E-009  0.1270300E+03  0.7561462E-02  0.1231930E+00
          2   -1    0    0  501    0  0.00000000000E+00  0.00000000000E+00  0.21166643999E+04  0.21166643999E+04  0.00000000000E+00 0. -1.
         -2   -1    0    0    0  501 -0.00000000000E+00 -0.00000000000E+00 -0.10280904183E+02  0.10280904183E+02  0.00000000000E+00 0.  1.
         25    2    1    2    0    0  0.37544979827E+01 -0.74354663606E+02  0.16280850373E+04  0.16345792661E+04  0.12508307702E+03 0.  0.
          5    1    3    3  502    0 -0.46446433053E+02 -0.78488394317E+02  0.12124051868E+04  0.12158377806E+04  0.41800000000E+01 0. -1.
         -5    1    3    3    0  502  0.50200931036E+02  0.41337307110E+01  0.41567985048E+03  0.41874148553E+03  0.41800000000E+01 0. -1.
        -11    1    1    2    0    0 -0.43810004138E+02  0.35119151062E+02  0.30795335923E+03  0.31303025843E+03  0.00000000000E+00 0. -1.
         11    1    1    2    0    0  0.40055506156E+02  0.39235512544E+02  0.17034509921E+03  0.17933577959E+03  0.00000000000E+00 0.  1.
</event>
<event>
 7    1  0.2810263E-009  0.9650020E+02  0.7561462E-02  0.1287833E+00
         -1   -1    0    0    0  501 -0.00000000000E+00  0.00000000000E+00  0.13345123597E+03  0.13345123597E+03  0.00000000000E+00 0.  1.
          1   -1    0    0  501    0  0.00000000000E+00 -0.00000000000E+00 -0.10812459792E+03  0.10812459792E+03  0.00000000000E+00 0. -1.
         25    2    1    2    0    0  0.93013364021E+01 -0.29204242922E+02  0.58214258217E+02  0.14133892711E+03  0.12509352418E+03 0.  0.
          5    1    3    3  502    0  0.54405950483E+02 -0.52933657851E+02  0.23650120808E+02  0.79616456814E+02  0.41800000000E+01 0. -1.
         -5    1    3    3    0  502 -0.45104614081E+02  0.23729414929E+02  0.34564137409E+02  0.61722470293E+02  0.41800000000E+01 0. -1.
        -11    1    1    2    0    0  0.10697375104E+02 -0.14359396853E+02 -0.46977432967E+02  0.50274300794E+02  0.00000000000E+00 0. -1.
         11    1    1    2    0    0 -0.19998711506E+02  0.43563639775E+02  0.14089812805E+02  0.49962605989E+02  0.00000000000E+00 0.  1.
</event>
<event>
 7    1  0.2810263E-009  0.6167541E+02  0.7561462E-02  0.1390932E+00
         -1   -1    0    0    0  501 -0.00000000000E+00  0.00000000000E+00  0.95973140104E+02  0.95973140104E+02  0.00000000000E+00 0. -1.
          1   -1    0    0  501    0  0.00000000000E+00 -0.00000000000E+00 -0.13656688280E+03  0.13656688280E+03  0.00000000000E+00 0.  1.
         25    2    1    2    0    0  0.26490802423E+02 -0.25376862527E+02 -0.33130552386E+02  0.13450184974E+03  0.12508943327E+03 0.  0.
          5    1    3    3  502    0  0.46962793449E+02 -0.36688797704E+01  0.35774073787E+02  0.59297735223E+02  0.41800000000E+01 0. -1.
         -5    1    3    3    0  502 -0.20471991025E+02 -0.21707982757E+02 -0.68904626173E+02  0.75204114515E+02  0.41800000000E+01 0. -1.
        -11    1    1    2    0    0 -0.13907306976E+02 -0.35768998269E+01 -0.46018351849E+02  0.48206805605E+02  0.00000000000E+00 0.  1.
         11    1    1    2    0    0 -0.12583495447E+02  0.28953762354E+02  0.38555161537E+02  0.49831367564E+02  0.00000000000E+00 0. -1.
</event>
<event>
 7    1  0.2810263E-009  0.8623796E+02  0.7561462E-02  0.1312227E+00
          1   -1    0    0  501    0  0.00000000000E+00  0.00000000000E+00  0.98014518334E+03  0.98014518334E+03  0.00000000000E+00 0. -1.
         -1   -1    0    0    0  501 -0.00000000000E+00 -0.00000000000E+00 -0.26236654392E+02  0.26236654392E+02  0.00000000000E+00 0.  1.
         25    2    1    2    0    0  0.22255371495E+02  0.53971254721E+02  0.83577613211E+03  0.84709983815E+03  0.12509274515E+03 0.  0.
          5    1    3    3  502    0 -0.34768805840E+01  0.52028047651E+02  0.80509172011E+03  0.80678941282E+03  0.41800000000E+01 0. -1.
         -5    1    3    3    0  502  0.25732252079E+02  0.19432070703E+01  0.30684412001E+02  0.40310425334E+02  0.41800000000E+01 0. -1.
        -11    1    1    2    0    0 -0.40139660711E+02 -0.62444425372E+02  0.11809963416E+03  0.13949201487E+03  0.00000000000E+00 0. -1.
         11    1    1    2    0    0  0.17884289216E+02  0.84731706514E+01  0.32762673601E-01  0.19789984716E+02  0.00000000000E+00 0.  1.
</event>
<event>
 7    1  0.2810263E-009  0.9815833E+02  0.7561462E-02  0.1284217E+00
         -2   -1    0    0    0  501 -0.00000000000E+00  0.00000000000E+00  0.79731405814E+02  0.79731405814E+02  0.00000000000E+00 0. -1.
          2   -1    0    0  501    0  0.00000000000E+00 -0.00000000000E+00 -0.31420200266E+03  0.31420200266E+03  0.00000000000E+00 0.  1.
         25    2    1    2    0    0  0.31739628436E+02  0.26050940746E+02  0.75899684365E+01  0.13187827334E+03  0.12509282885E+03 0.  0.
          5    1    3    3  502    0 -0.50594432431E+01 -0.44821498258E+02  0.22427772233E+02  0.50547423666E+02  0.41800000000E+01 0. -1.
         -5    1    3    3    0  502  0.36799071679E+02  0.70872439004E+02 -0.14837803796E+02  0.81330849671E+02  0.41800000000E+01 0. -1.
        -11    1    1    2    0    0 -0.27438103455E+02 -0.44405952497E+02 -0.23679663675E+03  0.24248172161E+03  0.00000000000E+00 0.  1.
         11    1    1    2    0    0 -0.43015249804E+01  0.18355011751E+02 -0.52639285330E+01  0.19573413528E+02  0.00000000000E+00 0. -1.
</event>
<event>
 7    1  0.2810263E-009  0.1309615E+03  0.7561462E-02  0.1226036E+00
         -2   -1    0    0    0  501 -0.00000000000E+00  0.00000000000E+00  0.53449854249E+02  0.53449854249E+02  0.00000000000E+00 0. -1.
          2   -1    0    0  501    0  0.00000000000E+00 -0.00000000000E+00 -0.38214174874E+03  0.38214174874E+03  0.00000000000E+00 0.  1.
         25    2    1    2    0    0  0.86957421980E+02 -0.33280006940E+02 -0.17203902524E+03  0.23219409933E+03  0.12509005340E+03 0.  0.
          5    1    3    3  502    0  0.39799692933E+02  0.36723664537E+02 -0.19313940964E+02  0.57646715519E+02  0.41800000000E+01 0. -1.
         -5    1    3    3    0  502  0.47157729046E+02 -0.70003671477E+02 -0.15272508427E+03  0.17454738381E+03  0.41800000000E+01 0. -1.
        -11    1    1    2    0    0  0.77793533544E+00  0.35330712697E+02 -0.77662098167E+02  0.85324474419E+02  0.00000000000E+00 0.  1.
         11    1    1    2    0    0 -0.87735357315E+02 -0.20507057567E+01 -0.78990771090E+02  0.11807302924E+03  0.00000000000E+00 0. -1.
</event>
<event>
 7    1  0.2810263E-009  0.1073389E+03  0.7561462E-02  0.1265579E+00
          1   -1    0    0  501    0  0.00000000000E+00  0.00000000000E+00  0.25895287879E+03  0.25895287879E+03  0.00000000000E+00 0. -1.
         -1   -1    0    0    0  501 -0.00000000000E+00 -0.00000000000E+00 -0.54964756442E+02  0.54964756442E+02  0.00000000000E+00 0.  1.
         25    2    1    2    0    0  0.29995134415E+02 -0.38459236979E+02  0.12939015347E+03  0.18646038733E+03  0.12508734241E+03 0.  0.
          5    1    3    3  502    0 -0.46578823768E+02 -0.27425347317E+02  0.71570852626E+02  0.89786390086E+02  0.41800000000E+01 0.  1.
         -5    1    3    3    0  502  0.76573958183E+02 -0.11033889662E+02  0.57819300839E+02  0.96673997240E+02  0.41800000000E+01 0.  1.
        -11    1    1    2    0    0  0.21175923048E+02  0.18296874675E+02 -0.71916356706E+01  0.28894895110E+02  0.00000000000E+00 0.  1.
         11    1    1    2    0    0 -0.51171057463E+02  0.20162362304E+02  0.81789604556E+02  0.98562352798E+02  0.00000000000E+00 0. -1.
</event>
<event>
 7    1  0.2810263E-009  0.1051145E+03  0.7561462E-02  0.1269894E+00
          2   -1    0    0  501    0  0.00000000000E+00  0.00000000000E+00  0.32219265362E+02  0.32219265362E+02  0.00000000000E+00 0. -1.
         -2   -1    0    0    0  501 -0.00000000000E+00 -0.00000000000E+00 -0.36783155677E+03  0.36783155677E+03  0.00000000000E+00 0.  1.
         25    2    1    2    0    0 -0.12482773062E+02 -0.40710399547E+01 -0.17928214275E+03  0.21900390098E+03  0.12509288128E+03 0.  0.
          5    1    3    3  502    0  0.52996680094E+02  0.54136337344E+01 -0.11429194787E+03  0.12616686284E+03  0.41800000000E+01 0. -1.
         -5    1    3    3    0  502 -0.65479453155E+02 -0.94846736891E+01 -0.64990194879E+02  0.92837038142E+02  0.41800000000E+01 0. -1.
        -11    1    1    2    0    0  0.21553346459E+02  0.44296943394E+02 -0.72921553921E+02  0.88001812276E+02  0.00000000000E+00 0. -1.
         11    1    1    2    0    0 -0.90705733971E+01 -0.40225903440E+02 -0.83408594744E+02  0.93045108880E+02  0.00000000000E+00 0.  1.
</event>
<event>
 7    1  0.2810263E-009  0.1899253E+03  0.7561462E-02  0.1158529E+00
         -2   -1    0    0    0  501 -0.00000000000E+00  0.00000000000E+00  0.13002983073E+04  0.13002983073E+04  0.00000000000E+00 0.  1.
          2   -1    0    0  501    0  0.00000000000E+00 -0.00000000000E+00 -0.29129641885E+02  0.29129641885E+02  0.00000000000E+00 0. -1.
         25    2    1    2    0    0 -0.15354508741E+03 -0.45691669199E+02  0.66142756515E+03  0.69195231167E+03  0.12509098760E+03 0.  0.
          5    1    3    3  502    0 -0.10107299238E+03 -0.82397696675E+02  0.33984098544E+03  0.36402540844E+03  0.41800000000E+01 0. -1.
         -5    1    3    3    0  502 -0.52472095032E+02  0.36706027476E+02  0.32158657971E+03  0.32792690323E+03  0.41800000000E+01 0. -1.
        -11    1    1    2    0    0  0.15203194724E+03  0.13116142079E+02  0.47845950446E+03  0.50220438426E+03  0.00000000000E+00 0. -1.
         11    1    1    2    0    0  0.15131401771E+01  0.32575527120E+02  0.13128159585E+03  0.13527125330E+03  0.00000000000E+00 0.  1.
</event>
<event>
 7    1  0.2810263E-009  0.7419729E+02  0.7561462E-02  0.1346375E+00
          1   -1    0    0  501    0  0.00000000000E+00  0.00000000000E+00  0.76021795135E+03  0.76021795135E+03  0.00000000000E+00 0. -1.
         -1   -1    0    0    0  501 -0.00000000000E+00 -0.00000000000E+00 -0.19435227202E+02  0.19435227202E+02  0.00000000000E+00 0.  1.
         25    2    1    2    0    0 -0.48452672844E+02 -0.24062020002E+02  0.45166746760E+03  0.47178121070E+03  0.12508943670E+03 0.  0.
          5    1    3    3  502    0 -0.44104237156E+01  0.10397005958E+02 -0.39898313883E+01  0.12686241553E+02  0.41800000000E+01 0.  1.
         -5    1    3    3    0  502 -0.44042249129E+02 -0.34459025959E+02  0.45565729899E+03  0.45909496915E+03  0.41800000000E+01 0.  1.
        -11    1    1    2    0    0  0.13267203064E+02 -0.19930570797E+02  0.15508990457E+02  0.28526743846E+02  0.00000000000E+00 0.  1.
         11    1    1    2    0    0  0.35185469780E+02  0.43992590798E+02  0.27360626609E+03  0.27934522401E+03  0.00000000000E+00 0. -1.
</event>
<event>
 7    1  0.2810263E-009  0.7550873E+02  0.7561462E-02  0.1342303E+00
          1   -1    0    0  501    0  0.00000000000E+00  0.00000000000E+00  0.70460924561E+03  0.70460924561E+03  0.00000000000E+00 0. -1.
         -1   -1    0    0    0  501 -0.00000000000E+00 -0.00000000000E+00 -0.30726840657E+02  0.30726840657E+02  0.00000000000E+00 0.  1.
         25    2    1    2    0    0  0.46717100288E+01 -0.88407306580E+01  0.58842960729E+03  0.60165783703E+03  0.12507104677E+03 0.  0.
          5    1    3    3  502    0 -0.11670207027E+02  0.22953471632E+02  0.54333548259E+03  0.54396137237E+03  0.41800000000E+01 0.  1.
         -5    1    3    3    0  502  0.16341917055E+02 -0.31794202290E+02  0.45094124694E+02  0.57696464660E+02  0.41800000000E+01 0.  1.
        -11    1    1    2    0    0  0.41905124553E+02  0.50419368595E+01  0.74585502219E+02  0.85699811741E+02  0.00000000000E+00 0. -1.
         11    1    1    2    0    0 -0.46576834582E+02  0.37987937985E+01  0.10867295451E+02  0.47978437495E+02  0.00000000000E+00 0.  1.
</event>
<event>
 7    1  0.2810263E-009  0.1038103E+03  0.7561462E-02  0.1272481E+00
         -1   -1    0    0    0  501 -0.00000000000E+00  0.00000000000E+00  0.35742464037E+03  0.35742464037E+03  0.00000000000E+00 0.  1.
          1   -1    0    0  501    0  0.00000000000E+00 -0.00000000000E+00 -0.39261231623E+02  0.39261231623E+02  0.00000000000E+00 0. -1.
         25    2    1    2    0    0 -0.38468902117E+02 -0.25768630235E+02  0.14991271232E+03  0.20066192121E+03  0.12508999390E+03 0.  0.
          5    1    3    3  502    0 -0.73013981064E+02  0.13849222650E+02  0.11646490527E+03  0.13821862739E+03  0.41800000000E+01 0.  1.
         -5    1    3    3    0  502  0.34545078947E+02 -0.39617852884E+02  0.33447807055E+02  0.62443293822E+02  0.41800000000E+01 0.  1.
        -11    1    1    2    0    0  0.42760475845E+02  0.44220415692E+02  0.59313163282E+02  0.85451476272E+02  0.00000000000E+00 0. -1.
         11    1    1    2    0    0 -0.42915737278E+01 -0.18451785458E+02  0.10893753315E+03  0.11057247451E+03  0.00000000000E+00 0.  1.
</event>
<event>
 7    1  0.2810263E-009  0.1467954E+03  0.7561462E-02  0.1204467E+00
         -1   -1    0    0    0  501 -0.00000000000E+00  0.00000000000E+00  0.24467828899E+03  0.24467828899E+03  0.00000000000E+00 0.  1.
          1   -1    0    0  501    0  0.00000000000E+00 -0.00000000000E+00 -0.11866678530E+03  0.11866678530E+03  0.00000000000E+00 0. -1.
         25    2    1    2    0    0 -0.10482985959E+03 -0.72412357469E+02  0.36293384085E+02  0.18220551892E+03  0.12509513348E+03 0.  0.
          5    1    3    3  502    0 -0.47100525869E+02 -0.87631465339E+02 -0.18247687145E+02  0.10123331339E+03  0.41800000000E+01 0. -1.
         -5    1    3    3    0  502 -0.57729333725E+02  0.15219107870E+02  0.54541071230E+02  0.80972205525E+02  0.41800000000E+01 0. -1.
        -11    1    1    2    0    0  0.26054938551E+02  0.42608158655E+02 -0.96627850550E+01  0.50869287610E+02  0.00000000000E+00 0. -1.
         11    1    1    2    0    0  0.78774921042E+02  0.29804198814E+02  0.99380904660E+02  0.13027026776E+03  0.00000000000E+00 0.  1.
</event>
<event>
 7    1  0.2810263E-009  0.1286079E+03  0.7561462E-02  0.1229536E+00
          2   -1    0    0  501    0  0.00000000000E+00  0.00000000000E+00  0.54653018323E+02  0.54653018323E+02  0.00000000000E+00 0. -1.
         -2   -1    0    0    0  501 -0.00000000000E+00 -0.00000000000E+00 -0.45030296329E+03  0.45030296329E+03  0.00000000000E+00 0.  1.
         25    2    1    2    0    0  0.31051424598E+02 -0.10087594684E+03 -0.21153989122E+03  0.26746533200E+03  0.12509368738E+03 0.  0.
          5    1    3    3  502    0  0.71494599434E+02 -0.65280210373E+02 -0.81414240676E+02  0.12656513975E+03  0.41800000000E+01 0.  1.
         -5    1    3    3    0  502 -0.40443174836E+02 -0.35595736465E+02 -0.13012565055E+03  0.14090019225E+03  0.41800000000E+01 0.  1.
        -11    1    1    2    0    0 -0.66602892164E+01  0.88909246868E+01  0.13903474881E+02  0.17796477405E+02  0.00000000000E+00 0. -1.
         11    1    1    2    0    0 -0.24391135382E+02  0.91985022151E+02 -0.19801352863E+03  0.21969417222E+03  0.00000000000E+00 0.  1.
</event>
<event>
 7    1  0.2810263E-009  0.1063858E+03  0.7561462E-02  0.1267413E+00
         -2   -1    0    0    0  501 -0.00000000000E+00  0.00000000000E+00  0.28012172124E+03  0.28012172124E+03  0.00000000000E+00 0.  1.
          2   -1    0    0  501    0  0.00000000000E+00 -0.00000000000E+00 -0.59229238967E+02  0.59229238967E+02  0.00000000000E+00 0. -1.
         25    2    1    2    0    0 -0.24499924133E+02  0.51844707405E+02  0.17330666698E+03  0.22129265343E+03  0.12508843940E+03 0.  0.
          5    1    3    3  502    0  0.46190539006E+01  0.70752105697E+02  0.17223673335E+03  0.18630663122E+03  0.41800000000E+01 0. -1.
         -5    1    3    3    0  502 -0.29118978033E+02 -0.18907398292E+02  0.10699336290E+01  0.34986022207E+02  0.41800000000E+01 0. -1.
        -11    1    1    2    0    0  0.58730971884E+02 -0.37359317767E+02  0.39450508986E+02  0.80008676665E+02  0.00000000000E+00 0.  1.
         11    1    1    2    0    0 -0.34231047751E+02 -0.14485389638E+02  0.81353063009E+01  0.38049630113E+02  0.00000000000E+00 0. -1.
</event>
<event>
 7    1  0.2810263E-009  0.1445592E+03  0.7561462E-02  0.1207323E+00
         -2   -1    0    0    0  501 -0.00000000000E+00  0.00000000000E+00  0.23226668830E+03  0.23226668830E+03  0.00000000000E+00 0.  1.
          2   -1    0    0  501    0  0.00000000000E+00 -0.00000000000E+00 -0.18082337584E+03  0.18082337584E+03  0.00000000000E+00 0. -1.
         25    2    1    2    0    0  0.85890295518E+02 -0.75082426716E+02  0.15861553145E+03  0.23199309766E+03  0.12508955543E+03 0.  0.
          5    1    3    3  502    0  0.43943164372E+02 -0.10230095188E+03  0.13893684518E+03  0.17809381180E+03  0.41800000000E+01 0. -1.
         -5    1    3    3    0  502  0.41947131146E+02  0.27218525164E+02  0.19678686270E+02  0.53899285865E+02  0.41800000000E+01 0. -1.
        -11    1    1    2    0    0 -0.67487859474E+02  0.21441492788E+02 -0.14242170813E+02  0.72230106042E+02  0.00000000000E+00 0.  1.
         11    1    1    2    0    0 -0.18402436044E+02  0.53640933928E+02 -0.92930048183E+02  0.10886686043E+03  0.00000000000E+00 0. -1.
</event>
<event>
 7    1  0.2810263E-009  0.2113684E+03  0.7561462E-02  0.1140487E+00
         -1   -1    0    0    0  501 -0.00000000000E+00  0.00000000000E+00  0.10998082044E+03  0.10998082044E+03  0.00000000000E+00 0.  1.
          1   -1    0    0  501    0  0.00000000000E+00 -0.00000000000E+00 -0.44680303432E+03  0.44680303432E+03  0.00000000000E+00 0. -1.
         25    2    1    2    0    0  0.37412016999E+02  0.18968812622E+03 -0.17531945529E+03  0.28942350638E+03  0.12509120831E+03 0.  0.
          5    1    3    3  502    0 -0.20929437759E+01 -0.12945080083E+02  0.56272721186E+01  0.14869233453E+02  0.41800000000E+01 0. -1.
         -5    1    3    3    0  502  0.39504960775E+02  0.20263320631E+03 -0.18094672740E+03  0.27455427293E+03  0.41800000000E+01 0. -1.
        -11    1    1    2    0    0 -0.52849902830E+02 -0.16598529608E+03 -0.10297750829E+03  0.20235759921E+03  0.00000000000E+00 0.  1.
         11    1    1    2    0    0  0.15437885831E+02 -0.23702830139E+02 -0.58525250309E+02  0.65002749167E+02  0.00000000000E+00 0. -1.
</event>
<event>
 7    1  0.2810263E-009  0.1470705E+03  0.7561462E-02  0.1204120E+00
          2   -1    0    0  501    0  0.00000000000E+00  0.00000000000E+00  0.13622991181E+04  0.13622991181E+04  0.00000000000E+00 0. -1.
         -2   -1    0    0    0  501 -0.00000000000E+00 -0.00000000000E+00 -0.24561229041E+02  0.24561229041E+02  0.00000000000E+00 0.  1.
         25    2    1    2    0    0  0.86748198837E+02 -0.56840830767E+02  0.10970794661E+04  0.11090478643E+04  0.12509068839E+03 0.  0.
          5    1    3    3  502    0 -0.30561598356E+02 -0.16728456146E+02  0.34822409557E+03  0.34998763646E+03  0.41800000000E+01 0. -1.
         -5    1    3    3    0  502  0.11730979719E+03 -0.40112374621E+02  0.74885537055E+03  0.75906022786E+03  0.41800000000E+01 0. -1.
        -11    1    1    2    0    0 -0.38522765448E+02  0.74316837742E+02  0.11631461269E+03  0.14330416936E+03  0.00000000000E+00 0.  1.
         11    1    1    2    0    0 -0.48225433389E+02 -0.17476006975E+02  0.12434381029E+03  0.13450831350E+03  0.00000000000E+00 0. -1.
</event>
<event>
 7    1  0.2810263E-009  0.9810618E+02  0.7561462E-02  0.1284330E+00
         -2   -1    0    0    0  501 -0.00000000000E+00  0.00000000000E+00  0.34323937107E+02  0.34323937107E+02  0.00000000000E+00 0.  1.
          2   -1    0    0  501    0  0.00000000000E+00 -0.00000000000E+00 -0.35740625798E+03  0.35740625798E+03  0.00000000000E+00 0. -1.
         25    2    1    2    0    0  0.16878179091E+00 -0.22835231602E+02 -0.20198695649E+03  0.23868114201E+03  0.12509388743E+03 0.  0.
          5    1    3    3  502    0 -0.37036048077E+02  0.39200553036E+02 -0.98054096740E+02  0.11198406361E+03  0.41800000000E+01 0.  1.
         -5    1    3    3    0  502  0.37204829868E+02 -0.62035784637E+02 -0.10393285975E+03  0.12669707840E+03  0.41800000000E+01 0.  1.
        -11    1    1    2    0    0 -0.11919798852E+02 -0.21072865028E+02 -0.54754877934E+00  0.24216668946E+02  0.00000000000E+00 0.  1.
         11    1    1    2    0    0  0.11751017061E+02  0.43908096630E+02 -0.12054781561E+03  0.12883238412E+03  0.00000000000E+00 0. -1.
</event>
<event>
 7    1  0.2810263E-009  0.1810566E+03  0.7561462E-02  0.1166784E+00
          2   -1    0    0  501    0  0.00000000000E+00  0.00000000000E+00  0.18811463268E+03  0.18811463268E+03  0.00000000000E+00 0. -1.
         -2   -1    0    0    0  501 -0.00000000000E+00 -0.00000000000E+00 -0.18845602833E+03  0.18845602833E+03  0.00000000000E+00 0.  1.
         25    2    1    2    0    0 -0.82746997206E+02 -0.11909454669E+03  0.50529803139E+02  0.19806427842E+03  0.12508245594E+03 0.  0.
          5    1    3    3  502    0  0.32788872152E+02 -0.19235253998E+02  0.44684130461E+01  0.38503821219E+02  0.41800000000E+01 0.  1.
         -5    1    3    3    0  502 -0.11553586936E+03 -0.99859292687E+02  0.46061390093E+02  0.15956045720E+03  0.41800000000E+01 0.  1.
        -11    1    1    2    0    0 -0.18798084289E+02  0.32969695034E+02 -0.10914472368E+02  0.39490435179E+02  0.00000000000E+00 0.  1.
         11    1    1    2    0    0  0.10154508150E+03  0.86124851651E+02 -0.39956726417E+02  0.13901594741E+03  0.00000000000E+00 0. -1.
</event>
<event>
 7    1  0.2810263E-009  0.1170746E+03  0.7561462E-02  0.1248003E+00
          1   -1    0    0  501    0  0.00000000000E+00  0.00000000000E+00  0.27357423830E+03  0.27357423830E+03  0.00000000000E+00 0. -1.
         -1   -1    0    0    0  501 -0.00000000000E+00 -0.00000000000E+00 -0.70702406299E+02  0.70702406299E+02  0.00000000000E+00 0.  1.
         25    2    1    2    0    0 -0.12804704863E+02  0.46255992408E+02  0.19864919557E+03  0.23960733439E+03  0.12508634814E+03 0.  0.
          5    1    3    3  502    0 -0.62423964998E+02 -0.10934183161E+01  0.11873308947E+03  0.13421239103E+03  0.41800000000E+01 0.  1.
         -5    1    3    3    0  502  0.49619260136E+02  0.47349410724E+02  0.79916106099E+02  0.10539494336E+03  0.41800000000E+01 0.  1.
        -11    1    1    2    0    0 -0.26515259032E+02 -0.56342173719E+02 -0.67095449431E+01  0.62630004744E+02  0.00000000000E+00 0.  1.
         11    1    1    2    0    0  0.39319963895E+02  0.10086181310E+02  0.10932181369E+02  0.42039305461E+02  0.00000000000E+00 0. -1.
</event>
<event>
 7    1  0.2810263E-009  0.1252516E+03  0.7561462E-02  0.1234677E+00
          2   -1    0    0  501    0  0.00000000000E+00  0.00000000000E+00  0.11144190744E+03  0.11144190744E+03  0.00000000000E+00 0. -1.
         -2   -1    0    0    0  501 -0.00000000000E+00 -0.00000000000E+00 -0.30357614009E+03  0.30357614009E+03  0.00000000000E+00 0.  1.
         25    2    1    2    0    0 -0.33938421239E+02  0.70887820330E+02 -0.24263626974E+03  0.28407302096E+03  0.12509285487E+03 0.  0.
          5    1    3    3  502    0 -0.48057238966E+02 -0.21468312855E+02 -0.69374153130E+02  0.87181604691E+02  0.41800000000E+01 0.  1.
         -5    1    3    3    0  502  0.14118817726E+02  0.92356133186E+02 -0.17326211661E+03  0.19689141627E+03  0.41800000000E+01 0.  1.
        -11    1    1    2    0    0  0.32589908671E+02  0.68289089021E+00 -0.13155055246E+02  0.35151443294E+02  0.00000000000E+00 0.  1.
         11    1    1    2    0    0  0.13485125689E+01 -0.71570711221E+02  0.63657092333E+02  0.95793583267E+02  0.00000000000E+00 0. -1.
</event>
<event>
 7    1  0.2810263E-009  0.1258816E+03  0.7561462E-02  0.1233698E+00
          1   -1    0    0  501    0  0.00000000000E+00  0.00000000000E+00  0.13091803487E+03  0.13091803487E+03  0.00000000000E+00 0. -1.
         -1   -1    0    0    0  501 -0.00000000000E+00 -0.00000000000E+00 -0.22890492670E+03  0.22890492670E+03  0.00000000000E+00 0.  1.
         25    2    1    2    0    0  0.79929266225E+02 -0.65433167631E+02  0.37717483341E+02  0.16655296938E+03  0.12508835292E+03 0.  0.
          5    1    3    3  502    0  0.31311363917E+02  0.20770297271E+02 -0.28549353337E+02  0.47374515671E+02  0.41800000000E+01 0. -1.
         -5    1    3    3    0  502  0.48617902308E+02 -0.86203464903E+02  0.66266836678E+02  0.11917845371E+03  0.41800000000E+01 0. -1.
        -11    1    1    2    0    0 -0.58621727060E+02  0.15537506336E+02 -0.12360670618E+03  0.13768274692E+03  0.00000000000E+00 0.  1.
         11    1    1    2    0    0 -0.21307539165E+02  0.49895661295E+02 -0.12097668995E+02  0.55587245268E+02  0.00000000000E+00 0. -1.
</event>
<event>
 7    1  0.2810263E-009  0.8102466E+02  0.7561462E-02  0.1326169E+00
         -3   -1    0    0    0  501 -0.00000000000E+00  0.00000000000E+00  0.37670374137E+02  0.37670374137E+02  0.00000000000E+00 0.  1.
          3   -1    0    0  501    0  0.00000000000E+00 -0.00000000000E+00 -0.40542403108E+03  0.40542403108E+03  0.00000000000E+00 0. -1.
         25    2    1    2    0    0 -0.36116311245E+02 -0.35380983880E+02 -0.15009276770E+03  0.20183068724E+03  0.12510629656E+03 0.  0.
          5    1    3    3  502    0 -0.10499296715E+02  0.40732002684E+01 -0.15397692937E+03  0.15444479069E+03  0.41800000000E+01 0. -1.
         -5    1    3    3    0  502 -0.25617014530E+02 -0.39454184148E+02  0.38841616722E+01  0.47385896553E+02  0.41800000000E+01 0. -1.
        -11    1    1    2    0    0 -0.15770799892E+02  0.47053934350E+02 -0.86408006650E+02  0.99645042427E+02  0.00000000000E+00 0.  1.
         11    1    1    2    0    0  0.51887111137E+02 -0.11672950470E+02 -0.13125288259E+03  0.14161867555E+03  0.00000000000E+00 0. -1.
</event>
<event>
 7    1  0.2810263E-009  0.1321384E+03  0.7561462E-02  0.1224317E+00
          4   -1    0    0  501    0  0.00000000000E+00  0.00000000000E+00  0.93298251114E+03  0.93298251114E+03  0.00000000000E+00 0.  1.
         -4   -1    0    0    0  501 -0.00000000000E+00 -0.00000000000E+00 -0.34030828260E+02  0.34030828260E+02  0.00000000000E+00 0. -1.
         25    2    1    2    0    0 -0.68671829398E+02 -0.68688576120E+02  0.75248901334E+03  0.76897354288E+03  0.12508658527E+03 0.  0.
          5    1    3    3  502    0 -0.47762666471E+02  0.17193855073E+02  0.12054855387E+03  0.13086759416E+03  0.41800000000E+01 0. -1.
         -5    1    3    3    0  502 -0.20909162928E+02 -0.85882431193E+02  0.63194045947E+03  0.63810594872E+03  0.41800000000E+01 0. -1.
        -11    1    1    2    0    0  0.39001187926E+02 -0.10414235114E+02  0.83262611679E+02  0.92532218477E+02  0.00000000000E+00 0.  1.
         11    1    1    2    0    0  0.29670641472E+02  0.79102811234E+02  0.63200057865E+02  0.10550757804E+03  0.00000000000E+00 0. -1.
</event>
<event>
 7    1  0.2810263E-009  0.1708193E+03  0.7561462E-02  0.1176996E+00
          1   -1    0    0  501    0  0.00000000000E+00  0.00000000000E+00  0.25463752262E+04  0.25463752262E+04  0.00000000000E+00 0. -1.
         -1   -1    0    0    0  501 -0.00000000000E+00 -0.00000000000E+00 -0.14101300894E+02  0.14101300894E+02  0.00000000000E+00 0.  1.
         25    2    1    2    0    0 -0.48517738294E+02  0.13078624918E+03  0.17347779983E+04  0.17448671800E+04  0.12509100130E+03 0.  0.
          5    1    3    3  502    0  0.92835699554E+01  0.10832252232E+03  0.14102658162E+04  0.14144564674E+04  0.41800000000E+01 0. -1.
         -5    1    3    3    0  502 -0.57801308250E+02  0.22463726869E+02  0.32451218209E+03  0.33041071257E+03  0.41800000000E+01 0. -1.
        -11    1    1    2    0    0  0.78627860751E+02 -0.84098887716E+02  0.55819590595E+03  0.56994528932E+03  0.00000000000E+00 0.  1.
         11    1    1    2    0    0 -0.30110122457E+02 -0.46687361468E+02  0.23930002102E+03  0.24566405772E+03  0.00000000000E+00 0. -1.
</event>
<event>
 7    1  0.2810263E-009  0.1322397E+03  0.7561462E-02  0.1224170E+00
         -3   -1    0    0    0  501 -0.00000000000E+00  0.00000000000E+00  0.17676319244E+03  0.17676319244E+03  0.00000000000E+00 0.  1.
          3   -1    0    0  501    0  0.00000000000E+00 -0.00000000000E+00 -0.12713704420E+03  0.12713704420E+03  0.00000000000E+00 0. -1.
         25    2    1    2    0    0  0.11818774972E+02  0.10054391215E+03  0.69581127562E+02  0.17532151365E+03  0.12508932058E+03 0.  0.
          5    1    3    3  502    0  0.53909091647E+02  0.80768671096E+02  0.72850500692E+01  0.97469547795E+02  0.41800000000E+01 0.  1.
         -5    1    3    3    0  502 -0.42090316676E+02  0.19775241051E+02  0.62296077493E+02  0.77851965855E+02  0.41800000000E+01 0.  1.
        -11    1    1    2    0    0 -0.29927360096E+02 -0.97798613388E+02 -0.31393392611E+02  0.10698486231E+03  0.00000000000E+00 0. -1.
         11    1    1    2    0    0  0.18108585125E+02 -0.27452987588E+01  0.11438413287E+02  0.21593860679E+02  0.00000000000E+00 0.  1.
</event>
<event>
 7    1  0.2810263E-009  0.9568140E+02  0.7561462E-02  0.1289649E+00
         -4   -1    0    0    0  501 -0.00000000000E+00  0.00000000000E+00  0.69145573465E+03  0.69145573465E+03  0.00000000000E+00 0.  1.
          4   -1    0    0  501    0  0.00000000000E+00 -0.00000000000E+00 -0.19681194422E+02  0.19681194422E+02  0.00000000000E+00 0. -1.
         25    2    1    2    0    0 -0.39279646619E+01 -0.14541561737E+02  0.50927283298E+03  0.52462707330E+03  0.12509141337E+03 0.  0.
          5    1    3    3  502    0  0.32957676815E+02  0.38201766820E+02  0.12307913991E+03  0.13308467429E+03  0.41800000000E+01 0.  1.
         -5    1    3    3    0  502 -0.36885641477E+02 -0.52743328557E+02  0.38619369307E+03  0.39154239901E+03  0.41800000000E+01 0.  1.
        -11    1    1    2    0    0 -0.16127297370E+02 -0.26236066959E+02  0.12137180061E+03  0.12521794964E+03  0.00000000000E+00 0.  1.
         11    1    1    2    0    0  0.20055262032E+02  0.40777628695E+02  0.41129906638E+02  0.61291906132E+02  0.00000000000E+00 0. -1.
</event>
<event>
 7    1  0.2810263E-009  0.2935402E+03  0.7561462E-02  0.1088515E+00
          1   -1    0    0  501    0  0.00000000000E+00  0.00000000000E+00  0.18771344003E+04  0.18771344003E+04  0.00000000000E+00 0. -1.
         -1   -1    0    0    0  501 -0.00000000000E+00 -0.00000000000E+00 -0.54492371772E+02  0.54492371772E+02  0.00000000000E+00 0.  1.
         25    2    1    2    0    0  0.26604979639E+03  0.10391798951E+03  0.64637063750E+03  0.71765170845E+03  0.12509009119E+03 0.  0.
          5    1    3    3  502    0  0.95992976073E+02  0.88446192824E+02  0.37407434826E+03  0.39621518258E+03  0.41800000000E+01 0.  1.
         -5    1    3    3    0  502  0.17005682031E+03  0.15471796684E+02  0.27229628924E+03  0.32143652587E+03  0.41800000000E+01 0.  1.
        -11    1    1    2    0    0 -0.97580621574E+02 -0.40919171196E+02  0.26931817714E+03  0.28935901026E+03  0.00000000000E+00 0.  1.
         11    1    1    2    0    0 -0.16846917481E+03 -0.62998818312E+02  0.90695321391E+03  0.92461605340E+03  0.00000000000E+00 0. -1.
</event>
<event>
 7    1  0.2810263E-009  0.9930362E+02  0.7561462E-02  0.1281767E+00
         -1   -1    0    0    0  501 -0.00000000000E+00  0.00000000000E+00  0.28605351613E+02  0.28605351613E+02  0.00000000000E+00 0.  1.
          1   -1    0    0  501    0  0.00000000000E+00 -0.00000000000E+00 -0.54305352820E+03  0.54305352820E+03  0.00000000000E+00 0. -1.
         25    2    1    2    0    0  0.27310420573E+02 -0.53523546405E+02 -0.34044667183E+03  0.36764345060E+03  0.12508853392E+03 0.  0.
          5    1    3    3  502    0  0.56368828118E+02 -0.51175756583E+02 -0.32607767942E+03  0.33487389905E+03  0.41800000000E+01 0.  1.
         -5    1    3    3    0  502 -0.29058407545E+02 -0.23477898220E+01 -0.14368992404E+02  0.32769551550E+02  0.41800000000E+01 0.  1.
        -11    1    1    2    0    0 -0.48866607218E+02  0.19465953206E+02 -0.46202328373E+02  0.70010883313E+02  0.00000000000E+00 0.  1.
         11    1    1    2    0    0  0.21556186645E+02  0.34057593199E+02 -0.12779917639E+03  0.13400454590E+03  0.00000000000E+00 0. -1.
</event>
<event>
 7    1  0.2810263E-009  0.2073287E+03  0.7561462E-02  0.1143699E+00
         -1   -1    0    0    0  501 -0.00000000000E+00  0.00000000000E+00  0.54393436433E+02  0.54393436433E+02  0.00000000000E+00 0.  1.
          1   -1    0    0  501    0  0.00000000000E+00 -0.00000000000E+00 -0.94958231758E+03  0.94958231758E+03  0.00000000000E+00 0. -1.
         25    2    1    2    0    0 -0.18776436285E+03  0.64699289109E+02 -0.52782928102E+03  0.57766092842E+03  0.12508774660E+03 0.  0.
          5    1    3    3  502    0 -0.86157914983E+02 -0.38173428020E+01 -0.35753618787E+03  0.36781429616E+03  0.41800000000E+01 0.  1.
         -5    1    3    3    0  502 -0.10160644787E+03  0.68516631911E+02 -0.17029309315E+03  0.20984663226E+03  0.41800000000E+01 0.  1.
        -11    1    1    2    0    0  0.13158004657E+03 -0.70383550445E+02 -0.19897475192E+03  0.24871289619E+03  0.00000000000E+00 0. -1.
         11    1    1    2    0    0  0.56184316277E+02  0.56842613361E+01 -0.16838484820E+03  0.17760192940E+03  0.00000000000E+00 0.  1.
</event>
<event>
 7    1  0.2810263E-009  0.8810349E+02  0.7561462E-02  0.1307510E+00
         -2   -1    0    0    0  501 -0.00000000000E+00  0.00000000000E+00  0.29711722826E+02  0.29711722826E+02  0.00000000000E+00 0.  1.
          2   -1    0    0  501    0  0.00000000000E+00 -0.00000000000E+00 -0.45698007871E+03  0.45698007871E+03  0.00000000000E+00 0. -1.
         25    2    1    2    0    0 -0.98909785930E+00  0.34921848939E+02 -0.19691191718E+03  0.23588652810E+03  0.12509051587E+03 0.  0.
          5    1    3    3  502    0 -0.28283483606E+01  0.56683945114E+02 -0.24351619575E+02  0.61899458512E+02  0.41800000000E+01 0.  1.
         -5    1    3    3    0  502  0.18392505013E+01 -0.21762096174E+02 -0.17256029761E+03  0.17398706958E+03  0.41800000000E+01 0.  1.
        -11    1    1    2    0    0  0.39654411127E+02  0.67402015519E+01 -0.12178127186E+03  0.12825202071E+03  0.00000000000E+00 0. -1.
         11    1    1    2    0    0 -0.38665313268E+02 -0.41662050491E+02 -0.10857516684E+03  0.12255325273E+03  0.00000000000E+00 0.  1.
</event>
<event>
 7    1  0.2810263E-009  0.2043363E+03  0.7561462E-02  0.1146131E+00
          2   -1    0    0  501    0  0.00000000000E+00  0.00000000000E+00  0.11618145628E+04  0.11618145628E+04  0.00000000000E+00 0. -1.
         -2   -1    0    0    0  501 -0.00000000000E+00 -0.00000000000E+00 -0.44004270178E+02  0.44004270178E+02  0.00000000000E+00 0.  1.
         25    2    1    2    0    0  0.19294400846E+03 -0.24827280192E+02  0.69070455267E+03  0.72839831546E+03  0.12509013809E+03 0.  0.
          5    1    3    3  502    0  0.30524157373E+02 -0.14266893449E+02  0.22708669822E+02  0.40846352555E+02  0.41800000000E+01 0. -1.
         -5    1    3    3    0  502  0.16241985108E+03 -0.10560386743E+02  0.66799588285E+03  0.68755196291E+03  0.41800000000E+01 0. -1.
        -11    1    1    2    0    0 -0.19947203835E+02 -0.24897756347E+02  0.86148725960E+02  0.91866164590E+02  0.00000000000E+00 0. -1.
         11    1    1    2    0    0 -0.17299680462E+03  0.49725036539E+02  0.34095701397E+03  0.38555435291E+03  0.00000000000E+00 0.  1.
</event>
<event>
 7    1  0.2810263E-009  0.9342286E+02  0.7561462E-02  0.1294768E+00
         -1   -1    0    0    0  501 -0.00000000000E+00  0.00000000000E+00  0.45270664869E+02  0.45270664869E+02  0.00000000000E+00 0.  1.
          1   -1    0    0  501    0  0.00000000000E+00 -0.00000000000E+00 -0.50941885457E+03  0.50941885457E+03  0.00000000000E+00 0. -1.
         25    2    1    2    0    0  0.68505730122E+02 -0.30042581759E+02 -0.40620404109E+03  0.43156063371E+03  0.12508903145E+03 0.  0.
          5    1    3    3  502    0  0.10835959361E+01 -0.43235209987E+01 -0.31558763317E+03  0.31564678618E+03  0.41800000000E+01 0. -1.
         -5    1    3    3    0  502  0.67422134186E+02 -0.25719060761E+02 -0.90616407917E+02  0.11591384753E+03  0.41800000000E+01 0. -1.
        -11    1    1    2    0    0 -0.86038799119E+02  0.20323935292E+02 -0.49994361894E+02  0.10156364271E+03  0.00000000000E+00 0. -1.
         11    1    1    2    0    0  0.17533068998E+02  0.97186464670E+01 -0.79497867133E+01  0.21565243018E+02  0.00000000000E+00 0.  1.
</event>
<event>
 7    1  0.2810263E-009  0.1422847E+03  0.7561462E-02  0.1210287E+00
         -1   -1    0    0    0  501 -0.00000000000E+00  0.00000000000E+00  0.80245146653E+02  0.80245146653E+02  0.00000000000E+00 0.  1.
          1   -1    0    0  501    0  0.00000000000E+00 -0.00000000000E+00 -0.36416358672E+03  0.36416358672E+03  0.00000000000E+00 0. -1.
         25    2    1    2    0    0  0.10183850713E+00  0.96824193999E+02 -0.26645726496E+03  0.30987377147E+03  0.12508934919E+03 0.  0.
          5    1    3    3  502    0 -0.57722404970E+02  0.71871938553E+02 -0.18583519744E+03  0.20748408275E+03  0.41800000000E+01 0. -1.
         -5    1    3    3    0  502  0.57824243478E+02  0.24952255445E+02 -0.80622067525E+02  0.10238968873E+03  0.41800000000E+01 0. -1.
        -11    1    1    2    0    0  0.42702928935E+02 -0.48300424133E+02 -0.25502999003E+02  0.69331623875E+02  0.00000000000E+00 0. -1.
         11    1    1    2    0    0 -0.42804767443E+02 -0.48523769866E+02  0.80418238986E+01  0.65203338024E+02  0.00000000000E+00 0.  1.
</event>
<event>
 7    1  0.2810263E-009  0.1055673E+03  0.7561462E-02  0.1269006E+00
         -1   -1    0    0    0  501 -0.00000000000E+00  0.00000000000E+00  0.32539977387E+03  0.32539977387E+03  0.00000000000E+00 0.  1.
          1   -1    0    0  501    0  0.00000000000E+00 -0.00000000000E+00 -0.40175302456E+02  0.40175302456E+02  0.00000000000E+00 0. -1.
         25    2    1    2    0    0 -0.28647774016E+02 -0.15288689034E+02  0.20490358714E+03  0.24225454794E+03  0.12508935609E+03 0.  0.
          5    1    3    3  502    0  0.36263221243E+02 -0.37767425131E+02  0.48979478333E+02  0.71818251954E+02  0.41800000000E+01 0.  1.
         -5    1    3    3    0  502 -0.64910995259E+02  0.22478736097E+02  0.15592410881E+03  0.17043629599E+03  0.41800000000E+01 0.  1.
        -11    1    1    2    0    0 -0.21708596859E+02 -0.19015326130E+02  0.43264582864E+02  0.52006441292E+02  0.00000000000E+00 0.  1.
         11    1    1    2    0    0  0.50356370876E+02  0.34304015164E+02  0.37056301414E+02  0.71314087098E+02  0.00000000000E+00 0. -1.
</event>
<event>
 7    1  0.2810263E-009  0.1402045E+03  0.7561462E-02  0.1213054E+00
         -4   -1    0    0    0  501 -0.00000000000E+00  0.00000000000E+00  0.86718963997E+03  0.86718963997E+03  0.00000000000E+00 0.  1.
          4   -1    0    0  501    0  0.00000000000E+00 -0.00000000000E+00 -0.24045992402E+02  0.24045992402E+02  0.00000000000E+00 0. -1.
         25    2    1    2    0    0  0.90645806877E+02  0.59177873750E+01  0.38256808448E+03  0.41262257222E+03  0.12508942935E+03 0.  0.
          5    1    3    3  502    0  0.65162315112E+02  0.62676985142E+02  0.19550188021E+03  0.21543674093E+03  0.41800000000E+01 0.  1.
         -5    1    3    3    0  502  0.25483491765E+02 -0.56759197766E+02  0.18706620427E+03  0.19718583130E+03  0.41800000000E+01 0.  1.
        -11    1    1    2    0    0 -0.10901732552E+03 -0.43660389820E+01  0.42172530050E+03  0.43560999603E+03  0.00000000000E+00 0.  1.
         11    1    1    2    0    0  0.18371518640E+02 -0.15517483930E+01  0.38850262589E+02  0.43003064117E+02  0.00000000000E+00 0. -1.
</event>
<event>
 7    1  0.2810263E-009  0.3375364E+03  0.7561462E-02  0.1067850E+00
          3   -1    0    0  501    0  0.00000000000E+00  0.00000000000E+00  0.73845545427E+03  0.73845545427E+03  0.00000000000E+00 0. -1.
         -3   -1    0    0    0  501 -0.00000000000E+00 -0.00000000000E+00 -0.16545638844E+03  0.16545638844E+03  0.00000000000E+00 0.  1.
         25    2    1    2    0    0  0.19293773669E+03 -0.26419300323E+03  0.21706177837E+03  0.41205103083E+03  0.12508926088E+03 0.  0.
          5    1    3    3  502    0  0.37214357570E+02 -0.14092633287E+03  0.12926441850E+03  0.19486380371E+03  0.41800000000E+01 0.  1.
         -5    1    3    3    0  502  0.15572337912E+03 -0.12326667037E+03  0.87797359868E+02  0.21718722713E+03  0.41800000000E+01 0.  1.
        -11    1    1    2    0    0 -0.71938446632E+02  0.13890270227E+03  0.22464319280E+03  0.27374014114E+03  0.00000000000E+00 0. -1.
         11    1    1    2    0    0 -0.12099929006E+03  0.12529030096E+03  0.13129409466E+03  0.21812067074E+03  0.00000000000E+00 0.  1.
</event>
<event>
 7    1  0.2810263E-009  0.1705719E+03  0.7561462E-02  0.1177253E+00
          1   -1    0    0  501    0  0.00000000000E+00  0.00000000000E+00  0.43065633626E+03  0.43065633626E+03  0.00000000000E+00 0. -1.
         -1   -1    0    0    0  501 -0.00000000000E+00 -0.00000000000E+00 -0.11421194965E+03  0.11421194965E+03  0.00000000000E+00 0.  1.
         25    2    1    2    0    0  0.11422377619E+03 -0.95274911096E+02  0.11560183610E+02  0.19469282608E+03  0.12508908406E+03 0.  0.
          5    1    3    3  502    0  0.12609930755E+03 -0.91769836686E+02 -0.23041211478E+02  0.15770576437E+03  0.41800000000E+01 0. -1.
         -5    1    3    3    0  502 -0.11875531359E+02 -0.35050744102E+01  0.34601395088E+02  0.36987061707E+02  0.41800000000E+01 0. -1.
        -11    1    1    2    0    0 -0.64423046749E+02 -0.15008793266E+00  0.12206149268E+03  0.13801941702E+03  0.00000000000E+00 0.  1.
         11    1    1    2    0    0 -0.49800729444E+02  0.95424999029E+02  0.18282271031E+03  0.21215604280E+03  0.00000000000E+00 0. -1.
</event>
<event>
 7    1  0.2810263E-009  0.1067391E+03  0.7561462E-02  0.1266731E+00
          1   -1    0    0  501    0  0.00000000000E+00  0.00000000000E+00  0.19632102071E+03  0.19632102071E+03  0.00000000000E+00 0. -1.
         -1   -1    0    0    0  501 -0.00000000000E+00 -0.00000000000E+00 -0.13765162684E+03  0.13765162684E+03  0.00000000000E+00 0.  1.
         25    2    1    2    0    0 -0.24210665819E+02  0.42970360147E+02 -0.82420574438E+02  0.15771292118E+03  0.12509039222E+03 0.  0.
          5    1    3    3  502    0 -0.61276019212E+02  0.41318127711E+02 -0.93040868709E+02  0.11889496986E+03  0.41800000000E+01 0.  1.
         -5    1    3    3    0  502  0.37065353393E+02  0.16522324360E+01  0.10620294271E+02  0.38817951319E+02  0.41800000000E+01 0.  1.
        -11    1    1    2    0    0  0.18376707010E+02  0.26585268817E+02  0.67468054498E+02  0.74809212376E+02  0.00000000000E+00 0. -1.
         11    1    1    2    0    0  0.58339588086E+01 -0.69555628964E+02  0.73621913818E+02  0.10145051400E+03  0.00000000000E+00 0.  1.
</event>
<event>
 7    1  0.2810263E-009  0.1594467E+03  0.7561462E-02  0.1189323E+00
          1   -1    0    0  501    0  0.00000000000E+00  0.00000000000E+00  0.85155926360E+02  0.85155926360E+02  0.00000000000E+00 0. -1.
         -1   -1    0    0    0  501 -0.00000000000E+00 -0.00000000000E+00 -0.39588950307E+03  0.39588950307E+03  0.00000000000E+00 0.  1.
         25    2    1    2    0    0  0.20569340619E+02  0.14345512963E+03 -0.12601552433E+03  0.22919275864E+03  0.12508771422E+03 0.  0.
          5    1    3    3  502    0  0.38447372965E+02  0.12107819782E+03 -0.32350137609E+02  0.13115690709E+03  0.41800000000E+01 0.  1.
         -5    1    3    3    0  502 -0.17878032346E+02  0.22376931806E+02 -0.93665386726E+02  0.98035851545E+02  0.41800000000E+01 0.  1.
        -11    1    1    2    0    0 -0.40555035058E+02 -0.38217912190E+02 -0.10305358900E+03  0.11715528963E+03  0.00000000000E+00 0.  1.
         11    1    1    2    0    0  0.19985694439E+02 -0.10523721743E+03 -0.81664463374E+02  0.13469738117E+03  0.00000000000E+00 0. -1.
</event>
<event>
 7    1  0.2810263E-009  0.1311966E+03  0.7561462E-02  0.1225691E+00
         -2   -1    0    0    0  501 -0.00000000000E+00  0.00000000000E+00  0.41534770029E+03  0.41534770029E+03  0.00000000000E+00 0.  1.
          2   -1    0    0  501    0  0.00000000000E+00 -0.00000000000E+00 -0.10152116099E+03  0.10152116099E+03  0.00000000000E+00 0. -1.
         25    2    1    2    0    0  0.54468726282E+02 -0.11317235475E+03  0.11378880637E+02  0.17762775340E+03  0.12508923147E+03 0.  0.
          5    1    3    3  502    0  0.76101406209E+01 -0.13863348544E+02  0.56511977325E+02  0.58831816684E+02  0.41800000000E+01 0.  1.
         -5    1    3    3    0  502  0.46858585661E+02 -0.99309006202E+02 -0.45133096688E+02  0.11879593671E+03  0.41800000000E+01 0.  1.
        -11    1    1    2    0    0 -0.14450501508E+01  0.63419938248E+02  0.64646851700E+02  0.90572579582E+02  0.00000000000E+00 0. -1.
         11    1    1    2    0    0 -0.53023676131E+02  0.49752416498E+02  0.23780080696E+03  0.24866852831E+03  0.00000000000E+00 0.  1.
</event>
<event>
 7    1  0.2810263E-009  0.1175442E+03  0.7561462E-02  0.1247204E+00
         -1   -1    0    0    0  501 -0.00000000000E+00  0.00000000000E+00  0.70965630574E+02  0.70965630574E+02  0.00000000000E+00 0.  1.
          1   -1    0    0  501    0  0.00000000000E+00 -0.00000000000E+00 -0.37071725674E+03  0.37071725674E+03  0.00000000000E+00 0. -1.
         25    2    1    2    0    0  0.91368049740E+02 -0.96983899092E+01 -0.56802733041E+02  0.16527331793E+03  0.12508612976E+03 0.  0.
          5    1    3    3  502    0  0.10326948536E+03  0.10051516442E+02 -0.16536703138E-01  0.10384166920E+03  0.41800000000E+01 0. -1.
         -5    1    3    3    0  502 -0.11901435618E+02 -0.19749906351E+02 -0.56786196338E+02  0.61431648725E+02  0.41800000000E+01 0. -1.
        -11    1    1    2    0    0 -0.29363224406E+00  0.16482869630E+02  0.39748619302E+00  0.16490276116E+02  0.00000000000E+00 0.  1.
         11    1    1    2    0    0 -0.91074417496E+02 -0.67844797203E+01 -0.24334637932E+03  0.25991929327E+03  0.00000000000E+00 0. -1.
</event>
<event>
 7    1  0.2810263E-009  0.2488307E+03  0.7561462E-02  0.1114046E+00
          2   -1    0    0  501    0  0.00000000000E+00  0.00000000000E+00  0.25386710259E+03  0.25386710259E+03  0.00000000000E+00 0. -1.
         -2   -1    0    0    0  501 -0.00000000000E+00 -0.00000000000E+00 -0.26649990156E+03  0.26649990156E+03  0.00000000000E+00 0.  1.
         25    2    1    2    0    0 -0.20917527824E+03 -0.10587366326E+03  0.14823493453E+02  0.26614174050E+03  0.12509260761E+03 0.  0.
          5    1    3    3  502    0 -0.27122334941E+02  0.18018619322E+02 -0.26325524305E+02  0.42080842730E+02  0.41800000000E+01 0.  1.
         -5    1    3    3    0  502 -0.18205294330E+03 -0.12389228258E+03  0.41149017758E+02  0.22406089777E+03  0.41800000000E+01 0.  1.
        -11    1    1    2    0    0 -0.34982091464E+01  0.11299327403E+02 -0.17672836329E+02  0.21265968375E+02  0.00000000000E+00 0.  1.
         11    1    1    2    0    0  0.21267348739E+03  0.94574335852E+02 -0.97834560959E+01  0.23295929527E+03  0.00000000000E+00 0. -1.
</event>
<event>
 7    1  0.2810263E-009  0.1490348E+03  0.7561462E-02  0.1201664E+00
         -2   -1    0    0    0  501 -0.00000000000E+00  0.00000000000E+00  0.46284859639E+02  0.46284859639E+02  0.00000000000E+00 0.  1.
          2   -1    0    0  501    0  0.00000000000E+00 -0.00000000000E+00 -0.12882303312E+04  0.12882303312E+04  0.00000000000E+00 0. -1.
         25    2    1    2    0    0 -0.47155099532E+02 -0.12235565774E+03 -0.11147632265E+04  0.11293976561E+04  0.12508998325E+03 0.  0.
          5    1    3    3  502    0 -0.51480837038E+02 -0.63871207545E+02 -0.26118759175E+03  0.27379963152E+03  0.41800000000E+01 0.  1.
         -5    1    3    3    0  502  0.43257375064E+01 -0.58484450194E+02 -0.85357563477E+03  0.85559802454E+03  0.41800000000E+01 0.  1.
        -11    1    1    2    0    0 -0.23238883796E+02  0.11781052837E+02 -0.39840473960E+02  0.47603595362E+02  0.00000000000E+00 0.  1.
         11    1    1    2    0    0  0.70393983327E+02  0.11057460490E+03 -0.87341771093E+02  0.15751393943E+03  0.00000000000E+00 0. -1.
</event>
<event>
 7    1  0.2810263E-009  0.1274440E+03  0.7561462E-02  0.1231298E+00
         -1   -1    0    0    0  501 -0.00000000000E+00  0.00000000000E+00  0.67361251716E+02  0.67361251716E+02  0.00000000000E+00 0.  1.
          1   -1    0    0  501    0  0.00000000000E+00 -0.00000000000E+00 -0.28662235964E+03  0.28662235964E+03  0.00000000000E+00 0. -1.
         25    2    1    2    0    0 -0.53923377077E+01  0.86349757814E+02 -0.10647372875E+03  0.18565744315E+03  0.12508666317E+03 0.  0.
          5    1    3    3  502    0 -0.49133614364E+02  0.86332292063E+02 -0.42682670592E+02  0.10819731735E+03  0.41800000000E+01 0.  1.
         -5    1    3    3    0  502  0.43741276656E+02  0.17465750803E-01 -0.63791058154E+02  0.77460125800E+02  0.41800000000E+01 0.  1.
        -11    1    1    2    0    0 -0.14933720015E+02 -0.89691194357E+02 -0.11609458947E+03  0.14746348715E+03  0.00000000000E+00 0. -1.
         11    1    1    2    0    0  0.20326057723E+02  0.33414365433E+01  0.33072102942E+01  0.20862681052E+02  0.00000000000E+00 0.  1.
</event>
<event>
 7    1  0.2810263E-009  0.8954770E+02  0.7561462E-02  0.1303951E+00
          2   -1    0    0  501    0  0.00000000000E+00  0.00000000000E+00  0.33226818272E+03  0.33226818272E+03  0.00000000000E+00 0. -1.
         -2   -1    0    0    0  501 -0.00000000000E+00 -0.00000000000E+00 -0.52180569381E+02  0.52180569381E+02  0.00000000000E+00 0.  1.
         25    2    1    2    0    0  0.80433188887E+01 -0.74954572341E+02  0.15231213532E+03  0.21101953146E+03  0.12508946078E+03 0.  0.
          5    1    3    3  502    0 -0.12504284354E+01  0.85691215044E+00  0.13173074494E+03  0.13180576403E+03  0.41800000000E+01 0.  1.
         -5    1    3    3    0  502  0.92937473241E+01 -0.75811484491E+02  0.20581390384E+02  0.79213767428E+02  0.41800000000E+01 0.  1.
        -11    1    1    2    0    0  0.24779630812E+02  0.12855508597E+02  0.88833681412E+02  0.93116685710E+02  0.00000000000E+00 0.  1.
         11    1    1    2    0    0 -0.32822949700E+02  0.62099063744E+02  0.38941796612E+02  0.80312534939E+02  0.00000000000E+00 0. -1.
</event>
<event>
 7    1  0.2810263E-009  0.1778687E+03  0.7561462E-02  0.1169882E+00
          2   -1    0    0  501    0  0.00000000000E+00  0.00000000000E+00  0.11379809387E+03  0.11379809387E+03  0.00000000000E+00 0. -1.
         -2   -1    0    0    0  501 -0.00000000000E+00 -0.00000000000E+00 -0.35698919949E+03  0.35698919949E+03  0.00000000000E+00 0.  1.
         25    2    1    2    0    0 -0.13596398629E+03  0.91190718039E+02 -0.76037992874E+02  0.21961952272E+03  0.12509598625E+03 0.  0.
          5    1    3    3  502    0 -0.11282495484E+03  0.11315558014E+03 -0.91216613577E+02  0.18404238301E+03  0.41800000000E+01 0. -1.
         -5    1    3    3    0  502 -0.23139031457E+02 -0.21964862101E+02  0.15178620702E+02  0.35577139715E+02  0.41800000000E+01 0. -1.
        -11    1    1    2    0    0  0.10350193231E+03 -0.69231361217E+02 -0.17127876180E+03  0.21175940501E+03  0.00000000000E+00 0.  1.
         11    1    1    2    0    0  0.32462053988E+02 -0.21959356822E+02  0.41256490577E+01  0.39408365626E+02  0.00000000000E+00 0. -1.
</event>
<event>
 7    1  0.2810263E-009  0.1062870E+03  0.7561462E-02  0.1267604E+00
          2   -1    0    0  501    0  0.00000000000E+00  0.00000000000E+00  0.94971885057E+03  0.94971885057E+03  0.00000000000E+00 0. -1.
         -2   -1    0    0    0  501 -0.00000000000E+00 -0.00000000000E+00 -0.17038058552E+02  0.17038058552E+02  0.00000000000E+00 0.  1.
         25    2    1    2    0    0  0.28501350803E+02 -0.38020555813E+02  0.69029996838E+03  0.70314981495E+03  0.12509087200E+03 0.  0.
          5    1    3    3  502    0 -0.24036657973E+02 -0.68470687581E+02  0.35391350174E+03  0.36130075436E+03  0.41800000000E+01 0.  1.
         -5    1    3    3    0  502  0.52538008776E+02  0.30450131767E+02  0.33638646664E+03  0.34184906059E+03  0.41800000000E+01 0.  1.
        -11    1    1    2    0    0 -0.22867717092E+02 -0.13921362875E+02  0.15812879042E+02  0.31093149935E+02  0.00000000000E+00 0.  1.
         11    1    1    2    0    0 -0.56336337103E+01  0.51941918689E+02  0.22656794460E+03  0.23251394424E+03  0.00000000000E+00 0. -1.
</event>
<event>
 7    1  0.3199028E-009  0.1296457E+03  0.7561462E-02  0.1227982E+00
         -2   -1    0    0    0  501 -0.00000000000E+00  0.00000000000E+00  0.49089541061E+02  0.49089541061E+02  0.00000000000E+00 0.  1.
          2   -1    0    0  501    0  0.00000000000E+00 -0.00000000000E+00 -0.41264744554E+03  0.41264744554E+03  0.00000000000E+00 0. -1.
         25    2    1    2    0    0  0.86339201461E+02 -0.38459929248E+01 -0.24589933997E+03  0.28910709329E+03  0.12508867503E+03 0.  0.
          5    1    3    3  502    0  0.85142795986E+02  0.44960179070E+02 -0.19980723927E+03  0.22183579214E+03  0.41800000000E+01 0. -1.
         -5    1    3    3    0  502  0.11964054747E+01 -0.48806171995E+02 -0.46092100701E+02  0.67271301146E+02  0.41800000000E+01 0. -1.
        -11    1    1    2    0    0 -0.11833718101E+02  0.32117060956E+02 -0.49330091501E+01  0.34581455548E+02  0.00000000000E+00 0.  1.
         11    1    1    2    0    0 -0.74505483360E+02 -0.28271068031E+02 -0.11272555535E+03  0.13804843776E+03  0.00000000000E+00 0. -1.
</event>
<event>
 7    1  0.2810263E-009  0.1203188E+03  0.7561462E-02  0.1242572E+00
         -2   -1    0    0    0  501 -0.00000000000E+00  0.00000000000E+00  0.38883365019E+02  0.38883365019E+02  0.00000000000E+00 0.  1.
          2   -1    0    0  501    0  0.00000000000E+00 -0.00000000000E+00 -0.49808877788E+03  0.49808877788E+03  0.00000000000E+00 0. -1.
         25    2    1    2    0    0 -0.47937536262E+02  0.65315333236E+02 -0.29795761471E+03  0.33315367830E+03  0.12509409683E+03 0.  0.
          5    1    3    3  502    0 -0.47421165380E+02  0.95797454117E+02 -0.16471346640E+03  0.19640243775E+03  0.41800000000E+01 0.  1.
         -5    1    3    3    0  502 -0.51637088157E+00 -0.30482120881E+02 -0.13324414831E+03  0.13675124054E+03  0.41800000000E+01 0.  1.
        -11    1    1    2    0    0  0.56562521578E+02 -0.25309138195E+02 -0.14856923756E+03  0.16097418946E+03  0.00000000000E+00 0. -1.
         11    1    1    2    0    0 -0.86249853166E+01 -0.40006195041E+02 -0.12678560587E+02  0.42844275136E+02  0.00000000000E+00 0.  1.
</event>
<event>
 7    1  0.2810263E-009  0.9269008E+02  0.7561462E-02  0.1296465E+00
         -1   -1    0    0    0  501 -0.00000000000E+00  0.00000000000E+00  0.66128241265E+03  0.66128241265E+03  0.00000000000E+00 0.  1.
          1   -1    0    0  501    0  0.00000000000E+00 -0.00000000000E+00 -0.26188491332E+02  0.26188491332E+02  0.00000000000E+00 0. -1.
         25    2    1    2    0    0  0.31361684786E+02  0.25006553544E+02  0.51092318565E+03  0.52754190777E+03  0.12509628222E+03 0.  0.
          5    1    3    3  502    0  0.32471552526E+02  0.58841226250E+02  0.14321660674E+03  0.15825662854E+03  0.41800000000E+01 0. -1.
         -5    1    3    3    0  502 -0.11098677400E+01 -0.33834672706E+02  0.36770657891E+03  0.36928527924E+03  0.41800000000E+01 0. -1.
        -11    1    1    2    0    0  0.23719069344E+02 -0.70230317234E+00  0.84646936751E+02  0.87910132417E+02  0.00000000000E+00 0.  1.
         11    1    1    2    0    0 -0.55080754129E+02 -0.24304250372E+02  0.39523798916E+02  0.72018863795E+02  0.00000000000E+00 0. -1.
</event>
<event>
 7    1  0.2810263E-009  0.1607501E+03  0.7561462E-02  0.1187853E+00
          4   -1    0    0  501    0  0.00000000000E+00  0.00000000000E+00  0.15877790755E+04  0.15877790755E+04  0.00000000000E+00 0. -1.
         -4   -1    0    0    0  501 -0.00000000000E+00 -0.00000000000E+00 -0.21344685371E+02  0.21344685371E+02  0.00000000000E+00 0.  1.
         25    2    1    2    0    0 -0.14133087753E+03 -0.43290075823E+02  0.82633267191E+03  0.84871787693E+03  0.12509157584E+03 0.  0.
          5    1    3    3  502    0 -0.10433899662E+03 -0.31985493073E+02  0.78260224409E+03  0.79018570149E+03  0.41800000000E+01 0. -1.
         -5    1    3    3    0  502 -0.36991880913E+02 -0.11304582750E+02  0.43730427821E+02  0.58532175443E+02  0.41800000000E+01 0. -1.
        -11    1    1    2    0    0  0.73146015909E+02 -0.24591263454E+02  0.37351909924E+03  0.38140737719E+03  0.00000000000E+00 0.  1.
         11    1    1    2    0    0  0.68184861625E+02  0.67881339278E+02  0.36658261894E+03  0.37899850670E+03  0.00000000000E+00 0. -1.
</event>
<event>
 7    1  0.2810263E-009  0.1209202E+03  0.7561462E-02  0.1241587E+00
          1   -1    0    0  501    0  0.00000000000E+00  0.00000000000E+00  0.10495788346E+03  0.10495788346E+03  0.00000000000E+00 0. -1.
         -1   -1    0    0    0  501 -0.00000000000E+00 -0.00000000000E+00 -0.22301609313E+03  0.22301609313E+03  0.00000000000E+00 0.  1.
         25    2    1    2    0    0 -0.59929998412E+02  0.83705062209E+02 -0.30603242940E+02  0.16487354840E+03  0.12509430976E+03 0.  0.
          5    1    3    3  502    0 -0.50862900459E+02  0.43409205014E+02  0.43536752226E+02  0.79901908097E+02  0.41800000000E+01 0.  1.
         -5    1    3    3    0  502 -0.90670979527E+01  0.40295857195E+02 -0.74139995167E+02  0.84971640303E+02  0.41800000000E+01 0.  1.
        -11    1    1    2    0    0  0.12958942924E+02 -0.85349000668E+02 -0.75302287817E+02  0.11455488059E+03  0.00000000000E+00 0.  1.
         11    1    1    2    0    0  0.46971055488E+02  0.16439384588E+01 -0.12152678914E+02  0.48545547603E+02  0.00000000000E+00 0. -1.
</event>
<event>
 7    1  0.2810263E-009  0.8335491E+02  0.7561462E-02  0.1319792E+00
         -2   -1    0    0    0  501 -0.00000000000E+00  0.00000000000E+00  0.17192681338E+02  0.17192681338E+02  0.00000000000E+00 0.  1.
          2   -1    0    0  501    0  0.00000000000E+00 -0.00000000000E+00 -0.84656451684E+03  0.84656451684E+03  0.00000000000E+00 0. -1.
         25    2    1    2    0    0 -0.33250423688E+02 -0.12121662012E+02 -0.60504608838E+03  0.61885498645E+03  0.12509276486E+03 0.  0.
          5    1    3    3  502    0 -0.46532919649E+02 -0.30913902453E+02 -0.11176275159E+03  0.12501746685E+03  0.41800000000E+01 0. -1.
         -5    1    3    3    0  502  0.13282495962E+02  0.18792240441E+02 -0.49328333680E+03  0.49383751960E+03  0.41800000000E+01 0. -1.
        -11    1    1    2    0    0  0.28371377453E+01 -0.32870000380E+02 -0.35682423407E+02  0.48597547426E+02  0.00000000000E+00 0.  1.
         11    1    1    2    0    0  0.30413285942E+02  0.44991662392E+02 -0.18864332371E+03  0.19630466431E+03  0.00000000000E+00 0. -1.
</event>
<event>
 7    1  0.2810263E-009  0.1149924E+03  0.7561462E-02  0.1251594E+00
          2   -1    0    0  501    0  0.00000000000E+00  0.00000000000E+00  0.13685954864E+04  0.13685954864E+04  0.00000000000E+00 0. -1.
         -2   -1    0    0    0  501 -0.00000000000E+00 -0.00000000000E+00 -0.98358309726E+01  0.98358309726E+01  0.00000000000E+00 0.  1.
         25    2    1    2    0    0  0.19677756224E+02 -0.31983348816E+02  0.83773561984E+03  0.84785528441E+03  0.12508983116E+03 0.  0.
          5    1    3    3  502    0 -0.32033134225E+02  0.33294296811E+02  0.34678718176E+03  0.34987634062E+03  0.41800000000E+01 0.  1.
         -5    1    3    3    0  502  0.51710890449E+02 -0.65277645627E+02  0.49094843808E+03  0.49797894379E+03  0.41800000000E+01 0.  1.
        -11    1    1    2    0    0  0.30511510840E+02 -0.12666030260E+02  0.17576195630E+03  0.17883972125E+03  0.00000000000E+00 0.  1.
         11    1    1    2    0    0 -0.50189267064E+02  0.44649379076E+02  0.34526207926E+03  0.35173631168E+03  0.00000000000E+00 0. -1.
</event>
<event>
 7    1  0.2810263E-009  0.9868854E+02  0.7561462E-02  0.1283078E+00
          2   -1    0    0  501    0  0.00000000000E+00  0.00000000000E+00  0.24711273207E+03  0.24711273207E+03  0.00000000000E+00 0.  1.
         -2   -1    0    0    0  501 -0.00000000000E+00 -0.00000000000E+00 -0.72605790986E+02  0.72605790986E+02  0.00000000000E+00 0. -1.
         25    2    1    2    0    0 -0.68721634960E+02  0.52307766129E+01  0.14047152645E+03  0.20032508447E+03  0.12509142892E+03 0.  0.
          5    1    3    3  502    0  0.23923486457E+02 -0.69903336149E-01 -0.76706478213E+01  0.25468594950E+02  0.41800000000E+01 0. -1.
         -5    1    3    3    0  502 -0.92645121417E+02  0.53006799490E+01  0.14814217427E+03  0.17485648952E+03  0.41800000000E+01 0. -1.
        -11    1    1    2    0    0  0.51388017334E+02  0.15025880858E+02  0.61212111976E+02  0.81322986133E+02  0.00000000000E+00 0.  1.
         11    1    1    2    0    0  0.17333617626E+02 -0.20256657470E+02 -0.27176697338E+02  0.38070452455E+02  0.00000000000E+00 0. -1.
</event>
<event>
 7    1  0.2810263E-009  0.1224957E+03  0.7561462E-02  0.1239036E+00
          2   -1    0    0  501    0  0.00000000000E+00  0.00000000000E+00  0.79332685435E+02  0.79332685435E+02  0.00000000000E+00 0.  1.
         -2   -1    0    0    0  501 -0.00000000000E+00 -0.00000000000E+00 -0.24220242797E+03  0.24220242797E+03  0.00000000000E+00 0. -1.
         25    2    1    2    0    0 -0.84366782761E+02  0.17997236700E+02 -0.88038950642E+02  0.17560905424E+03  0.12508408587E+03 0.  0.
          5    1    3    3  502    0 -0.11567248683E+03  0.86827569816E+01 -0.82038707295E+02  0.14213844087E+03  0.41800000000E+01 0.  1.
         -5    1    3    3    0  502  0.31305704065E+02  0.93144797187E+01 -0.60002433476E+01  0.33470613375E+02  0.41800000000E+01 0.  1.
        -11    1    1    2    0    0  0.26679864248E+02  0.13887262388E+02 -0.74141686981E+02  0.80010380335E+02  0.00000000000E+00 0. -1.
         11    1    1    2    0    0  0.57686918513E+02 -0.31884499088E+02 -0.68910490975E+00  0.65915678827E+02  0.00000000000E+00 0.  1.
</event>
<event>
 7    1  0.2810263E-009  0.1446941E+03  0.7561462E-02  0.1207149E+00
         -2   -1    0    0    0  501 -0.00000000000E+00  0.00000000000E+00  0.61169401947E+03  0.61169401947E+03  0.00000000000E+00 0. -1.
          2   -1    0    0  501    0  0.00000000000E+00 -0.00000000000E+00 -0.36815016911E+02  0.36815016911E+02  0.00000000000E+00 0.  1.
         25    2    1    2    0    0  0.74557654176E+02 -0.69342967358E+02  0.26811381061E+03  0.31289064802E+03  0.12509297046E+03 0.  0.
          5    1    3    3  502    0  0.44561042646E+02  0.31137540268E+02  0.11491460748E+03  0.12719305149E+03  0.41800000000E+01 0.  1.
         -5    1    3    3    0  502  0.29996611530E+02 -0.10048050763E+03  0.15319920313E+03  0.18569759653E+03  0.41800000000E+01 0.  1.
        -11    1    1    2    0    0 -0.26311703297E+02 -0.16777983287E+02  0.37248813387E+02  0.48593009295E+02  0.00000000000E+00 0.  1.
         11    1    1    2    0    0 -0.48245950879E+02  0.86120950645E+02  0.26951637856E+03  0.28702537907E+03  0.00000000000E+00 0. -1.
</event>
<event>
 7    1  0.2810263E-009  0.1209427E+03  0.7561462E-02  0.1241550E+00
          1   -1    0    0  501    0  0.00000000000E+00  0.00000000000E+00  0.62325059498E+03  0.62325059498E+03  0.00000000000E+00 0. -1.
         -1   -1    0    0    0  501 -0.00000000000E+00 -0.00000000000E+00 -0.29143295137E+02  0.29143295137E+02  0.00000000000E+00 0.  1.
         25    2    1    2    0    0  0.25089120670E+02  0.75537264251E+02  0.33327202436E+03  0.36476440522E+03  0.12508991498E+03 0.  0.
          5    1    3    3  502    0  0.73012730071E+02  0.66230847812E+02  0.20674521533E+03  0.22908173305E+03  0.41800000000E+01 0.  1.
         -5    1    3    3    0  502 -0.47923609401E+02  0.93064164390E+01  0.12652680903E+03  0.13568267217E+03  0.41800000000E+01 0.  1.
        -11    1    1    2    0    0  0.11563840057E+02 -0.45161787494E+02  0.39109601228E+02  0.60851214899E+02  0.00000000000E+00 0.  1.
         11    1    1    2    0    0 -0.36652960727E+02 -0.30375476758E+02  0.22172567426E+03  0.22677827000E+03  0.00000000000E+00 0. -1.
</event>
<event>
 7    1  0.2810263E-009  0.1547032E+03  0.7561462E-02  0.1194810E+00
         -2   -1    0    0    0  501 -0.00000000000E+00  0.00000000000E+00  0.84897236076E+03  0.84897236076E+03  0.00000000000E+00 0.  1.
          2   -1    0    0  501    0  0.00000000000E+00 -0.00000000000E+00 -0.32943575432E+02  0.32943575432E+02  0.00000000000E+00 0. -1.
         25    2    1    2    0    0  0.67005498016E+02 -0.90213267143E+02  0.59122865989E+03  0.61467646140E+03  0.12509058154E+03 0.  0.
          5    1    3    3  502    0 -0.36316395719E+01  0.28943274101E+02  0.95740596314E+02  0.10017303082E+03  0.41800000000E+01 0. -1.
         -5    1    3    3    0  502  0.70637137588E+02 -0.11915654124E+03  0.49548806358E+03  0.51450343058E+03  0.41800000000E+01 0. -1.
        -11    1    1    2    0    0 -0.87302660955E+02  0.64235746396E+02  0.14611526087E+03  0.18192760973E+03  0.00000000000E+00 0. -1.
         11    1    1    2    0    0  0.20297162939E+02  0.25977520748E+02  0.78684864574E+02  0.85311865063E+02  0.00000000000E+00 0.  1.
</event>
<event>
 7    1  0.2810263E-009  0.1171699E+03  0.7561462E-02  0.1247840E+00
          1   -1    0    0  501    0  0.00000000000E+00  0.00000000000E+00  0.68959948976E+03  0.68959948976E+03  0.00000000000E+00 0. -1.
         -1   -1    0    0    0  501 -0.00000000000E+00 -0.00000000000E+00 -0.35433079458E+02  0.35433079458E+02  0.00000000000E+00 0.  1.
         25    2    1    2    0    0  0.83369242968E+01 -0.91409474183E+02  0.20078860545E+03  0.25375032743E+03  0.12509183952E+03 0.  0.
          5    1    3    3  502    0  0.27951440487E+02 -0.87773011128E+01  0.15375699753E+03  0.15657908778E+03  0.41800000000E+01 0.  1.
         -5    1    3    3    0  502 -0.19614516190E+02 -0.82632173070E+02  0.47031607919E+02  0.97171239650E+02  0.41800000000E+01 0.  1.
        -11    1    1    2    0    0 -0.39300566468E+02  0.74997143476E+02  0.38771841563E+03  0.39685598883E+03  0.00000000000E+00 0. -1.
         11    1    1    2    0    0  0.30963642171E+02  0.16412330708E+02  0.65659389220E+02  0.74426252952E+02  0.00000000000E+00 0.  1.
</event>
<event>
 7    1  0.2810263E-009  0.8687977E+02  0.7561462E-02  0.1310589E+00
         -1   -1    0    0    0  501 -0.00000000000E+00  0.00000000000E+00  0.11467920552E+04  0.11467920552E+04  0.00000000000E+00 0.  1.
          1   -1    0    0  501    0  0.00000000000E+00 -0.00000000000E+00 -0.11147819595E+02  0.11147819595E+02  0.00000000000E+00 0. -1.
         25    2    1    2    0    0  0.27766140328E+02  0.22729351961E+02  0.74823283139E+03  0.75946510740E+03  0.12508915781E+03 0.  0.
          5    1    3    3  502    0  0.37907831000E+02  0.44053393026E+02  0.15254322341E+03  0.16329302648E+03  0.41800000000E+01 0. -1.
         -5    1    3    3    0  502 -0.10141690672E+02 -0.21324041065E+02  0.59568960798E+03  0.59617208092E+03  0.41800000000E+01 0. -1.
        -11    1    1    2    0    0  0.12310091816E+02  0.25792203488E+02  0.88121797828E+02  0.92640311817E+02  0.00000000000E+00 0. -1.
         11    1    1    2    0    0 -0.40076232144E+02 -0.48521555449E+02  0.29928960644E+03  0.30583445562E+03  0.00000000000E+00 0.  1.
</event>
<event>
 7    1  0.2810263E-009  0.1266295E+03  0.7561462E-02  0.1232544E+00
          1   -1    0    0  501    0  0.00000000000E+00  0.00000000000E+00  0.82666583313E+03  0.82666583313E+03  0.00000000000E+00 0. -1.
         -1   -1    0    0    0  501 -0.00000000000E+00 -0.00000000000E+00 -0.40945284812E+02  0.40945284812E+02  0.00000000000E+00 0.  1.
         25    2    1    2    0    0 -0.53824795826E+02  0.53346436329E+02  0.71317609804E+03  0.72801842815E+03  0.12509090294E+03 0.  0.
          5    1    3    3  502    0  0.36151326898E+02  0.26195313751E+02  0.34978617610E+03  0.35264848545E+03  0.41800000000E+01 0.  1.
         -5    1    3    3    0  502 -0.89976122723E+02  0.27151122578E+02  0.36338992194E+03  0.37536994270E+03  0.41800000000E+01 0.  1.
        -11    1    1    2    0    0  0.28947178589E+02 -0.75607609829E+02  0.68336773594E+02  0.10594510105E+03  0.00000000000E+00 0. -1.
         11    1    1    2    0    0  0.24877617236E+02  0.22261173500E+02  0.42076766903E+01  0.33647588741E+02  0.00000000000E+00 0.  1.
</event>
<event>
 7    1  0.2810263E-009  0.1069199E+03  0.7561462E-02  0.1266382E+00
         -1   -1    0    0    0  501 -0.00000000000E+00  0.00000000000E+00  0.40635158092E+02  0.40635158092E+02  0.00000000000E+00 0.  1.
          1   -1    0    0  501    0  0.00000000000E+00 -0.00000000000E+00 -0.30871981188E+03  0.30871981188E+03  0.00000000000E+00 0. -1.
         25    2    1    2    0    0 -0.53684669660E+01 -0.30706211633E+01 -0.19704607989E+03  0.23347906537E+03  0.12508823772E+03 0.  0.
          5    1    3    3  502    0  0.34575288377E+02  0.46753679508E+02 -0.69002370531E+02  0.90333585408E+02  0.41800000000E+01 0.  1.
         -5    1    3    3    0  502 -0.39943755343E+02 -0.49824300671E+02 -0.12804370936E+03  0.14314547996E+03  0.41800000000E+01 0.  1.
        -11    1    1    2    0    0 -0.32445906118E+02 -0.27802210969E+02 -0.33501752119E+02  0.54296106247E+02  0.00000000000E+00 0.  1.
         11    1    1    2    0    0  0.37814373084E+02  0.30872832132E+02 -0.37536821783E+02  0.61579798353E+02  0.00000000000E+00 0. -1.
</event>
<event>
 7    1  0.2810263E-009  0.1281827E+03  0.7561462E-02  0.1230177E+00
          3   -1    0    0  501    0  0.00000000000E+00  0.00000000000E+00  0.10680818353E+03  0.10680818353E+03  0.00000000000E+00 0. -1.
         -3   -1    0    0    0  501 -0.00000000000E+00 -0.00000000000E+00 -0.24401443350E+03  0.24401443350E+03  0.00000000000E+00 0.  1.
         25    2    1    2    0    0  0.10441013337E+00 -0.55022646088E+02 -0.17621403239E+03  0.22299388865E+03  0.12508951466E+03 0.  0.
          5    1    3    3  502    0 -0.52547652634E+02 -0.64169632163E+02 -0.10820522325E+03  0.13639956095E+03  0.41800000000E+01 0. -1.
         -5    1    3    3    0  502  0.52652062767E+02  0.91469860752E+01 -0.68008809146E+02  0.86594327697E+02  0.41800000000E+01 0. -1.
        -11    1    1    2    0    0 -0.23898685589E+02  0.81021718323E+02  0.16669165865E+02  0.86101841465E+02  0.00000000000E+00 0.  1.
         11    1    1    2    0    0  0.23794275456E+02 -0.25999072236E+02  0.22338616561E+02  0.41726886913E+02  0.00000000000E+00 0. -1.
</event>
<event>
 7    1  0.3121701E-009  0.9075948E+02  0.7561462E-02  0.1301023E+00
          2   -1    0    0  501    0  0.00000000000E+00  0.00000000000E+00  0.30371933914E+03  0.30371933914E+03  0.00000000000E+00 0. -1.
         -2   -1    0    0    0  501 -0.00000000000E+00 -0.00000000000E+00 -0.47021524141E+02  0.47021524141E+02  0.00000000000E+00 0.  1.
         25    2    1    2    0    0  0.11106931154E+02  0.49661951205E+02  0.15081510452E+03  0.20244347976E+03  0.12509393841E+03 0.  0.
          5    1    3    3  502    0 -0.40035688549E+02  0.50999862596E+02  0.30780357481E+02  0.71893985486E+02  0.41800000000E+01 0.  1.
         -5    1    3    3    0  502  0.51142619703E+02 -0.13379113908E+01  0.12003474704E+03  0.13054949427E+03  0.41800000000E+01 0.  1.
        -11    1    1    2    0    0 -0.26658008942E+02 -0.29631456343E+02  0.45287009426E+00  0.39860729260E+02  0.00000000000E+00 0.  1.
         11    1    1    2    0    0  0.15551077788E+02 -0.20030494862E+02  0.10542984038E+03  0.10843665426E+03  0.00000000000E+00 0. -1.
</event>
<event>
 7    1  0.2810263E-009  0.9895645E+02  0.7561462E-02  0.1282506E+00
          1   -1    0    0  501    0  0.00000000000E+00  0.00000000000E+00  0.16794796687E+03  0.16794796687E+03  0.00000000000E+00 0. -1.
         -1   -1    0    0    0  501 -0.00000000000E+00 -0.00000000000E+00 -0.85458065310E+02  0.85458065310E+02  0.00000000000E+00 0.  1.
         25    2    1    2    0    0 -0.14024551527E+02  0.30030749871E+02  0.22892963802E+01  0.12942687101E+03  0.12509012782E+03 0.  0.
          5    1    3    3  502    0 -0.63468825966E+02  0.44471946309E+02 -0.13092387836E+01  0.77622370385E+02  0.41800000000E+01 0. -1.
         -5    1    3    3    0  502  0.49444274439E+02 -0.14441196437E+02  0.35985351638E+01  0.51804500622E+02  0.41800000000E+01 0. -1.
        -11    1    1    2    0    0  0.24657078489E+01 -0.47560632606E+02  0.89213134919E+02  0.10112901132E+03  0.00000000000E+00 0. -1.
         11    1    1    2    0    0  0.11558843678E+02  0.17529882735E+02 -0.90125297402E+01  0.22850149850E+02  0.00000000000E+00 0.  1.
</event>
<event>
 7    1  0.2810263E-009  0.8938421E+02  0.7561462E-02  0.1304350E+00
         -2   -1    0    0    0  501 -0.00000000000E+00  0.00000000000E+00  0.88466465941E+02  0.88466465941E+02  0.00000000000E+00 0.  1.
          2   -1    0    0  501    0  0.00000000000E+00 -0.00000000000E+00 -0.14959930983E+03  0.14959930983E+03  0.00000000000E+00 0. -1.
         25    2    1    2    0    0  0.39253977722E+02  0.11563102340E+02 -0.35047457930E+02  0.13619858153E+03  0.12508856542E+03 0.  0.
          5    1    3    3  502    0  0.37481802767E+01  0.40498694786E+02  0.34040227454E+02  0.53201528360E+02  0.41800000000E+01 0.  1.
         -5    1    3    3    0  502  0.35505797445E+02 -0.28935592446E+02 -0.69087685384E+02  0.82997053165E+02  0.41800000000E+01 0.  1.
        -11    1    1    2    0    0 -0.12534884067E+02  0.35567338235E+02 -0.29058417356E+02  0.47608302710E+02  0.00000000000E+00 0. -1.
         11    1    1    2    0    0 -0.26719093655E+02 -0.47130440575E+02  0.29730314020E+01  0.54258891532E+02  0.00000000000E+00 0.  1.
</event>
<event>
 7    1  0.2810263E-009  0.1637842E+03  0.7561462E-02  0.1184490E+00
         -4   -1    0    0    0  501 -0.00000000000E+00  0.00000000000E+00  0.16881188086E+03  0.16881188086E+03  0.00000000000E+00 0.  1.
          4   -1    0    0  501    0  0.00000000000E+00 -0.00000000000E+00 -0.22055164207E+03  0.22055164207E+03  0.00000000000E+00 0. -1.
         25    2    1    2    0    0  0.10339287305E+03  0.10624671441E+03 -0.89562254811E+02  0.21365253352E+03  0.12509019574E+03 0.  0.
          5    1    3    3  502    0  0.11427010581E+01  0.70665751052E+02  0.34171081302E+01  0.70880908328E+02  0.41800000000E+01 0.  1.
         -5    1    3    3    0  502  0.10225017199E+03  0.35580963363E+02 -0.92979362941E+02  0.14277162519E+03  0.41800000000E+01 0.  1.
        -11    1    1    2    0    0 -0.28471855965E+02 -0.33968697106E+02  0.54535786814E+02  0.70275678642E+02  0.00000000000E+00 0.  1.
         11    1    1    2    0    0 -0.74921017087E+02 -0.72278017309E+02 -0.16713293205E+02  0.10543531077E+03  0.00000000000E+00 0. -1.
</event>
<event>
 7    1  0.2810263E-009  0.1077924E+03  0.7561462E-02  0.1264713E+00
         -2   -1    0    0    0  501 -0.00000000000E+00  0.00000000000E+00  0.35526118906E+02  0.35526118906E+02  0.00000000000E+00 0.  1.
          2   -1    0    0  501    0  0.00000000000E+00 -0.00000000000E+00 -0.38378213314E+03  0.38378213314E+03  0.00000000000E+00 0. -1.
         25    2    1    2    0    0  0.46066986038E+02 -0.25214690650E+02 -0.17273180451E+03  0.21964616521E+03  0.12510081445E+03 0.  0.
          5    1    3    3  502    0  0.40376311362E+02  0.47315695182E+02 -0.70660036050E+02  0.94230221396E+02  0.41800000000E+01 0.  1.
         -5    1    3    3    0  502  0.56906746754E+01 -0.72530385833E+02 -0.10207176846E+03  0.12541594382E+03  0.41800000000E+01 0.  1.
        -11    1    1    2    0    0 -0.30486161279E+02 -0.17325969183E+02 -0.26639152067E+02  0.44036798936E+02  0.00000000000E+00 0.  1.
         11    1    1    2    0    0 -0.15580824759E+02  0.42540659834E+02 -0.14888505766E+03  0.15562528790E+03  0.00000000000E+00 0. -1.
</event>
<event>
 7    1  0.2810263E-009  0.1150824E+03  0.7561462E-02  0.1251437E+00
         -2   -1    0    0    0  501 -0.00000000000E+00  0.00000000000E+00  0.74080302870E+02  0.74080302870E+02  0.00000000000E+00 0.  1.
          2   -1    0    0  501    0  0.00000000000E+00 -0.00000000000E+00 -0.23482431952E+03  0.23482431952E+03  0.00000000000E+00 0. -1.
         25    2    1    2    0    0 -0.75445065176E+02 -0.35846532435E+01 -0.99114514332E+02  0.17657389823E+03  0.12509934847E+03 0.  0.
          5    1    3    3  502    0  0.16862977748E+02  0.24253725562E+02 -0.69490943987E+02  0.75624512682E+02  0.41800000000E+01 0. -1.
         -5    1    3    3    0  502 -0.92308042924E+02 -0.27838378805E+02 -0.29623570346E+02  0.10094938555E+03  0.41800000000E+01 0. -1.
        -11    1    1    2    0    0 -0.14036883278E+01  0.24215247968E+02  0.90632139101E+01  0.25893829795E+02  0.00000000000E+00 0.  1.
         11    1    1    2    0    0  0.76848753504E+02 -0.20630594725E+02 -0.70692716225E+02  0.10643689436E+03  0.00000000000E+00 0. -1.
</event>
<event>
 7    1  0.3178797E-009  0.1233015E+03  0.7561462E-02  0.1237748E+00
         -2   -1    0    0    0  501 -0.00000000000E+00  0.00000000000E+00  0.53769310102E+02  0.53769310102E+02  0.00000000000E+00 0.  1.
          2   -1    0    0  501    0  0.00000000000E+00 -0.00000000000E+00 -0.31542499071E+03  0.31542499071E+03  0.00000000000E+00 0. -1.
         25    2    1    2    0    0  0.30829937741E+01 -0.64147067717E+02 -0.19057700026E+03  0.23683920071E+03  0.12509541486E+03 0.  0.
          5    1    3    3  502    0 -0.47188066549E+02  0.10475370632E+02 -0.48394930755E+02  0.68527284619E+02  0.41800000000E+01 0.  1.
         -5    1    3    3    0  502  0.50271060323E+02 -0.74622438349E+02 -0.14218206950E+03  0.16831191609E+03  0.41800000000E+01 0.  1.
        -11    1    1    2    0    0 -0.44777179972E+02  0.38570807224E+02 -0.21992160815E+02  0.63058371002E+02  0.00000000000E+00 0.  1.
         11    1    1    2    0    0  0.41694186198E+02  0.25576260493E+02 -0.49086519536E+02  0.69296729098E+02  0.00000000000E+00 0. -1.
</event>
<event>
 7    1  0.2810263E-009  0.8520362E+02  0.7561462E-02  0.1314901E+00
         -2   -1    0    0    0  501 -0.00000000000E+00  0.00000000000E+00  0.20281310848E+03  0.20281310848E+03  0.00000000000E+00 0.  1.
          2   -1    0    0  501    0  0.00000000000E+00 -0.00000000000E+00 -0.89138444791E+02  0.89138444791E+02  0.00000000000E+00 0. -1.
         25    2    1    2    0    0  0.44829063989E+01 -0.66545331474E+02  0.11102636453E+03  0.18005922204E+03  0.12508434047E+03 0.  0.
          5    1    3    3  502    0 -0.15021498274E+02 -0.69880401938E+02  0.13247115089E+03  0.15058218422E+03  0.41800000000E+01 0.  1.
         -5    1    3    3    0  502  0.19504404673E+02  0.33350704643E+01 -0.21444786361E+02  0.29477037821E+02  0.41800000000E+01 0.  1.
        -11    1    1    2    0    0  0.17979159181E+02  0.19942119065E+02  0.39934626369E+02  0.48121852218E+02  0.00000000000E+00 0.  1.
         11    1    1    2    0    0 -0.22462065580E+02  0.46603212409E+02 -0.37286327209E+02  0.63770479014E+02  0.00000000000E+00 0. -1.
</event>
<event>
 7    1  0.2810263E-009  0.7436685E+02  0.7561462E-02  0.1345843E+00
         -1   -1    0    0    0  501 -0.00000000000E+00  0.00000000000E+00  0.28673958168E+03  0.28673958168E+03  0.00000000000E+00 0.  1.
          1   -1    0    0  501    0  0.00000000000E+00 -0.00000000000E+00 -0.45455700003E+02  0.45455700003E+02  0.00000000000E+00 0. -1.
         25    2    1    2    0    0 -0.57804504948E+01  0.18861051720E+02  0.97078212000E+02  0.15956515312E+03  0.12509079088E+03 0.  0.
          5    1    3    3  502    0  0.23910345124E+02 -0.27767305807E+02 -0.10668973563E+02  0.38393062819E+02  0.41800000000E+01 0. -1.
         -5    1    3    3    0  502 -0.29690795619E+02  0.46628357527E+02  0.10774718556E+03  0.12117209030E+03  0.41800000000E+01 0. -1.
        -11    1    1    2    0    0  0.20970621714E+00  0.18570846098E+02 -0.45622522211E+01  0.19124184867E+02  0.00000000000E+00 0. -1.
         11    1    1    2    0    0  0.55707442776E+01 -0.37431897818E+02  0.14876792190E+03  0.15350594370E+03  0.00000000000E+00 0.  1.
</event>
<event>
 7    1  0.2810263E-009  0.1311165E+03  0.7561462E-02  0.1225808E+00
          1   -1    0    0  501    0  0.00000000000E+00  0.00000000000E+00  0.67531831589E+03  0.67531831589E+03  0.00000000000E+00 0. -1.
         -1   -1    0    0    0  501 -0.00000000000E+00 -0.00000000000E+00 -0.34405858743E+02  0.34405858743E+02  0.00000000000E+00 0.  1.
         25    2    1    2    0    0 -0.22801259870E+02  0.71934884669E+02  0.16882493300E+03  0.22325763215E+03  0.12509031629E+03 0.  0.
          5    1    3    3  502    0 -0.11749429308E+02 -0.35056526654E+02  0.31350753854E+02  0.48655434613E+02  0.41800000000E+01 0. -1.
         -5    1    3    3    0  502 -0.11051830562E+02  0.10699141132E+03  0.13747417914E+03  0.17460219754E+03  0.41800000000E+01 0. -1.
        -11    1    1    2    0    0  0.46451676624E+02 -0.53943064937E+01  0.19235566456E+03  0.19795847668E+03  0.00000000000E+00 0.  1.
         11    1    1    2    0    0 -0.23650416753E+02 -0.66540578175E+02  0.27973185959E+03  0.28850806579E+03  0.00000000000E+00 0. -1.
</event>
<event>
 7    1  0.2810263E-009  0.8718590E+02  0.7561462E-02  0.1309813E+00
         -2   -1    0    0    0  501 -0.00000000000E+00  0.00000000000E+00  0.11482957194E+03  0.11482957194E+03  0.00000000000E+00 0.  1.
          2   -1    0    0  501    0  0.00000000000E+00 -0.00000000000E+00 -0.11779757223E+03  0.11779757223E+03  0.00000000000E+00 0. -1.
         25    2    1    2    0    0  0.29903405764E+02 -0.25933860523E+02  0.83207935266E+01  0.13147145283E+03  0.12509487802E+03 0.  0.
          5    1    3    3  502    0  0.57329382115E+02 -0.56344308374E+02 -0.18175106231E+02  0.82517549808E+02  0.41800000000E+01 0. -1.
         -5    1    3    3    0  502 -0.27425976351E+02  0.30410447852E+02  0.26495899758E+02  0.48953903024E+02  0.41800000000E+01 0. -1.
        -11    1    1    2    0    0 -0.35342467891E+02  0.11299884151E+02  0.35791762848E+02  0.51554124046E+02  0.00000000000E+00 0.  1.
         11    1    1    2    0    0  0.54390621267E+01  0.14633976372E+02 -0.47080556663E+02  0.49601567283E+02  0.00000000000E+00 0. -1.
</event>
<event>
 7    1  0.2810263E-009  0.1666837E+03  0.7561462E-02  0.1181351E+00
         -1   -1    0    0    0  501 -0.00000000000E+00  0.00000000000E+00  0.12006729987E+03  0.12006729987E+03  0.00000000000E+00 0.  1.
          1   -1    0    0  501    0  0.00000000000E+00 -0.00000000000E+00 -0.30817932800E+03  0.30817932800E+03  0.00000000000E+00 0. -1.
         25    2    1    2    0    0 -0.69134386904E+02 -0.11044887302E+03  0.50400559239E+01  0.18069696577E+03  0.12508986478E+03 0.  0.
          5    1    3    3  502    0  0.35554262132E+02 -0.39229402681E+02 -0.64115449919E+01  0.53494223049E+02  0.41800000000E+01 0. -1.
         -5    1    3    3    0  502 -0.10468864904E+03 -0.71219470337E+02  0.11451600916E+02  0.12720274272E+03  0.41800000000E+01 0. -1.
        -11    1    1    2    0    0  0.85078379855E+02  0.70270134184E+02 -0.12390003071E+03  0.16591395387E+03  0.00000000000E+00 0. -1.
         11    1    1    2    0    0 -0.15943992951E+02  0.40178738835E+02 -0.69252053346E+02  0.81635708230E+02  0.00000000000E+00 0.  1.
</event>
<event>
 7    1  0.2810263E-009  0.1013553E+03  0.7561462E-02  0.1277471E+00
         -2   -1    0    0    0  501 -0.00000000000E+00  0.00000000000E+00  0.15942483796E+02  0.15942483796E+02  0.00000000000E+00 0. -1.
          2   -1    0    0  501    0  0.00000000000E+00 -0.00000000000E+00 -0.11572581632E+04  0.11572581632E+04  0.00000000000E+00 0.  1.
         25    2    1    2    0    0 -0.30330626487E+02  0.11404582488E+01 -0.95345891708E+03  0.96210819201E+03  0.12508804505E+03 0.  0.
          5    1    3    3  502    0 -0.72987177111E+02 -0.82507489864E+01 -0.76860798726E+03  0.77212104839E+03  0.41800000000E+01 0.  1.
         -5    1    3    3    0  502  0.42656550625E+02  0.93912072352E+01 -0.18485092982E+03  0.18998714362E+03  0.41800000000E+01 0.  1.
        -11    1    1    2    0    0  0.32790831591E+02 -0.36930698591E+02 -0.57059414779E+02  0.75464507881E+02  0.00000000000E+00 0. -1.
         11    1    1    2    0    0 -0.24602051048E+01  0.35790240342E+02 -0.13079734756E+03  0.13562794712E+03  0.00000000000E+00 0.  1.
</event>
<event>
 7    1  0.2810263E-009  0.1089062E+03  0.7561462E-02  0.1262609E+00
          2   -1    0    0  501    0  0.00000000000E+00  0.00000000000E+00  0.11547398918E+03  0.11547398918E+03  0.00000000000E+00 0. -1.
         -2   -1    0    0    0  501 -0.00000000000E+00 -0.00000000000E+00 -0.12781226879E+03  0.12781226879E+03  0.00000000000E+00 0.  1.
         25    2    1    2    0    0 -0.35156279482E+02  0.30719804799E+02  0.21966549773E+02  0.13531365616E+03  0.12509031074E+03 0.  0.
          5    1    3    3  502    0  0.45101620441E+02  0.13473712934E+02 -0.77954556849E+01  0.47895079455E+02  0.41800000000E+01 0.  1.
         -5    1    3    3    0  502 -0.80257899924E+02  0.17246091865E+02  0.29762005458E+02  0.87418576708E+02  0.41800000000E+01 0.  1.
        -11    1    1    2    0    0  0.11593475567E+02 -0.54003281109E+02  0.62749090003E+01  0.55589005470E+02  0.00000000000E+00 0. -1.
         11    1    1    2    0    0  0.23562803915E+02  0.23283476309E+02 -0.40579738387E+02  0.52383596335E+02  0.00000000000E+00 0.  1.
</event>
<event>
 7    1  0.2810263E-009  0.1881475E+03  0.7561462E-02  0.1160143E+00
         -2   -1    0    0    0  501 -0.00000000000E+00  0.00000000000E+00  0.26105472968E+02  0.26105472968E+02  0.00000000000E+00 0. -1.
          2   -1    0    0  501    0  0.00000000000E+00 -0.00000000000E+00 -0.15989752020E+04  0.15989752020E+04  0.00000000000E+00 0.  1.
         25    2    1    2    0    0 -0.57897279475E+02 -0.11675336674E+03 -0.75107769138E+03  0.77249483688E+03  0.12508849228E+03 0.  0.
          5    1    3    3  502    0  0.64161265881E+01 -0.78105864638E+02 -0.58456812518E+03  0.58981273143E+03  0.41800000000E+01 0.  1.
         -5    1    3    3    0  502 -0.64313406063E+02 -0.38647502100E+02 -0.16650956620E+03  0.18268210545E+03  0.41800000000E+01 0.  1.
        -11    1    1    2    0    0 -0.36190688061E+02 -0.30896995366E+02 -0.25379120408E+03  0.25821379803E+03  0.00000000000E+00 0.  1.
         11    1    1    2    0    0  0.94087967536E+02  0.14765036210E+03 -0.56800083355E+03  0.59437204004E+03  0.00000000000E+00 0. -1.
</event>
<event>
 7    1  0.2810263E-009  0.1109936E+03  0.7561462E-02  0.1258741E+00
         -1   -1    0    0    0  501 -0.00000000000E+00  0.00000000000E+00  0.46668557077E+02  0.46668557077E+02  0.00000000000E+00 0.  1.
          1   -1    0    0  501    0  0.00000000000E+00 -0.00000000000E+00 -0.40265810794E+03  0.40265810794E+03  0.00000000000E+00 0. -1.
         25    2    1    2    0    0 -0.30285995761E+01  0.71234608113E+02 -0.13501307194E+03  0.19738331769E+03  0.12509237667E+03 0.  0.
          5    1    3    3  502    0  0.50461176226E+02  0.66861055086E+02 -0.10917880751E+03  0.13767430916E+03  0.41800000000E+01 0.  1.
         -5    1    3    3    0  502 -0.53489775802E+02  0.43735530271E+01 -0.25834264424E+02  0.59709008531E+02  0.41800000000E+01 0.  1.
        -11    1    1    2    0    0 -0.12411870387E+02 -0.10870297852E+01  0.60319447163E+01  0.13842706286E+02  0.00000000000E+00 0.  1.
         11    1    1    2    0    0  0.15440469963E+02 -0.70147578328E+02 -0.22700842364E+03  0.23810064103E+03  0.00000000000E+00 0. -1.
</event>
<event>
 7    1  0.2810263E-009  0.7019162E+02  0.7561462E-02  0.1359443E+00
         -3   -1    0    0    0  501 -0.00000000000E+00  0.00000000000E+00  0.22229682609E+03  0.22229682609E+03  0.00000000000E+00 0.  1.
          3   -1    0    0  501    0  0.00000000000E+00 -0.00000000000E+00 -0.55655930264E+02  0.55655930264E+02  0.00000000000E+00 0. -1.
         25    2    1    2    0    0 -0.18992148018E+02 -0.68627080187E+01  0.10883325220E+03  0.16703225381E+03  0.12508916252E+03 0.  0.
          5    1    3    3  502    0  0.16641044308E+02  0.10064192072E+01  0.12551847129E+03  0.12668976387E+03  0.41800000000E+01 0.  1.
         -5    1    3    3    0  502 -0.35633192326E+02 -0.78691272259E+01 -0.16685219085E+02  0.40342489940E+02  0.41800000000E+01 0.  1.
        -11    1    1    2    0    0 -0.23109984389E+02  0.30434104207E+02  0.48556397626E+02  0.61790208187E+02  0.00000000000E+00 0.  1.
         11    1    1    2    0    0  0.42102132408E+02 -0.23571396188E+02  0.92512460026E+01  0.49130294363E+02  0.00000000000E+00 0. -1.
</event>
<event>
 7    1  0.2810263E-009  0.2334299E+03  0.7561462E-02  0.1124249E+00
         -2   -1    0    0    0  501 -0.00000000000E+00  0.00000000000E+00  0.75819856389E+03  0.75819856389E+03  0.00000000000E+00 0.  1.
          2   -1    0    0  501    0  0.00000000000E+00 -0.00000000000E+00 -0.87504376677E+02  0.87504376677E+02  0.00000000000E+00 0. -1.
         25    2    1    2    0    0  0.22463775649E+03  0.23607012281E+01  0.24151437394E+03  0.35276739138E+03  0.12509174653E+03 0.  0.
          5    1    3    3  502    0  0.22784369344E+03  0.96250763949E+01  0.17987616392E+03  0.29047942695E+03  0.41800000000E+01 0.  1.
         -5    1    3    3    0  502 -0.32059369453E+01 -0.72643751669E+01  0.61638210027E+02  0.62287964436E+02  0.41800000000E+01 0.  1.
        -11    1    1    2    0    0 -0.16965702402E+03 -0.22721041029E+02  0.23935507059E+03  0.29426280996E+03  0.00000000000E+00 0. -1.
         11    1    1    2    0    0 -0.54980732473E+02  0.20360339800E+02  0.18982474267E+03  0.19867273922E+03  0.00000000000E+00 0.  1.
</event>
<event>
 7    1  0.2810263E-009  0.4254652E+03  0.7561462E-02  0.1035302E+00
         -2   -1    0    0    0  501 -0.00000000000E+00  0.00000000000E+00  0.41050803469E+03  0.41050803469E+03  0.00000000000E+00 0. -1.
          2   -1    0    0  501    0  0.00000000000E+00 -0.00000000000E+00 -0.53068383811E+03  0.53068383811E+03  0.00000000000E+00 0.  1.
         25    2    1    2    0    0  0.28953016512E+03 -0.30642284574E+03 -0.23143292836E+03  0.49692176070E+03  0.12508940414E+03 0.  0.
          5    1    3    3  502    0  0.24567869287E+03 -0.21238868914E+03 -0.22038080138E+03  0.39249477120E+03  0.41800000000E+01 0.  1.
         -5    1    3    3    0  502  0.43851472249E+02 -0.94034156597E+02 -0.11052126977E+02  0.10442698950E+03  0.41800000000E+01 0.  1.
        -11    1    1    2    0    0 -0.19060299020E+03  0.21853409539E+03  0.36447401818E+02  0.29225855645E+03  0.00000000000E+00 0.  1.
         11    1    1    2    0    0 -0.98927174916E+02  0.87888750347E+02  0.74809723130E+02  0.15201155564E+03  0.00000000000E+00 0. -1.
</event>
<event>
 7    1  0.2810263E-009  0.1200914E+03  0.7561462E-02  0.1242946E+00
          2   -1    0    0  501    0  0.00000000000E+00  0.00000000000E+00  0.17746211631E+03  0.17746211631E+03  0.00000000000E+00 0. -1.
         -2   -1    0    0    0  501 -0.00000000000E+00 -0.00000000000E+00 -0.86795556600E+02  0.86795556600E+02  0.00000000000E+00 0.  1.
         25    2    1    2    0    0 -0.60219084523E+02  0.54857869549E+01  0.48665179918E+02  0.14721431100E+03  0.12508925464E+03 0.  0.
          5    1    3    3  502    0  0.20212302520E+02  0.42653816593E+02  0.30832666582E+01  0.47485410143E+02  0.41800000000E+01 0.  1.
         -5    1    3    3    0  502 -0.80431387043E+02 -0.37168029638E+02  0.45581913260E+02  0.99728900853E+02  0.41800000000E+01 0.  1.
        -11    1    1    2    0    0  0.58294713850E+02 -0.39249469355E+02  0.10936191356E+02  0.71122393020E+02  0.00000000000E+00 0.  1.
         11    1    1    2    0    0  0.19243706731E+01  0.33763682401E+02  0.31065188440E+02  0.45920968898E+02  0.00000000000E+00 0. -1.
</event>
<event>
 7    1  0.2810263E-009  0.1093467E+03  0.7561462E-02  0.1261784E+00
          2   -1    0    0  501    0  0.00000000000E+00  0.00000000000E+00  0.72964846178E+03  0.72964846178E+03  0.00000000000E+00 0. -1.
         -2   -1    0    0    0  501 -0.00000000000E+00 -0.00000000000E+00 -0.19705592101E+02  0.19705592101E+02  0.00000000000E+00 0.  1.
         25    2    1    2    0    0  0.29863607738E+02  0.17782153305E+02  0.51314712107E+03  0.52931598349E+03  0.12508957779E+03 0.  0.
          5    1    3    3  502    0 -0.26073211471E+02 -0.36219015477E+02  0.27859968213E+03  0.28218236075E+03  0.41800000000E+01 0.  1.
         -5    1    3    3    0  502  0.55936819209E+02  0.54001168781E+02  0.23454743895E+03  0.24713362274E+03  0.41800000000E+01 0.  1.
        -11    1    1    2    0    0  0.31558368934E+02  0.16049959951E+01  0.43543362611E+02  0.53800846549E+02  0.00000000000E+00 0.  1.
         11    1    1    2    0    0 -0.61421976672E+02 -0.19387149300E+02  0.15325238599E+03  0.16623722383E+03  0.00000000000E+00 0. -1.
</event>
<event>
 7    1  0.2810263E-009  0.1391594E+03  0.7561462E-02  0.1214465E+00
         -1   -1    0    0    0  501 -0.00000000000E+00  0.00000000000E+00  0.20500745534E+03  0.20500745534E+03  0.00000000000E+00 0.  1.
          1   -1    0    0  501    0  0.00000000000E+00 -0.00000000000E+00 -0.14899034193E+03  0.14899034193E+03  0.00000000000E+00 0. -1.
         25    2    1    2    0    0 -0.12668136237E+03 -0.24905110222E+02  0.76198551087E+02  0.19524775705E+03  0.12508811038E+03 0.  0.
          5    1    3    3  502    0 -0.13327494939E+03 -0.33591585233E+02  0.99129954968E+02  0.16951350125E+03  0.41800000000E+01 0. -1.
         -5    1    3    3    0  502  0.65935870188E+01  0.86864750115E+01 -0.22931403882E+02  0.25734255806E+02  0.41800000000E+01 0. -1.
        -11    1    1    2    0    0  0.51654297904E+02  0.88394475684E+01  0.36063508128E+02  0.63615084247E+02  0.00000000000E+00 0.  1.
         11    1    1    2    0    0  0.75027064463E+02  0.16065662653E+02 -0.56244945813E+02  0.95134955973E+02  0.00000000000E+00 0. -1.
</event>
<event>
 7    1  0.2810263E-009  0.1219658E+03  0.7561462E-02  0.1239889E+00
         -2   -1    0    0    0  501 -0.00000000000E+00  0.00000000000E+00  0.30887529033E+02  0.30887529033E+02  0.00000000000E+00 0.  1.
          2   -1    0    0  501    0  0.00000000000E+00 -0.00000000000E+00 -0.55947284115E+03  0.55947284115E+03  0.00000000000E+00 0. -1.
         25    2    1    2    0    0 -0.76347410166E+01 -0.60353085978E+02 -0.38715445102E+03  0.41137838106E+03  0.12507125649E+03 0.  0.
          5    1    3    3  502    0 -0.15992178830E+02  0.36781862444E+02 -0.13884568776E+03  0.14458303012E+03  0.41800000000E+01 0.  1.
         -5    1    3    3    0  502  0.83574378130E+01 -0.97134948422E+02 -0.24830876326E+03  0.26679535095E+03  0.41800000000E+01 0.  1.
        -11    1    1    2    0    0  0.33940469013E+02  0.70168226281E+02 -0.81352830904E+02  0.11266684744E+03  0.00000000000E+00 0.  1.
         11    1    1    2    0    0 -0.26305727996E+02 -0.98151403032E+01 -0.60078030193E+02  0.66315141683E+02  0.00000000000E+00 0. -1.
</event>
<event>
 7    1  0.2810263E-009  0.1120293E+03  0.7561462E-02  0.1256857E+00
          1   -1    0    0  501    0  0.00000000000E+00  0.00000000000E+00  0.35086914889E+03  0.35086914889E+03  0.00000000000E+00 0. -1.
         -1   -1    0    0    0  501 -0.00000000000E+00 -0.00000000000E+00 -0.48372135497E+02  0.48372135497E+02  0.00000000000E+00 0.  1.
         25    2    1    2    0    0 -0.73235633690E+02 -0.90230458505E+01  0.15071772640E+03  0.20930254709E+03  0.12508736854E+03 0.  0.
          5    1    3    3  502    0 -0.10783433553E+03 -0.64416810669E+01  0.97159807342E+02  0.14535212327E+03  0.41800000000E+01 0. -1.
         -5    1    3    3    0  502  0.34598701845E+02 -0.25813647837E+01  0.53557919057E+02  0.63950423823E+02  0.41800000000E+01 0. -1.
        -11    1    1    2    0    0  0.11594049226E+02  0.15130709024E+02 -0.63644000350E+01  0.20096415622E+02  0.00000000000E+00 0.  1.
         11    1    1    2    0    0  0.61641584464E+02 -0.61076631739E+01  0.15814368703E+03  0.16984232167E+03  0.00000000000E+00 0. -1.
</event>
<event>
 7    1  0.2810263E-009  0.1097838E+03  0.7561462E-02  0.1260971E+00
          2   -1    0    0  501    0  0.00000000000E+00  0.00000000000E+00  0.27400158378E+02  0.27400158378E+02  0.00000000000E+00 0. -1.
         -2   -1    0    0    0  501 -0.00000000000E+00 -0.00000000000E+00 -0.55370381576E+03  0.55370381576E+03  0.00000000000E+00 0.  1.
         25    2    1    2    0    0  0.13455866714E+02 -0.30588804606E+01 -0.17151244395E+03  0.21272336006E+03  0.12507714574E+03 0.  0.
          5    1    3    3  502    0 -0.34367145499E+02 -0.47784028465E+02 -0.96036651593E+02  0.11271612536E+03  0.41800000000E+01 0.  1.
         -5    1    3    3    0  502  0.47823012213E+02  0.44725148004E+02 -0.75475792356E+02  0.10000723470E+03  0.41800000000E+01 0.  1.
        -11    1    1    2    0    0  0.23633636487E+02 -0.34723984284E+02 -0.21127166774E+03  0.21540664207E+03  0.00000000000E+00 0. -1.
         11    1    1    2    0    0 -0.37089503201E+02  0.37782864745E+02 -0.14351954568E+03  0.15297397200E+03  0.00000000000E+00 0.  1.
</event>
<event>
 7    1  0.2810263E-009  0.1074548E+03  0.7561462E-02  0.1265357E+00
         -2   -1    0    0    0  501 -0.00000000000E+00  0.00000000000E+00  0.35113671933E+02  0.35113671933E+02  0.00000000000E+00 0.  1.
          2   -1    0    0  501    0  0.00000000000E+00 -0.00000000000E+00 -0.73184274229E+03  0.73184274229E+03  0.00000000000E+00 0. -1.
         25    2    1    2    0    0  0.89191555189E+02 -0.50460296700E+02 -0.50062749370E+03  0.52609541409E+03  0.12508845757E+03 0.  0.
          5    1    3    3  502    0  0.18438466675E+02  0.24581960554E+01 -0.14266579711E+01  0.19118774389E+02  0.41800000000E+01 0. -1.
         -5    1    3    3    0  502  0.70753088514E+02 -0.52918492755E+02 -0.49920083573E+03  0.50697663970E+03  0.41800000000E+01 0. -1.
        -11    1    1    2    0    0 -0.21705557499E+02  0.29697108911E+02 -0.49869842512E+01  0.37120338306E+02  0.00000000000E+00 0.  1.
         11    1    1    2    0    0 -0.67485997689E+02  0.20763187789E+02 -0.19111459240E+03  0.20374066182E+03  0.00000000000E+00 0. -1.
</event>
<event>
 7    1  0.2810263E-009  0.1238735E+03  0.7561462E-02  0.1236840E+00
          1   -1    0    0  501    0  0.00000000000E+00  0.00000000000E+00  0.23236982596E+03  0.23236982596E+03  0.00000000000E+00 0. -1.
         -1   -1    0    0    0  501 -0.00000000000E+00 -0.00000000000E+00 -0.11048699724E+03  0.11048699724E+03  0.00000000000E+00 0.  1.
         25    2    1    2    0    0 -0.94808084559E+02 -0.16726112405E+02  0.13532074280E+03  0.20791447325E+03  0.12509352110E+03 0.  0.
          5    1    3    3  502    0 -0.28775641992E+02 -0.34372124503E+02 -0.11014807778E+02  0.46349529720E+02  0.41800000000E+01 0.  1.
         -5    1    3    3    0  502 -0.66032442567E+02  0.17646012098E+02  0.14633555058E+03  0.16156494353E+03  0.41800000000E+01 0.  1.
        -11    1    1    2    0    0  0.91007047389E+02 -0.23379968085E+02 -0.82465259014E+01  0.94323437021E+02  0.00000000000E+00 0.  1.
         11    1    1    2    0    0  0.38010371704E+01  0.40106080490E+02 -0.51913881808E+01  0.40618912924E+02  0.00000000000E+00 0. -1.
</event>
<event>
 7    1  0.2810263E-009  0.2508914E+03  0.7561462E-02  0.1112743E+00
          2   -1    0    0  501    0  0.00000000000E+00  0.00000000000E+00  0.48960966484E+03  0.48960966484E+03  0.00000000000E+00 0. -1.
         -2   -1    0    0    0  501 -0.00000000000E+00 -0.00000000000E+00 -0.14522750127E+03  0.14522750127E+03  0.00000000000E+00 0.  1.
         25    2    1    2    0    0  0.16978885684E+03 -0.15687255375E+03  0.85902401374E+02  0.27652084702E+03  0.12508917719E+03 0.  0.
          5    1    3    3  502    0  0.16470573816E+03 -0.17448261037E+03  0.91616588156E+02  0.25687201703E+03  0.41800000000E+01 0. -1.
         -5    1    3    3    0  502  0.50831186790E+01  0.17610056622E+02 -0.57141867826E+01  0.19648829999E+02  0.41800000000E+01 0. -1.
        -11    1    1    2    0    0 -0.38877420797E+02  0.85447809403E+02  0.13644566165E+03  0.16562065259E+03  0.00000000000E+00 0. -1.
         11    1    1    2    0    0 -0.13091143605E+03  0.71424744345E+02  0.12203410054E+03  0.19269566650E+03  0.00000000000E+00 0.  1.
</event>
<event>
 7    1  0.2810263E-009  0.1031477E+03  0.7561462E-02  0.1273813E+00
          1   -1    0    0  501    0  0.00000000000E+00  0.00000000000E+00  0.10139771209E+03  0.10139771209E+03  0.00000000000E+00 0.  1.
         -1   -1    0    0    0  501 -0.00000000000E+00 -0.00000000000E+00 -0.16258132033E+03  0.16258132033E+03  0.00000000000E+00 0. -1.
         25    2    1    2    0    0 -0.23192405487E+02  0.24982317935E+02  0.27784725258E+02  0.13258788549E+03  0.12508218315E+03 0.  0.
          5    1    3    3  502    0  0.28629483790E+01 -0.46864120749E+02 -0.84768518239E+01  0.47893336737E+02  0.41800000000E+01 0. -1.
         -5    1    3    3    0  502 -0.26055353866E+02  0.71846438684E+02  0.36261577082E+02  0.84694548757E+02  0.41800000000E+01 0. -1.
        -11    1    1    2    0    0  0.22117467523E+02  0.24567886774E+02 -0.71619814916E+02  0.78880677728E+02  0.00000000000E+00 0. -1.
         11    1    1    2    0    0  0.10749379640E+01 -0.49550204709E+02 -0.17348518579E+02  0.52510469196E+02  0.00000000000E+00 0.  1.
</event>
<event>
 7    1  0.2810263E-009  0.1577897E+03  0.7561462E-02  0.1191215E+00
         -2   -1    0    0    0  501 -0.00000000000E+00  0.00000000000E+00  0.39039075268E+02  0.39039075268E+02  0.00000000000E+00 0. -1.
          2   -1    0    0  501    0  0.00000000000E+00 -0.00000000000E+00 -0.10137073519E+04  0.10137073519E+04  0.00000000000E+00 0.  1.
         25    2    1    2    0    0  0.78810361743E+01  0.14108691594E+03 -0.73292667980E+03  0.75683345555E+03  0.12509089856E+03 0.  0.
          5    1    3    3  502    0  0.18060463162E+02  0.51979124512E+02 -0.76683045152E+02  0.94476301412E+02  0.41800000000E+01 0. -1.
         -5    1    3    3    0  502 -0.10179426988E+02  0.89107791431E+02 -0.65624363464E+03  0.66235715414E+03  0.41800000000E+01 0. -1.
        -11    1    1    2    0    0 -0.51564867601E+02 -0.86385740851E+02 -0.14616644729E+03  0.17744312358E+03  0.00000000000E+00 0.  1.
         11    1    1    2    0    0  0.43683831426E+02 -0.54701175092E+02 -0.95575149584E+02  0.11846984807E+03  0.00000000000E+00 0. -1.
</event>
<event>
 7    1  0.2810263E-009  0.1214805E+03  0.7561462E-02  0.1240674E+00
         -2   -1    0    0    0  501 -0.00000000000E+00  0.00000000000E+00  0.75042436793E+02  0.75042436793E+02  0.00000000000E+00 0. -1.
          2   -1    0    0  501    0  0.00000000000E+00 -0.00000000000E+00 -0.23734882973E+03  0.23734882973E+03  0.00000000000E+00 0.  1.
         25    2    1    2    0    0  0.64479255502E+02  0.23777535358E+02 -0.11751184652E+03  0.18487055607E+03  0.12508054545E+03 0.  0.
          5    1    3    3  502    0 -0.36357683444E+02 -0.56026116415E+01 -0.38155573116E+02  0.53165689710E+02  0.41800000000E+01 0.  1.
         -5    1    3    3    0  502  0.10083693895E+03  0.29380147000E+02 -0.79356273403E+02  0.13170486636E+03  0.41800000000E+01 0.  1.
        -11    1    1    2    0    0 -0.17714029851E+02  0.26681809871E+02 -0.49062828249E+02  0.58590672870E+02  0.00000000000E+00 0.  1.
         11    1    1    2    0    0 -0.46765225651E+02 -0.50459345229E+02  0.42682818360E+01  0.68930037582E+02  0.00000000000E+00 0. -1.
</event>
<event>
 7    1  0.2810263E-009  0.8731691E+02  0.7561462E-02  0.1309482E+00
          2   -1    0    0  501    0  0.00000000000E+00  0.00000000000E+00  0.32503271556E+03  0.32503271556E+03  0.00000000000E+00 0. -1.
         -2   -1    0    0    0  501 -0.00000000000E+00 -0.00000000000E+00 -0.33464800333E+02  0.33464800333E+02  0.00000000000E+00 0.  1.
         25    2    1    2    0    0  0.10998345452E+02 -0.41701283399E+01  0.20593050729E+03  0.24123109981E+03  0.12508683428E+03 0.  0.
          5    1    3    3  502    0  0.60728140579E+01 -0.53369662855E+02  0.37498279612E+02  0.65641399723E+02  0.41800000000E+01 0.  1.
         -5    1    3    3    0  502  0.49255313944E+01  0.49199534515E+02  0.16843222768E+03  0.17558970009E+03  0.41800000000E+01 0.  1.
        -11    1    1    2    0    0  0.45768302641E+01 -0.31700615109E+02  0.66319864648E+02  0.73649173929E+02  0.00000000000E+00 0. -1.
         11    1    1    2    0    0 -0.15575175716E+02  0.35870743448E+02  0.19317543285E+02  0.43617242149E+02  0.00000000000E+00 0.  1.
</event>
<event>
 7    1  0.2810263E-009  0.1091349E+03  0.7561462E-02  0.1262180E+00
         -1   -1    0    0    0  501 -0.00000000000E+00  0.00000000000E+00  0.13111281270E+03  0.13111281270E+03  0.00000000000E+00 0.  1.
          1   -1    0    0  501    0  0.00000000000E+00 -0.00000000000E+00 -0.14679718373E+03  0.14679718373E+03  0.00000000000E+00 0. -1.
         25    2    1    2    0    0  0.66719496011E+02  0.19386057940E+01 -0.64084695946E+02  0.15559783439E+03  0.12509431831E+03 0.  0.
          5    1    3    3  502    0 -0.30971399969E+00  0.49694022457E+02  0.20826513713E+01  0.49913942215E+02  0.41800000000E+01 0.  1.
         -5    1    3    3    0  502  0.67029210011E+02 -0.47755416663E+02 -0.66167347317E+02  0.10568389218E+03  0.41800000000E+01 0.  1.
        -11    1    1    2    0    0 -0.48192758086E+02  0.24220560876E+02 -0.10784158955E+02  0.55004323334E+02  0.00000000000E+00 0. -1.
         11    1    1    2    0    0 -0.18526737926E+02 -0.26159166670E+02  0.59184483869E+02  0.67307838695E+02  0.00000000000E+00 0.  1.
</event>
<event>
 7    1  0.2810263E-009  0.1160735E+03  0.7561462E-02  0.1249719E+00
          2   -1    0    0  501    0  0.00000000000E+00  0.00000000000E+00  0.10183676327E+03  0.10183676327E+03  0.00000000000E+00 0. -1.
         -2   -1    0    0    0  501 -0.00000000000E+00 -0.00000000000E+00 -0.16426096346E+03  0.16426096346E+03  0.00000000000E+00 0.  1.
         25    2    1    2    0    0 -0.54857296903E+02  0.35646659368E+02 -0.60945059966E+02  0.15375771694E+03  0.12508848003E+03 0.  0.
          5    1    3    3  502    0 -0.60739632388E+02 -0.22317150932E+02 -0.69121843477E+02  0.94776894937E+02  0.41800000000E+01 0.  1.
         -5    1    3    3    0  502  0.58823354846E+01  0.57963810301E+02  0.81767835114E+01  0.58980822001E+02  0.41800000000E+01 0.  1.
        -11    1    1    2    0    0  0.43430423815E+02 -0.64555986318E+02 -0.13580839193E+02  0.78981746470E+02  0.00000000000E+00 0.  1.
         11    1    1    2    0    0  0.11426873088E+02  0.28909326950E+02  0.12101698969E+02  0.33358263312E+02  0.00000000000E+00 0. -1.
</event>
<event>
 7    1  0.2810263E-009  0.1041386E+03  0.7561462E-02  0.1271826E+00
         -4   -1    0    0    0  501 -0.00000000000E+00  0.00000000000E+00  0.44457359433E+03  0.44457359433E+03  0.00000000000E+00 0. -1.
          4   -1    0    0  501    0  0.00000000000E+00 -0.00000000000E+00 -0.37178907417E+02  0.37178907417E+02  0.00000000000E+00 0.  1.
         25    2    1    2    0    0  0.21381755490E+02 -0.21205524913E+02  0.34089465502E+03  0.36436744776E+03  0.12509043694E+03 0.  0.
          5    1    3    3  502    0  0.73739093109E+02 -0.16094702377E+02  0.21287084643E+03  0.22589369836E+03  0.41800000000E+01 0. -1.
         -5    1    3    3    0  502 -0.52357337619E+02 -0.51108225358E+01  0.12802380858E+03  0.13847374940E+03  0.41800000000E+01 0. -1.
        -11    1    1    2    0    0 -0.41633038871E+02 -0.99033839860E+01  0.18479360382E+01  0.42834586581E+02  0.00000000000E+00 0.  1.
         11    1    1    2    0    0  0.20251283380E+02  0.31108908899E+02  0.64652095860E+02  0.74550467407E+02  0.00000000000E+00 0. -1.
</event>
<event>
 7    1  0.2810263E-009  0.1115480E+03  0.7561462E-02  0.1257730E+00
         -2   -1    0    0    0  501 -0.00000000000E+00  0.00000000000E+00  0.12746329691E+03  0.12746329691E+03  0.00000000000E+00 0.  1.
          2   -1    0    0  501    0  0.00000000000E+00 -0.00000000000E+00 -0.10326149332E+03  0.10326149332E+03  0.00000000000E+00 0. -1.
         25    2    1    2    0    0 -0.93608872223E+01  0.19189213238E+02 -0.48788227281E+01  0.12698400042E+03  0.12508109904E+03 0.  0.
          5    1    3    3  502    0  0.56989314128E+02  0.14506837402E+02 -0.11302434894E+02  0.60028723881E+02  0.41800000000E+01 0.  1.
         -5    1    3    3    0  502 -0.66350201351E+02  0.46823758358E+01  0.64236121654E+01  0.66955276536E+02  0.41800000000E+01 0.  1.
        -11    1    1    2    0    0  0.11030684010E+02 -0.57802250223E+02  0.70832502419E+01  0.59270132061E+02  0.00000000000E+00 0.  1.
         11    1    1    2    0    0 -0.16697967882E+01  0.38613036985E+02  0.21997376082E+02  0.44470657754E+02  0.00000000000E+00 0. -1.
</event>
<event>
 7    1  0.3044346E-009  0.1076228E+03  0.7561462E-02  0.1265037E+00
          2   -1    0    0  501    0  0.00000000000E+00  0.00000000000E+00  0.41072846163E+03  0.41072846163E+03  0.00000000000E+00 0.  1.
         -2   -1    0    0    0  501 -0.00000000000E+00 -0.00000000000E+00 -0.43295038903E+02  0.43295038903E+02  0.00000000000E+00 0. -1.
         25    2    1    2    0    0  0.67860250124E+02  0.34124883767E+02  0.23404015521E+03  0.27602851748E+03  0.12508967573E+03 0.  0.
          5    1    3    3  502    0  0.89024442256E+02  0.55371036705E+02  0.21759876334E+03  0.24157399949E+03  0.41800000000E+01 0. -1.
         -5    1    3    3    0  502 -0.21164192132E+02 -0.21246152938E+02  0.16441391870E+02  0.34454517990E+02  0.41800000000E+01 0. -1.
        -11    1    1    2    0    0 -0.30217169526E+02 -0.29305668854E+02  0.13356832193E+03  0.14004426509E+03  0.00000000000E+00 0.  1.
         11    1    1    2    0    0 -0.37643080598E+02 -0.48192149133E+01 -0.17505441756E+00  0.37950717956E+02  0.00000000000E+00 0. -1.
</event>
<event>
 7    1  0.2810263E-009  0.9317218E+02  0.7561462E-02  0.1295347E+00
         -1   -1    0    0    0  501 -0.00000000000E+00  0.00000000000E+00  0.43730965428E+02  0.43730965428E+02  0.00000000000E+00 0.  1.
          1   -1    0    0  501    0  0.00000000000E+00 -0.00000000000E+00 -0.39756862717E+03  0.39756862717E+03  0.00000000000E+00 0. -1.
         25    2    1    2    0    0  0.73398381830E+02 -0.10250650818E+02 -0.17517180034E+03  0.22765250462E+03  0.12509238558E+03 0.  0.
          5    1    3    3  502    0  0.34352160464E+02 -0.69549299080E+01  0.11300004280E+02  0.37062170407E+02  0.41800000000E+01 0.  1.
         -5    1    3    3    0  502  0.39046221366E+02 -0.32957209105E+01 -0.18647180462E+03  0.19059033422E+03  0.41800000000E+01 0.  1.
        -11    1    1    2    0    0 -0.92054699657E+02  0.46985470282E+01 -0.16755305070E+03  0.19123328390E+03  0.00000000000E+00 0. -1.
         11    1    1    2    0    0  0.18656317827E+02  0.55521037903E+01 -0.11112810709E+02  0.22413804077E+02  0.00000000000E+00 0.  1.
</event>
<event>
 7    1  0.2810263E-009  0.1518792E+03  0.7561462E-02  0.1198183E+00
         -1   -1    0    0    0  501 -0.00000000000E+00  0.00000000000E+00  0.53259304760E+02  0.53259304760E+02  0.00000000000E+00 0.  1.
          1   -1    0    0  501    0  0.00000000000E+00 -0.00000000000E+00 -0.51984958483E+03  0.51984958483E+03  0.00000000000E+00 0. -1.
         25    2    1    2    0    0  0.11720784140E+03  0.36273609208E+02 -0.30786579351E+03  0.35423490135E+03  0.12509023025E+03 0.  0.
          5    1    3    3  502    0  0.36617287370E+02 -0.36297742488E+02 -0.17602998760E+03  0.18347310642E+03  0.41800000000E+01 0.  1.
         -5    1    3    3    0  502  0.80590554033E+02  0.72571351696E+02 -0.13183580591E+03  0.17076179493E+03  0.41800000000E+01 0.  1.
        -11    1    1    2    0    0  0.61272060275E+01  0.10034518762E+02 -0.39432296453E+02  0.41147785166E+02  0.00000000000E+00 0. -1.
         11    1    1    2    0    0 -0.12333504743E+03 -0.46308127970E+02 -0.11929219011E+03  0.17772620308E+03  0.00000000000E+00 0.  1.
</event>
<event>
 7    1  0.2810263E-009  0.1162916E+03  0.7561462E-02  0.1249343E+00
         -2   -1    0    0    0  501 -0.00000000000E+00  0.00000000000E+00  0.16836225458E+03  0.16836225458E+03  0.00000000000E+00 0.  1.
          2   -1    0    0  501    0  0.00000000000E+00 -0.00000000000E+00 -0.97122274346E+02  0.97122274346E+02  0.00000000000E+00 0. -1.
         25    2    1    2    0    0 -0.55196619301E+02 -0.29159675896E+02  0.71826623361E+01  0.13998400461E+03  0.12508787883E+03 0.  0.
          5    1    3    3  502    0 -0.70553333299E+02 -0.64873867018E+02  0.21551118433E+02  0.98327588027E+02  0.41800000000E+01 0.  1.
         -5    1    3    3    0  502  0.15356713999E+02  0.35714191122E+02 -0.14368456097E+02  0.41656416588E+02  0.41800000000E+01 0.  1.
        -11    1    1    2    0    0  0.67440600759E+02  0.16789465809E+01  0.67239016677E+02  0.95247776121E+02  0.00000000000E+00 0.  1.
         11    1    1    2    0    0 -0.12243981458E+02  0.27480729315E+02 -0.31816987834E+01  0.30252748186E+02  0.00000000000E+00 0. -1.
</event>
<event>
 7    1  0.2810263E-009  0.1001939E+03  0.7561462E-02  0.1279889E+00
          1   -1    0    0  501    0  0.00000000000E+00  0.00000000000E+00  0.11161457056E+03  0.11161457056E+03  0.00000000000E+00 0.  1.
         -1   -1    0    0    0  501 -0.00000000000E+00 -0.00000000000E+00 -0.12694853989E+03  0.12694853989E+03  0.00000000000E+00 0. -1.
         25    2    1    2    0    0 -0.91664053859E+01  0.26772948858E+02  0.34319119729E+02  0.13276235639E+03  0.12508887847E+03 0.  0.
          5    1    3    3  502    0 -0.24773531852E+02  0.73724528290E+02  0.14120457930E+02  0.79157398164E+02  0.41800000000E+01 0.  1.
         -5    1    3    3    0  502  0.15607126466E+02 -0.46951579432E+02  0.20198661799E+02  0.53604958224E+02  0.41800000000E+01 0.  1.
        -11    1    1    2    0    0 -0.20885617233E+02  0.11768645812E+02  0.12256901282E+02  0.26924740676E+02  0.00000000000E+00 0.  1.
         11    1    1    2    0    0  0.30052022619E+02 -0.38541594670E+02 -0.61909990345E+02  0.78876013387E+02  0.00000000000E+00 0. -1.
</event>
<event>
 7    1  0.2810263E-009  0.1371476E+03  0.7561462E-02  0.1217219E+00
         -2   -1    0    0    0  501 -0.00000000000E+00  0.00000000000E+00  0.57187670145E+02  0.57187670145E+02  0.00000000000E+00 0. -1.
          2   -1    0    0  501    0  0.00000000000E+00 -0.00000000000E+00 -0.55774816536E+03  0.55774816536E+03  0.00000000000E+00 0.  1.
         25    2    1    2    0    0 -0.36333647651E+02  0.82326656736E+02 -0.76283719964E+02  0.17194247596E+03  0.12508875548E+03 0.  0.
          5    1    3    3  502    0  0.27097705896E+02  0.78594949412E+02 -0.17038944384E+02  0.84966168347E+02  0.41800000000E+01 0.  1.
         -5    1    3    3    0  502 -0.63431353547E+02  0.37317073238E+01 -0.59244775580E+02  0.86976307613E+02  0.41800000000E+01 0.  1.
        -11    1    1    2    0    0  0.10055731526E+02 -0.96837642612E+02 -0.32828680330E+03  0.34241914664E+03  0.00000000000E+00 0.  1.
         11    1    1    2    0    0  0.26277916125E+02  0.14510985876E+02 -0.95989971944E+02  0.10057421290E+03  0.00000000000E+00 0. -1.
</event>
<event>
 7    1  0.2810263E-009  0.9246046E+02  0.7561462E-02  0.1297000E+00
          2   -1    0    0  501    0  0.00000000000E+00  0.00000000000E+00  0.66358141000E+03  0.66358141000E+03  0.00000000000E+00 0.  1.
         -2   -1    0    0    0  501 -0.00000000000E+00 -0.00000000000E+00 -0.39826897591E+02  0.39826897591E+02  0.00000000000E+00 0. -1.
         25    2    1    2    0    0  0.80280628932E+02  0.36769144346E+02  0.51316963116E+03  0.53552645771E+03  0.12509423330E+03 0.  0.
          5    1    3    3  502    0  0.38905678566E+02  0.38583204960E+02  0.47766631324E+03  0.48081690354E+03  0.41800000000E+01 0. -1.
         -5    1    3    3    0  502  0.41374950365E+02 -0.18140606138E+01  0.35503317918E+02  0.54709554164E+02  0.41800000000E+01 0. -1.
        -11    1    1    2    0    0 -0.64565096120E+02 -0.30759608581E+02  0.17956350515E+02  0.73737613745E+02  0.00000000000E+00 0. -1.
         11    1    1    2    0    0 -0.15715532812E+02 -0.60095357653E+01  0.92628530731E+02  0.94144236133E+02  0.00000000000E+00 0.  1.
</event>
<event>
 7    1  0.2810263E-009  0.1612060E+03  0.7561462E-02  0.1187342E+00
         -4   -1    0    0    0  501 -0.00000000000E+00  0.00000000000E+00  0.13047455890E+03  0.13047455890E+03  0.00000000000E+00 0.  1.
          4   -1    0    0  501    0  0.00000000000E+00 -0.00000000000E+00 -0.29410063454E+03  0.29410063454E+03  0.00000000000E+00 0. -1.
         25    2    1    2    0    0  0.56488862914E+02  0.12939110879E+03 -0.17362180067E+03  0.25636858030E+03  0.12508904281E+03 0.  0.
          5    1    3    3  502    0 -0.63370187483E+01 -0.14132021618E+02 -0.61776880640E+02  0.63825756739E+02  0.41800000000E+01 0. -1.
         -5    1    3    3    0  502  0.62825881662E+02  0.14352313041E+03 -0.11184492003E+03  0.19254282356E+03  0.41800000000E+01 0. -1.
        -11    1    1    2    0    0 -0.35709967195E+02 -0.25969575288E+02  0.38882950475E+02  0.58834551373E+02  0.00000000000E+00 0.  1.
         11    1    1    2    0    0 -0.20778895719E+02 -0.10342153351E+03 -0.28887225443E+02  0.10937206176E+03  0.00000000000E+00 0. -1.
</event>
<event>
 7    1  0.2810263E-009  0.3384539E+03  0.7561462E-02  0.1067456E+00
          3   -1    0    0  501    0  0.00000000000E+00  0.00000000000E+00  0.46630763576E+03  0.46630763576E+03  0.00000000000E+00 0. -1.
         -3   -1    0    0    0  501 -0.00000000000E+00 -0.00000000000E+00 -0.26186260947E+03  0.26186260947E+03  0.00000000000E+00 0.  1.
         25    2    1    2    0    0 -0.27431761803E+03  0.17875562462E+03  0.15984939564E+03  0.38523138120E+03  0.12509060267E+03 0.  0.
          5    1    3    3  502    0 -0.52053738703E-01 -0.13011116298E+02 -0.13814846456E+01  0.13735820206E+02  0.41800000000E+01 0.  1.
         -5    1    3    3    0  502 -0.27426556429E+03  0.19176674092E+03  0.16123088028E+03  0.37149556099E+03  0.41800000000E+01 0.  1.
        -11    1    1    2    0    0  0.18066197784E+03 -0.10200158558E+03  0.70482161493E+02  0.21911368918E+03  0.00000000000E+00 0. -1.
         11    1    1    2    0    0  0.93655640191E+02 -0.76754039045E+02 -0.25886530829E+02  0.12382517485E+03  0.00000000000E+00 0.  1.
</event>
<event>
 7    1  0.2810263E-009  0.9349759E+02  0.7561462E-02  0.1294596E+00
         -3   -1    0    0    0  501 -0.00000000000E+00  0.00000000000E+00  0.49698217990E+02  0.49698217990E+02  0.00000000000E+00 0.  1.
          3   -1    0    0  501    0  0.00000000000E+00 -0.00000000000E+00 -0.36240298850E+03  0.36240298850E+03  0.00000000000E+00 0. -1.
         25    2    1    2    0    0  0.13080687352E+02  0.69509659907E+02 -0.21492022708E+03  0.25853292750E+03  0.12508346570E+03 0.  0.
          5    1    3    3  502    0  0.12382805751E+02  0.66237383975E+02 -0.30583520878E+02  0.74118479905E+02  0.41800000000E+01 0. -1.
         -5    1    3    3    0  502  0.69788160101E+00  0.32722759321E+01 -0.18433670620E+03  0.18441444759E+03  0.41800000000E+01 0. -1.
        -11    1    1    2    0    0 -0.56082355840E+01  0.21800938302E+02 -0.38014007366E+02  0.44179157679E+02  0.00000000000E+00 0.  1.
         11    1    1    2    0    0 -0.74724517683E+01 -0.91310598209E+02 -0.59770536072E+02  0.10938912132E+03  0.00000000000E+00 0. -1.
</event>
<event>
 7    1  0.2810263E-009  0.1019128E+03  0.7561462E-02  0.1276324E+00
          3   -1    0    0  501    0  0.00000000000E+00  0.00000000000E+00  0.10980244310E+03  0.10980244310E+03  0.00000000000E+00 0. -1.
         -3   -1    0    0    0  501 -0.00000000000E+00 -0.00000000000E+00 -0.16759207615E+03  0.16759207615E+03  0.00000000000E+00 0.  1.
         25    2    1    2    0    0 -0.28183033919E+02 -0.57048425500E+01  0.47767633314E+02  0.13696273957E+03  0.12510082577E+03 0.  0.
          5    1    3    3  502    0  0.20998043860E+02 -0.44636318613E+02  0.54631261499E+02  0.73724934169E+02  0.41800000000E+01 0. -1.
         -5    1    3    3    0  502 -0.49181077779E+02  0.38931476063E+02 -0.68636281848E+01  0.63237805400E+02  0.41800000000E+01 0. -1.
        -11    1    1    2    0    0 -0.52132618399E+01 -0.36931199023E+02 -0.54210835100E+02  0.65802022784E+02  0.00000000000E+00 0.  1.
         11    1    1    2    0    0  0.33396295759E+02  0.42636041573E+02 -0.51346431263E+02  0.74629756899E+02  0.00000000000E+00 0. -1.
</event>
<event>
 7    1  0.2810263E-009  0.1122477E+03  0.7561462E-02  0.1256463E+00
         -1   -1    0    0    0  501 -0.00000000000E+00  0.00000000000E+00  0.66374901729E+03  0.66374901729E+03  0.00000000000E+00 0.  1.
          1   -1    0    0  501    0  0.00000000000E+00 -0.00000000000E+00 -0.41799522966E+02  0.41799522966E+02  0.00000000000E+00 0. -1.
         25    2    1    2    0    0 -0.18181650585E+02 -0.10203045746E+03  0.48551417166E+03  0.51196920662E+03  0.12509065105E+03 0.  0.
          5    1    3    3  502    0  0.71126031808E+01 -0.48135476390E+02  0.42199128569E+03  0.42480787518E+03  0.41800000000E+01 0.  1.
         -5    1    3    3    0  502 -0.25294253766E+02 -0.53894981067E+02  0.63522885970E+02  0.87161331448E+02  0.41800000000E+01 0.  1.
        -11    1    1    2    0    0  0.35913710095E+02  0.54731298060E+02  0.22965650727E+02  0.69373847186E+02  0.00000000000E+00 0. -1.
         11    1    1    2    0    0 -0.17732059510E+02  0.47299159398E+02  0.11346967193E+03  0.12420548644E+03  0.00000000000E+00 0.  1.
</event>
<event>
 7    1  0.2810263E-009  0.1259285E+03  0.7561462E-02  0.1233625E+00
          1   -1    0    0  501    0  0.00000000000E+00  0.00000000000E+00  0.14360888278E+04  0.14360888278E+04  0.00000000000E+00 0. -1.
         -1   -1    0    0    0  501 -0.00000000000E+00 -0.00000000000E+00 -0.20166854981E+02  0.20166854981E+02  0.00000000000E+00 0.  1.
         25    2    1    2    0    0  0.91377183111E+02 -0.19752035068E+02  0.11852407047E+04  0.11954829302E+04  0.12507588037E+03 0.  0.
          5    1    3    3  502    0  0.41216985348E+02 -0.69849669712E+02  0.49743174388E+03  0.50401748825E+03  0.41800000000E+01 0. -1.
         -5    1    3    3    0  502  0.50160197763E+02  0.50097634643E+02  0.68780896085E+03  0.69146544198E+03  0.41800000000E+01 0. -1.
        -11    1    1    2    0    0 -0.26705398107E+02  0.22469535525E+02  0.16464434359E+03  0.16830275752E+03  0.00000000000E+00 0. -1.
         11    1    1    2    0    0 -0.64671785004E+02 -0.27175004564E+01  0.66036924546E+02  0.92469995068E+02  0.00000000000E+00 0.  1.
</event>
<event>
 7    1  0.2810263E-009  0.1111163E+03  0.7561462E-02  0.1258517E+00
          2   -1    0    0  501    0  0.00000000000E+00  0.00000000000E+00  0.19163868922E+03  0.19163868922E+03  0.00000000000E+00 0. -1.
         -2   -1    0    0    0  501 -0.00000000000E+00 -0.00000000000E+00 -0.84467357463E+02  0.84467357463E+02  0.00000000000E+00 0.  1.
         25    2    1    2    0    0 -0.55377341025E+02  0.19457560121E+01  0.25698647629E+02  0.13920781900E+03  0.12509180834E+03 0.  0.
          5    1    3    3  502    0 -0.45179974581E+02 -0.45456684884E+02 -0.25010021345E+02  0.68923971675E+02  0.41800000000E+01 0. -1.
         -5    1    3    3    0  502 -0.10197366444E+02  0.47402440896E+02  0.50708668974E+02  0.70283847322E+02  0.41800000000E+01 0. -1.
        -11    1    1    2    0    0  0.15120084427E+02  0.45014268051E+02  0.27939927545E+02  0.55095742417E+02  0.00000000000E+00 0.  1.
         11    1    1    2    0    0  0.40257256598E+02 -0.46960024063E+02  0.53532756583E+02  0.81802485269E+02  0.00000000000E+00 0. -1.
</event>
<event>
 7    1  0.2810263E-009  0.9371907E+02  0.7561462E-02  0.1294087E+00
          2   -1    0    0  501    0  0.00000000000E+00  0.00000000000E+00  0.12860351297E+03  0.12860351297E+03  0.00000000000E+00 0. -1.
         -2   -1    0    0    0  501 -0.00000000000E+00 -0.00000000000E+00 -0.11037480408E+03  0.11037480408E+03  0.00000000000E+00 0.  1.
         25    2    1    2    0    0 -0.52847927638E+02 -0.33893323609E+02 -0.12351174444E+02  0.14050195844E+03  0.12508632209E+03 0.  0.
          5    1    3    3  502    0  0.18935367964E+02  0.20231326885E+02  0.29985802234E+02  0.41042362055E+02  0.41800000000E+01 0.  1.
         -5    1    3    3    0  502 -0.71783295602E+02 -0.54124650494E+02 -0.42336976678E+02  0.99459596384E+02  0.41800000000E+01 0.  1.
        -11    1    1    2    0    0  0.28518678262E+02  0.34894250474E+02 -0.14415194666E+02  0.47315130384E+02  0.00000000000E+00 0.  1.
         11    1    1    2    0    0  0.24329249376E+02 -0.10009268652E+01  0.44995078000E+02  0.51161228230E+02  0.00000000000E+00 0. -1.
</event>
<event>
 7    1  0.2810263E-009  0.1877073E+03  0.7561462E-02  0.1160546E+00
         -4   -1    0    0    0  501 -0.00000000000E+00  0.00000000000E+00  0.20229974463E+03  0.20229974463E+03  0.00000000000E+00 0.  1.
          4   -1    0    0  501    0  0.00000000000E+00 -0.00000000000E+00 -0.35587161821E+03  0.35587161821E+03  0.00000000000E+00 0. -1.
         25    2    1    2    0    0 -0.10985238844E+03  0.10892366776E+03  0.11910672933E+03  0.23187882562E+03  0.12509781834E+03 0.  0.
          5    1    3    3  502    0 -0.10777773439E+03  0.20693871112E+02  0.55814683950E+02  0.12319507976E+03  0.41800000000E+01 0. -1.
         -5    1    3    3    0  502 -0.20746540543E+01  0.88229796649E+02  0.63292045379E+02  0.10868374586E+03  0.41800000000E+01 0. -1.
        -11    1    1    2    0    0  0.12218877993E+03 -0.80698410028E+02 -0.20493361657E+03  0.25187321914E+03  0.00000000000E+00 0.  1.
         11    1    1    2    0    0 -0.12336391484E+02 -0.28225257733E+02 -0.67744986339E+02  0.74419318077E+02  0.00000000000E+00 0. -1.
</event>
<event>
 7    1  0.2810263E-009  0.7169820E+02  0.7561462E-02  0.1354412E+00
         -3   -1    0    0    0  501 -0.00000000000E+00  0.00000000000E+00  0.14038835406E+03  0.14038835406E+03  0.00000000000E+00 0.  1.
          3   -1    0    0  501    0  0.00000000000E+00 -0.00000000000E+00 -0.11722581692E+03  0.11722581692E+03  0.00000000000E+00 0. -1.
         25    2    1    2    0    0  0.54779060827E+01  0.25819382888E+02  0.76478241936E+02  0.14897444646E+03  0.12509123159E+03 0.  0.
          5    1    3    3  502    0 -0.16437053507E+02  0.52232973550E+02 -0.10018162592E+02  0.55823796320E+02  0.41800000000E+01 0.  1.
         -5    1    3    3    0  502  0.21914959590E+02 -0.26413590662E+02  0.86496404528E+02  0.93150650141E+02  0.41800000000E+01 0.  1.
        -11    1    1    2    0    0  0.13910202402E+01  0.13710999192E+02  0.20454658849E+02  0.24664133976E+02  0.00000000000E+00 0.  1.
         11    1    1    2    0    0 -0.68689263230E+01 -0.39530382080E+02 -0.73770363643E+02  0.83975590551E+02  0.00000000000E+00 0. -1.
</event>
<event>
 7    1  0.4138135E-009  0.1807676E+03  0.7561462E-02  0.1167062E+00
         -2   -1    0    0    0  501 -0.00000000000E+00  0.00000000000E+00  0.57302011495E+02  0.57302011495E+02  0.00000000000E+00 0.  1.
          2   -1    0    0  501    0  0.00000000000E+00 -0.00000000000E+00 -0.65582615221E+03  0.65582615221E+03  0.00000000000E+00 0. -1.
         25    2    1    2    0    0  0.10789213150E+03 -0.11467959408E+03 -0.25902672088E+03  0.32792378716E+03  0.12508815577E+03 0.  0.
          5    1    3    3  502    0  0.12174798977E+03 -0.57900055958E+02 -0.13541462415E+03  0.19112713656E+03  0.41800000000E+01 0.  1.
         -5    1    3    3    0  502 -0.13855858275E+02 -0.56779538121E+02 -0.12361209673E+03  0.13679665060E+03  0.41800000000E+01 0.  1.
        -11    1    1    2    0    0 -0.83999357832E+02  0.46926894722E+02 -0.11748644931E+03  0.15185878749E+03  0.00000000000E+00 0.  1.
         11    1    1    2    0    0 -0.23892773666E+02  0.67752699358E+02 -0.22201097052E+03  0.23334558907E+03  0.00000000000E+00 0. -1.
</event>
<event>
 7    1  0.2810263E-009  0.1038664E+03  0.7561462E-02  0.1272369E+00
          1   -1    0    0  501    0  0.00000000000E+00  0.00000000000E+00  0.23584240315E+02  0.23584240315E+02  0.00000000000E+00 0. -1.
         -1   -1    0    0    0  501 -0.00000000000E+00 -0.00000000000E+00 -0.59007084325E+03  0.59007084325E+03  0.00000000000E+00 0.  1.
         25    2    1    2    0    0 -0.43160479703E+02  0.95211704755E+01 -0.31511017153E+03  0.34189994364E+03  0.12509065338E+03 0.  0.
          5    1    3    3  502    0 -0.68902908571E+02 -0.14403403141E+02 -0.29014100951E+03  0.29858725129E+03  0.41800000000E+01 0.  1.
         -5    1    3    3    0  502  0.25742428868E+02  0.23924573616E+02 -0.24969162020E+02  0.43312692351E+02  0.41800000000E+01 0.  1.
        -11    1    1    2    0    0 -0.20970797342E+02 -0.28095021550E+02 -0.66209188833E+02  0.74918363990E+02  0.00000000000E+00 0. -1.
         11    1    1    2    0    0  0.64131277045E+02  0.18573851074E+02 -0.18516724257E+03  0.19683677594E+03  0.00000000000E+00 0.  1.
</event>
<event>
 7    1  0.2810263E-009  0.1122687E+03  0.7561462E-02  0.1256425E+00
         -1   -1    0    0    0  501 -0.00000000000E+00  0.00000000000E+00  0.42772826658E+03  0.42772826658E+03  0.00000000000E+00 0.  1.
          1   -1    0    0  501    0  0.00000000000E+00 -0.00000000000E+00 -0.37817309980E+02  0.37817309980E+02  0.00000000000E+00 0. -1.
         25    2    1    2    0    0 -0.45067126881E+02  0.61007334757E+02  0.24193601038E+03  0.28272614434E+03  0.12509236089E+03 0.  0.
          5    1    3    3  502    0  0.12833192754E+02  0.82399993763E+02  0.15444353982E+03  0.17556972746E+03  0.41800000000E+01 0. -1.
         -5    1    3    3    0  502 -0.57900319635E+02 -0.21392659006E+02  0.87492470558E+02  0.10715641688E+03  0.41800000000E+01 0. -1.
        -11    1    1    2    0    0  0.40515205642E+02 -0.37428200399E+02  0.30729615030E+02  0.63140013567E+02  0.00000000000E+00 0. -1.
         11    1    1    2    0    0  0.45519212392E+01 -0.23579134358E+02  0.11724533119E+03  0.11967941865E+03  0.00000000000E+00 0.  1.
</event>
<event>
 7    1  0.2810263E-009  0.1060295E+03  0.7561462E-02  0.1268105E+00
          2   -1    0    0  501    0  0.00000000000E+00  0.00000000000E+00  0.33824646112E+02  0.33824646112E+02  0.00000000000E+00 0. -1.
         -2   -1    0    0    0  501 -0.00000000000E+00 -0.00000000000E+00 -0.45751177121E+03  0.45751177121E+03  0.00000000000E+00 0.  1.
         25    2    1    2    0    0  0.38874862322E+02  0.22867216436E+02 -0.32006471691E+03  0.34658342166E+03  0.12507789832E+03 0.  0.
          5    1    3    3  502    0 -0.20516958753E+02  0.43403013384E+02 -0.50676779327E+02  0.69931219997E+02  0.41800000000E+01 0. -1.
         -5    1    3    3    0  502  0.59391821075E+02 -0.20535796948E+02 -0.26938793759E+03  0.27665220166E+03  0.41800000000E+01 0. -1.
        -11    1    1    2    0    0 -0.65580296930E+02  0.22953836964E+00 -0.71475737822E+02  0.97003139798E+02  0.00000000000E+00 0. -1.
         11    1    1    2    0    0  0.26705434608E+02 -0.23096754805E+02 -0.32146670367E+02  0.47749855873E+02  0.00000000000E+00 0.  1.
</event>
<event>
 7    1  0.2810263E-009  0.2512921E+03  0.7561462E-02  0.1112491E+00
          1   -1    0    0  501    0  0.00000000000E+00  0.00000000000E+00  0.18724676845E+03  0.18724676845E+03  0.00000000000E+00 0. -1.
         -1   -1    0    0    0  501 -0.00000000000E+00 -0.00000000000E+00 -0.38715998922E+03  0.38715998922E+03  0.00000000000E+00 0.  1.
         25    2    1    2    0    0  0.22979179697E+03  0.72404900539E+01 -0.77196586810E+01  0.26184578522E+03  0.12508767909E+03 0.  0.
          5    1    3    3  502    0  0.23313578418E+03 -0.16245040372E+02  0.65839719554E+01  0.23383117048E+03  0.41800000000E+01 0.  1.
         -5    1    3    3    0  502 -0.33439872117E+01  0.23485530426E+02 -0.14303630636E+02  0.28014614744E+02  0.41800000000E+01 0.  1.
        -11    1    1    2    0    0 -0.20609470657E+03  0.21835751683E+02 -0.17520767381E+03  0.27138451888E+03  0.00000000000E+00 0.  1.
         11    1    1    2    0    0 -0.23697090400E+02 -0.29076241737E+02 -0.16985888282E+02  0.41176453559E+02  0.00000000000E+00 0. -1.
</event>
<event>
 7    1  0.2810263E-009  0.1140737E+03  0.7561462E-02  0.1253207E+00
          1   -1    0    0  501    0  0.00000000000E+00  0.00000000000E+00  0.75601846502E+03  0.75601846502E+03  0.00000000000E+00 0. -1.
         -1   -1    0    0    0  501 -0.00000000000E+00 -0.00000000000E+00 -0.18072387442E+02  0.18072387442E+02  0.00000000000E+00 0.  1.
         25    2    1    2    0    0  0.29736013815E+02 -0.15618331865E+02  0.33531150869E+03  0.35945633400E+03  0.12508751089E+03 0.  0.
          5    1    3    3  502    0 -0.88752373159E+00  0.53437903800E+02  0.12811294082E+03  0.13887690689E+03  0.41800000000E+01 0. -1.
         -5    1    3    3    0  502  0.30623537546E+02 -0.69056235665E+02  0.20719856787E+03  0.22057942711E+03  0.41800000000E+01 0. -1.
        -11    1    1    2    0    0  0.33925038066E+02  0.70014725804E+01  0.15210555225E+03  0.15600008927E+03  0.00000000000E+00 0. -1.
         11    1    1    2    0    0 -0.63661051880E+02  0.86168592844E+01  0.25052901663E+03  0.25863442919E+03  0.00000000000E+00 0.  1.
</event>
<event>
 7    1  0.2810263E-009  0.1571910E+03  0.7561462E-02  0.1191905E+00
          2   -1    0    0  501    0  0.00000000000E+00  0.00000000000E+00  0.98616486440E+02  0.98616486440E+02  0.00000000000E+00 0.  1.
         -2   -1    0    0    0  501 -0.00000000000E+00 -0.00000000000E+00 -0.34648052816E+03  0.34648052816E+03  0.00000000000E+00 0. -1.
         25    2    1    2    0    0 -0.14821237288E+03 -0.16785714462E+02 -0.13321959175E+03  0.23588912001E+03  0.12509016600E+03 0.  0.
          5    1    3    3  502    0 -0.66522564473E+02 -0.13764599045E+02  0.12076676317E+02  0.69123326611E+02  0.41800000000E+01 0.  1.
         -5    1    3    3    0  502 -0.81689808405E+02 -0.30211154176E+01 -0.14529626806E+03  0.16676579340E+03  0.41800000000E+01 0.  1.
        -11    1    1    2    0    0  0.25276036729E+02 -0.24088513211E+02 -0.58248637437E+02  0.67911989109E+02  0.00000000000E+00 0. -1.
         11    1    1    2    0    0  0.12293633615E+03  0.40874227674E+02 -0.56395812538E+02  0.14129590548E+03  0.00000000000E+00 0.  1.
</event>
<event>
 7    1  0.2810263E-009  0.1326504E+03  0.7561462E-02  0.1223575E+00
         -3   -1    0    0    0  501 -0.00000000000E+00  0.00000000000E+00  0.34469453832E+02  0.34469453832E+02  0.00000000000E+00 0.  1.
          3   -1    0    0  501    0  0.00000000000E+00 -0.00000000000E+00 -0.97395143319E+03  0.97395143319E+03  0.00000000000E+00 0. -1.
         25    2    1    2    0    0 -0.35741852173E+01  0.80095302047E+02 -0.83589006056E+03  0.84899011565E+03  0.12507594061E+03 0.  0.
          5    1    3    3  502    0 -0.61265697223E+02  0.48862173717E+02 -0.55437391341E+03  0.55990080009E+03  0.41800000000E+01 0.  1.
         -5    1    3    3    0  502  0.57691512005E+02  0.31233128329E+02 -0.28151614715E+03  0.28908931556E+03  0.41800000000E+01 0.  1.
        -11    1    1    2    0    0 -0.17166879031E+02  0.15584867329E+02 -0.17326634475E+02  0.28944811064E+02  0.00000000000E+00 0.  1.
         11    1    1    2    0    0  0.20741064248E+02 -0.95680169375E+02 -0.86265284319E+02  0.13048596030E+03  0.00000000000E+00 0. -1.
</event>
<event>
 7    1  0.2810263E-009  0.2146815E+03  0.7561462E-02  0.1137911E+00
          3   -1    0    0  501    0  0.00000000000E+00  0.00000000000E+00  0.20943282444E+03  0.20943282444E+03  0.00000000000E+00 0. -1.
         -3   -1    0    0    0  501 -0.00000000000E+00 -0.00000000000E+00 -0.23827187414E+03  0.23827187414E+03  0.00000000000E+00 0.  1.
         25    2    1    2    0    0 -0.17363033548E+02  0.19299866490E+03 -0.26300031696E+02  0.23213943062E+03  0.12508822483E+03 0.  0.
          5    1    3    3  502    0 -0.71127294531E+02  0.12239596828E+03 -0.20612488410E+02  0.14311607931E+03  0.41800000000E+01 0.  1.
         -5    1    3    3    0  502  0.53764260984E+02  0.70602696626E+02 -0.56875432855E+01  0.89023351311E+02  0.41800000000E+01 0.  1.
        -11    1    1    2    0    0  0.29634941658E+02 -0.81410474002E+02 -0.42376817851E+02  0.96445268083E+02  0.00000000000E+00 0.  1.
         11    1    1    2    0    0 -0.12271908111E+02 -0.11158819090E+03  0.39837799847E+02  0.11911999989E+03  0.00000000000E+00 0. -1.
</event>
<event>
 7    1  0.2810263E-009  0.8170858E+02  0.7561462E-02  0.1324271E+00
          4   -1    0    0  501    0  0.00000000000E+00  0.00000000000E+00  0.14796604968E+03  0.14796604968E+03  0.00000000000E+00 0. -1.
         -4   -1    0    0    0  501 -0.00000000000E+00 -0.00000000000E+00 -0.10443683911E+03  0.10443683911E+03  0.00000000000E+00 0.  1.
         25    2    1    2    0    0 -0.52666329767E+02  0.14791360907E+02  0.52547057155E+01  0.13662877246E+03  0.12508909977E+03 0.  0.
          5    1    3    3  502    0  0.10021423680E+02  0.19022506797E+02  0.53168317954E+02  0.57503279311E+02  0.41800000000E+01 0. -1.
         -5    1    3    3    0  502 -0.62687753447E+02 -0.42311458906E+01 -0.47913612238E+02  0.79125493145E+02  0.41800000000E+01 0. -1.
        -11    1    1    2    0    0  0.20767453692E+01 -0.26529790826E+02  0.55094606174E+02  0.61184624720E+02  0.00000000000E+00 0. -1.
         11    1    1    2    0    0  0.50589584398E+02  0.11738429919E+02 -0.16820101314E+02  0.54589491614E+02  0.00000000000E+00 0.  1.
</event>
<event>
 7    1  0.2810263E-009  0.6816060E+02  0.7561462E-02  0.1366462E+00
         -2   -1    0    0    0  501 -0.00000000000E+00  0.00000000000E+00  0.95448985021E+02  0.95448985021E+02  0.00000000000E+00 0.  1.
          2   -1    0    0  501    0  0.00000000000E+00 -0.00000000000E+00 -0.13794428230E+03  0.13794428230E+03  0.00000000000E+00 0. -1.
         25    2    1    2    0    0 -0.31347259925E+02  0.12907770224E+01 -0.85220534227E+01  0.12924425127E+03  0.12508850580E+03 0.  0.
          5    1    3    3  502    0  0.59688977924E+01  0.35928996008E+02  0.43123785376E+02  0.56600828264E+02  0.41800000000E+01 0.  1.
         -5    1    3    3    0  502 -0.37316157717E+02 -0.34638218986E+02 -0.51645838798E+02  0.72643423009E+02  0.41800000000E+01 0.  1.
        -11    1    1    2    0    0 -0.49072355844E+01  0.95475533569E+01  0.28865332708E+02  0.30796820753E+02  0.00000000000E+00 0.  1.
         11    1    1    2    0    0  0.36254495509E+02 -0.10838330379E+02 -0.62838576561E+02  0.73352195292E+02  0.00000000000E+00 0. -1.
</event>
<event>
 7    1  0.2810263E-009  0.9380870E+02  0.7561462E-02  0.1293882E+00
         -2   -1    0    0    0  501 -0.00000000000E+00  0.00000000000E+00  0.27352111189E+02  0.27352111189E+02  0.00000000000E+00 0.  1.
          2   -1    0    0  501    0  0.00000000000E+00 -0.00000000000E+00 -0.47458596814E+03  0.47458596814E+03  0.00000000000E+00 0. -1.
         25    2    1    2    0    0  0.10708116394E+02  0.33363663518E+02 -0.26215965987E+03  0.29257726195E+03  0.12508384845E+03 0.  0.
          5    1    3    3  502    0 -0.27384930904E+02 -0.32124419658E+02 -0.41937471619E+02  0.59650119068E+02  0.41800000000E+01 0.  1.
         -5    1    3    3    0  502  0.38093047298E+02  0.65488083176E+02 -0.22022218825E+03  0.23292714288E+03  0.41800000000E+01 0.  1.
        -11    1    1    2    0    0 -0.34795625231E+02 -0.27955525221E+02 -0.17824207588E+03  0.18374570618E+03  0.00000000000E+00 0. -1.
         11    1    1    2    0    0  0.24087508837E+02 -0.54081382964E+01 -0.68321211974E+01  0.25615111202E+02  0.00000000000E+00 0.  1.
</event>
<event>
 7    1  0.2810263E-009  0.1644558E+03  0.7561462E-02  0.1183756E+00
          1   -1    0    0  501    0  0.00000000000E+00  0.00000000000E+00  0.64420485150E+03  0.64420485150E+03  0.00000000000E+00 0. -1.
         -1   -1    0    0    0  501 -0.00000000000E+00 -0.00000000000E+00 -0.46463133380E+02  0.46463133380E+02  0.00000000000E+00 0.  1.
         25    2    1    2    0    0  0.12553120797E+03 -0.50042663174E+02  0.34788572717E+03  0.39361750394E+03  0.12509159813E+03 0.  0.
          5    1    3    3  502    0  0.14611370433E+03 -0.56329107432E+02  0.26459764974E+03  0.30749239273E+03  0.41800000000E+01 0.  1.
         -5    1    3    3    0  502 -0.20582496365E+02  0.62864442582E+01  0.83288077434E+02  0.86125111209E+02  0.41800000000E+01 0.  1.
        -11    1    1    2    0    0 -0.43146156074E+02 -0.14673405356E+02  0.33165749288E+02  0.56363698731E+02  0.00000000000E+00 0.  1.
         11    1    1    2    0    0 -0.82385051895E+02  0.64716068529E+02  0.21669024166E+03  0.24068678221E+03  0.00000000000E+00 0. -1.
</event>
<event>
 7    1  0.2810263E-009  0.1693172E+03  0.7561462E-02  0.1178562E+00
         -2   -1    0    0    0  501 -0.00000000000E+00  0.00000000000E+00  0.26312550922E+02  0.26312550922E+02  0.00000000000E+00 0.  1.
          2   -1    0    0  501    0  0.00000000000E+00 -0.00000000000E+00 -0.20535116866E+04  0.20535116866E+04  0.00000000000E+00 0. -1.
         25    2    1    2    0    0 -0.91538092670E+02  0.12093875858E+03 -0.16658550883E+04  0.16774164944E+04  0.12509002614E+03 0.  0.
          5    1    3    3  502    0 -0.10521472675E+03  0.57210384952E+02 -0.13214892671E+04  0.13269116483E+04  0.41800000000E+01 0. -1.
         -5    1    3    3    0  502  0.13676634079E+02  0.63728373631E+02 -0.34436582116E+03  0.35050484605E+03  0.41800000000E+01 0. -1.
        -11    1    1    2    0    0  0.47882084611E+02 -0.82152776830E+02 -0.31130809994E+03  0.32550653735E+03  0.00000000000E+00 0. -1.
         11    1    1    2    0    0  0.43656008060E+02 -0.38785981753E+02 -0.50035947480E+02  0.76901205845E+02  0.00000000000E+00 0.  1.
</event>
<event>
 7    1  0.2810263E-009  0.7535390E+02  0.7561462E-02  0.1342779E+00
         -1   -1    0    0    0  501 -0.00000000000E+00  0.00000000000E+00  0.15879857336E+02  0.15879857336E+02  0.00000000000E+00 0.  1.
          1   -1    0    0  501    0  0.00000000000E+00 -0.00000000000E+00 -0.76511640391E+03  0.76511640391E+03  0.00000000000E+00 0. -1.
         25    2    1    2    0    0  0.78730243465E+01 -0.19898361632E+02 -0.40606289536E+03  0.42543218111E+03  0.12509011322E+03 0.  0.
          5    1    3    3  502    0 -0.22520469877E+02 -0.25439706420E+02 -0.23316930389E+02  0.41418617420E+02  0.41800000000E+01 0.  1.
         -5    1    3    3    0  502  0.30393494224E+02  0.55413447885E+01 -0.38274596497E+03  0.38401356369E+03  0.41800000000E+01 0.  1.
        -11    1    1    2    0    0  0.32255413711E+02  0.29858496230E+02 -0.10500405600E+03  0.11383230335E+03  0.00000000000E+00 0.  1.
         11    1    1    2    0    0 -0.40128438058E+02 -0.99601345977E+01 -0.23816959522E+03  0.24173177678E+03  0.00000000000E+00 0. -1.
</event>
<event>
 7    1  0.2810263E-009  0.1256798E+03  0.7561462E-02  0.1234011E+00
         -2   -1    0    0    0  501 -0.00000000000E+00  0.00000000000E+00  0.32714789320E+02  0.32714789320E+02  0.00000000000E+00 0.  1.
          2   -1    0    0  501    0  0.00000000000E+00 -0.00000000000E+00 -0.66636206457E+03  0.66636206457E+03  0.00000000000E+00 0. -1.
         25    2    1    2    0    0  0.43162695802E+02  0.49830925119E+02 -0.16652401108E+03  0.21845952599E+03  0.12509268093E+03 0.  0.
          5    1    3    3  502    0  0.11521157545E+02  0.87927027500E+02 -0.84553967419E+02  0.12259993900E+03  0.41800000000E+01 0.  1.
         -5    1    3    3    0  502  0.31641538258E+02 -0.38096102382E+02 -0.81970043666E+02  0.95859586994E+02  0.41800000000E+01 0.  1.
        -11    1    1    2    0    0 -0.26296903909E+02  0.24934901878E+02 -0.16374489060E+03  0.16770708299E+03  0.00000000000E+00 0.  1.
         11    1    1    2    0    0 -0.16865791894E+02 -0.74765826997E+02 -0.30337837356E+03  0.31291024491E+03  0.00000000000E+00 0. -1.
</event>
<event>
 7    1  0.2810263E-009  0.9382181E+02  0.7561462E-02  0.1293852E+00
         -3   -1    0    0    0  501 -0.00000000000E+00  0.00000000000E+00  0.29385494309E+03  0.29385494309E+03  0.00000000000E+00 0.  1.
          3   -1    0    0  501    0  0.00000000000E+00 -0.00000000000E+00 -0.43917675800E+02  0.43917675800E+02  0.00000000000E+00 0. -1.
         25    2    1    2    0    0 -0.32932853453E+01  0.14313627045E+00  0.19331017442E+03  0.23027511585E+03  0.12508772613E+03 0.  0.
          5    1    3    3  502    0 -0.63612291748E+02 -0.56187574395E+01  0.90003802710E+02  0.11043663794E+03  0.41800000000E+01 0.  1.
         -5    1    3    3    0  502  0.60319006403E+02  0.57618937099E+01  0.10330637171E+03  0.11983847792E+03  0.41800000000E+01 0.  1.
        -11    1    1    2    0    0  0.33090008663E+02 -0.91591038750E+00 -0.99391013849E+01  0.34562599751E+02  0.00000000000E+00 0. -1.
         11    1    1    2    0    0 -0.29796723318E+02  0.77277411705E+00  0.66566194251E+02  0.72934903287E+02  0.00000000000E+00 0.  1.
</event>
<event>
 7    1  0.2810263E-009  0.9734031E+02  0.7561462E-02  0.1285990E+00
          2   -1    0    0  501    0  0.00000000000E+00  0.00000000000E+00  0.27609714812E+03  0.27609714812E+03  0.00000000000E+00 0. -1.
         -2   -1    0    0    0  501 -0.00000000000E+00 -0.00000000000E+00 -0.59710485039E+02  0.59710485039E+02  0.00000000000E+00 0.  1.
         25    2    1    2    0    0 -0.61278725983E+01  0.48568557433E+02  0.18563957289E+03  0.22914184221E+03  0.12508987663E+03 0.  0.
          5    1    3    3  502    0  0.36858636295E+02  0.61778481101E+02  0.54225293900E+02  0.90183117573E+02  0.41800000000E+01 0. -1.
         -5    1    3    3    0  502 -0.42986508893E+02 -0.13209923667E+02  0.13141427899E+03  0.13895872464E+03  0.41800000000E+01 0. -1.
        -11    1    1    2    0    0 -0.27052241359E+02 -0.24095445928E+02  0.49525767676E+02  0.61361355436E+02  0.00000000000E+00 0. -1.
         11    1    1    2    0    0  0.33180113958E+02 -0.24473111505E+02 -0.18778677486E+02  0.45304435513E+02  0.00000000000E+00 0.  1.
</event>
<event>
 7    1  0.2810263E-009  0.1398540E+03  0.7561462E-02  0.1213526E+00
         -2   -1    0    0    0  501 -0.00000000000E+00  0.00000000000E+00  0.35756079157E+02  0.35756079157E+02  0.00000000000E+00 0.  1.
          2   -1    0    0  501    0  0.00000000000E+00 -0.00000000000E+00 -0.63178087631E+03  0.63178087631E+03  0.00000000000E+00 0. -1.
         25    2    1    2    0    0 -0.87181744409E+02 -0.33792333210E+02 -0.21716593691E+03  0.26749366874E+03  0.12509692369E+03 0.  0.
          5    1    3    3  502    0 -0.11586562767E+03 -0.61177163387E+01 -0.16154082032E+03  0.19893511294E+03  0.41800000000E+01 0.  1.
         -5    1    3    3    0  502  0.28683883257E+02 -0.27674616871E+02 -0.55625116591E+02  0.68558555800E+02  0.41800000000E+01 0.  1.
        -11    1    1    2    0    0  0.61429310557E+02 -0.19409133786E+02 -0.14215767147E+03  0.15607395115E+03  0.00000000000E+00 0. -1.
         11    1    1    2    0    0  0.25752433852E+02  0.53201466996E+02 -0.23670118877E+03  0.24396933558E+03  0.00000000000E+00 0.  1.
</event>
<event>
 7    1  0.2810263E-009  0.1665674E+03  0.7561462E-02  0.1181476E+00
          1   -1    0    0  501    0  0.00000000000E+00  0.00000000000E+00  0.48199360434E+02  0.48199360434E+02  0.00000000000E+00 0. -1.
         -1   -1    0    0    0  501 -0.00000000000E+00 -0.00000000000E+00 -0.70198069264E+03  0.70198069264E+03  0.00000000000E+00 0.  1.
         25    2    1    2    0    0 -0.11798105907E+03  0.60583491726E+02 -0.34576719418E+03  0.39088633494E+03  0.12508910625E+03 0.  0.
          5    1    3    3  502    0 -0.10215042814E+03 -0.14584128723E+02 -0.16823826427E+03  0.19740565530E+03  0.41800000000E+01 0.  1.
         -5    1    3    3    0  502 -0.15830630931E+02  0.75167620448E+02 -0.17752892991E+03  0.19348067965E+03  0.41800000000E+01 0.  1.
        -11    1    1    2    0    0  0.11463350535E+03 -0.75751083773E+02 -0.31392247819E+03  0.34267534132E+03  0.00000000000E+00 0.  1.
         11    1    1    2    0    0  0.33475537209E+01  0.15167592047E+02  0.59083401595E+01  0.16618376812E+02  0.00000000000E+00 0. -1.
</event>
<event>
 7    1  0.2810263E-009  0.1160816E+03  0.7561462E-02  0.1249705E+00
         -2   -1    0    0    0  501 -0.00000000000E+00  0.00000000000E+00  0.32871152832E+02  0.32871152832E+02  0.00000000000E+00 0.  1.
          2   -1    0    0  501    0  0.00000000000E+00 -0.00000000000E+00 -0.51058521749E+03  0.51058521749E+03  0.00000000000E+00 0. -1.
         25    2    1    2    0    0  0.16955888484E+02  0.55834551395E+02 -0.18552772923E+03  0.23124251911E+03  0.12509022762E+03 0.  0.
          5    1    3    3  502    0  0.68256128769E+02  0.31493681714E+02 -0.71687150938E+02  0.10395802572E+03  0.41800000000E+01 0. -1.
         -5    1    3    3    0  502 -0.51300240285E+02  0.24340869682E+02 -0.11384057829E+03  0.12728449338E+03  0.41800000000E+01 0. -1.
        -11    1    1    2    0    0  0.23651887825E+02 -0.54385863179E+02 -0.10428437459E+03  0.11996859878E+03  0.00000000000E+00 0.  1.
         11    1    1    2    0    0 -0.40607776310E+02 -0.14486882166E+01 -0.18790196084E+03  0.19224525243E+03  0.00000000000E+00 0. -1.
</event>
<event>
 7    1  0.2810263E-009  0.8928846E+02  0.7561462E-02  0.1304584E+00
          1   -1    0    0  501    0  0.00000000000E+00  0.00000000000E+00  0.26094513048E+03  0.26094513048E+03  0.00000000000E+00 0. -1.
         -1   -1    0    0    0  501 -0.00000000000E+00 -0.00000000000E+00 -0.53644496234E+02  0.53644496234E+02  0.00000000000E+00 0.  1.
         25    2    1    2    0    0 -0.35386660256E+02 -0.11809212700E+02  0.15809678238E+03  0.20502704754E+03  0.12509925817E+03 0.  0.
          5    1    3    3  502    0 -0.15562704851E+01 -0.38714343269E+02 -0.21211644131E+01  0.39028119235E+02  0.41800000000E+01 0.  1.
         -5    1    3    3    0  502 -0.33830389771E+02  0.26905130569E+02  0.16021794680E+03  0.16599892830E+03  0.41800000000E+01 0.  1.
        -11    1    1    2    0    0 -0.28906438008E+02  0.13413451993E+02  0.69653387341E+01  0.32619300979E+02  0.00000000000E+00 0. -1.
         11    1    1    2    0    0  0.64293098265E+02 -0.16042392924E+01  0.42238513133E+02  0.76943278198E+02  0.00000000000E+00 0.  1.
</event>
<event>
 7    1  0.2810263E-009  0.2330347E+03  0.7561462E-02  0.1124522E+00
         -3   -1    0    0    0  501 -0.00000000000E+00  0.00000000000E+00  0.46654397074E+03  0.46654397074E+03  0.00000000000E+00 0.  1.
          3   -1    0    0  501    0  0.00000000000E+00 -0.00000000000E+00 -0.13506420267E+03  0.13506420267E+03  0.00000000000E+00 0. -1.
         25    2    1    2    0    0  0.23367261004E+01  0.22468691676E+03  0.20432663240E+03  0.32845995210E+03  0.12508755563E+03 0.  0.
          5    1    3    3  502    0 -0.58840596899E+00  0.85759878778E+02  0.16164527624E+03  0.18303488946E+03  0.41800000000E+01 0.  1.
         -5    1    3    3    0  502  0.29251320694E+01  0.13892703798E+03  0.42681356164E+02  0.14542506264E+03  0.41800000000E+01 0.  1.
        -11    1    1    2    0    0  0.41730834615E+02 -0.84637073473E+02  0.40722174629E+02  0.10277739182E+03  0.00000000000E+00 0.  1.
         11    1    1    2    0    0 -0.44067560715E+02 -0.14004984329E+03  0.86430961048E+02  0.17037082949E+03  0.00000000000E+00 0. -1.
</event>
<event>
 7    1  0.2810263E-009  0.1356626E+03  0.7561462E-02  0.1219287E+00
          1   -1    0    0  501    0  0.00000000000E+00  0.00000000000E+00  0.21226400835E+03  0.21226400835E+03  0.00000000000E+00 0. -1.
         -1   -1    0    0    0  501 -0.00000000000E+00 -0.00000000000E+00 -0.99188889338E+02  0.99188889338E+02  0.00000000000E+00 0.  1.
         25    2    1    2    0    0  0.83119568967E+02 -0.45024471274E+02  0.43680981736E+02  0.16275938104E+03  0.12508605914E+03 0.  0.
          5    1    3    3  502    0  0.41423995235E+02  0.41259536430E+02  0.33712959498E+01  0.58712305047E+02  0.41800000000E+01 0.  1.
         -5    1    3    3    0  502  0.41695573733E+02 -0.86284007703E+02  0.40309685786E+02  0.10404707599E+03  0.41800000000E+01 0.  1.
        -11    1    1    2    0    0 -0.61033727129E+02 -0.58631224734E+01  0.70209156528E+02  0.93213827905E+02  0.00000000000E+00 0. -1.
         11    1    1    2    0    0 -0.22085841838E+02  0.50887593747E+02 -0.81501924821E+00  0.55479688747E+02  0.00000000000E+00 0.  1.
</event>
<event>
 7    1  0.2810263E-009  0.1647435E+03  0.7561462E-02  0.1183443E+00
          1   -1    0    0  501    0  0.00000000000E+00  0.00000000000E+00  0.40650777914E+03  0.40650777914E+03  0.00000000000E+00 0. -1.
         -1   -1    0    0    0  501 -0.00000000000E+00 -0.00000000000E+00 -0.91745840235E+02  0.91745840235E+02  0.00000000000E+00 0.  1.
         25    2    1    2    0    0 -0.15535078620E+03 -0.71368558258E+01  0.11912719685E+03  0.23243564196E+03  0.12510090782E+03 0.  0.
          5    1    3    3  502    0 -0.11034613142E+03 -0.39808806150E+02  0.13049280950E+03  0.17551881808E+03  0.41800000000E+01 0. -1.
         -5    1    3    3    0  502 -0.45004654778E+02  0.32671950324E+02 -0.11365612651E+02  0.56916823880E+02  0.41800000000E+01 0. -1.
        -11    1    1    2    0    0  0.11704467328E+03  0.12270414442E+02  0.75994034165E+02  0.14008965645E+03  0.00000000000E+00 0.  1.
         11    1    1    2    0    0  0.38306112916E+02 -0.51335586166E+01  0.11964070789E+03  0.12572832097E+03  0.00000000000E+00 0. -1.
</event>
<event>
 7    1  0.2810263E-009  0.1075004E+03  0.7561462E-02  0.1265270E+00
         -2   -1    0    0    0  501 -0.00000000000E+00  0.00000000000E+00  0.82995628486E+02  0.82995628486E+02  0.00000000000E+00 0.  1.
          2   -1    0    0  501    0  0.00000000000E+00 -0.00000000000E+00 -0.20436691408E+03  0.20436691408E+03  0.00000000000E+00 0. -1.
         25    2    1    2    0    0 -0.10571457630E+02  0.96476660800E+01 -0.14358887185E+03  0.19097176385E+03  0.12509043644E+03 0.  0.
          5    1    3    3  502    0  0.24117897668E+02 -0.50011487842E+02 -0.51730688820E+02  0.76002358318E+02  0.41800000000E+01 0. -1.
         -5    1    3    3    0  502 -0.34689355297E+02  0.59659153922E+02 -0.91858183031E+02  0.11496940553E+03  0.41800000000E+01 0. -1.
        -11    1    1    2    0    0  0.43238321815E+02 -0.29141005212E+02  0.25811158305E+02  0.58180465374E+02  0.00000000000E+00 0. -1.
         11    1    1    2    0    0 -0.32666864185E+02  0.19493339132E+02 -0.35935720510E+01  0.38210313349E+02  0.00000000000E+00 0.  1.
</event>
<event>
 7    1  0.2810263E-009  0.1931541E+03  0.7561462E-02  0.1155647E+00
         -1   -1    0    0    0  501 -0.00000000000E+00  0.00000000000E+00  0.32173870043E+02  0.32173870043E+02  0.00000000000E+00 0.  1.
          1   -1    0    0  501    0  0.00000000000E+00 -0.00000000000E+00 -0.17341909802E+04  0.17341909802E+04  0.00000000000E+00 0. -1.
         25    2    1    2    0    0  0.17621169277E+03 -0.39881038854E+02 -0.12739400398E+04  0.12927534619E+04  0.12508888905E+03 0.  0.
          5    1    3    3  502    0  0.17119946274E+03 -0.12408814411E+02 -0.81217329285E+03  0.83012418634E+03  0.41800000000E+01 0. -1.
         -5    1    3    3    0  502  0.50122300268E+01 -0.27472224443E+02 -0.46176674698E+03  0.46262927554E+03  0.41800000000E+01 0. -1.
        -11    1    1    2    0    0 -0.12230179508E+03  0.48895247292E+02 -0.20295353665E+03  0.24194754045E+03  0.00000000000E+00 0.  1.
         11    1    1    2    0    0 -0.53909897688E+02 -0.90142084373E+01 -0.22512353363E+03  0.23166384788E+03  0.00000000000E+00 0. -1.
</event>
<event>
 7    1  0.2810263E-009  0.1562205E+03  0.7561462E-02  0.1193031E+00
          1   -1    0    0  501    0  0.00000000000E+00  0.00000000000E+00  0.25021999343E+03  0.25021999343E+03  0.00000000000E+00 0. -1.
         -1   -1    0    0    0  501 -0.00000000000E+00 -0.00000000000E+00 -0.13728116159E+03  0.13728116159E+03  0.00000000000E+00 0.  1.
         25    2    1    2    0    0 -0.12687476792E+03  0.66468358105E+02  0.10752017261E+03  0.21845764598E+03  0.12509159126E+03 0.  0.
          5    1    3    3  502    0 -0.36948255893E+02  0.23465276539E+02  0.11020684012E+03  0.11865417323E+03  0.41800000000E+01 0. -1.
         -5    1    3    3    0  502 -0.89926512030E+02  0.43003081566E+02 -0.26866675057E+01  0.99803472747E+02  0.41800000000E+01 0. -1.
        -11    1    1    2    0    0  0.31844426827E+02 -0.66436900045E+02  0.69432675731E+01  0.74000933590E+02  0.00000000000E+00 0.  1.
         11    1    1    2    0    0  0.95030341096E+02 -0.31458059723E-01 -0.15246083506E+01  0.95042575455E+02  0.00000000000E+00 0. -1.
</event>
<event>
 7    1  0.2810263E-009  0.8250702E+02  0.7561462E-02  0.1322084E+00
          2   -1    0    0  501    0  0.00000000000E+00  0.00000000000E+00  0.14288504782E+04  0.14288504782E+04  0.00000000000E+00 0. -1.
         -2   -1    0    0    0  501 -0.00000000000E+00 -0.00000000000E+00 -0.13155309512E+02  0.13155309512E+02  0.00000000000E+00 0.  1.
         25    2    1    2    0    0  0.43572742403E+01 -0.19421649701E+02  0.12598723184E+04  0.12662248203E+04  0.12510335874E+03 0.  0.
          5    1    3    3  502    0 -0.46136113546E+02  0.61934412089E+01  0.22533633343E+03  0.23013221254E+03  0.41800000000E+01 0.  1.
         -5    1    3    3    0  502  0.50493387786E+02 -0.25615090910E+02  0.10345359850E+04  0.10360926077E+04  0.41800000000E+01 0.  1.
        -11    1    1    2    0    0 -0.31095776224E+01  0.40384328667E+02  0.14788428003E+03  0.15333076585E+03  0.00000000000E+00 0. -1.
         11    1    1    2    0    0 -0.12476966179E+01 -0.20962678967E+02  0.79385702681E+01  0.22450201652E+02  0.00000000000E+00 0.  1.
</event>
<event>
 7    1  0.2810263E-009  0.1112440E+03  0.7561462E-02  0.1258283E+00
         -2   -1    0    0    0  501 -0.00000000000E+00  0.00000000000E+00  0.18095735704E+03  0.18095735704E+03  0.00000000000E+00 0.  1.
          2   -1    0    0  501    0  0.00000000000E+00 -0.00000000000E+00 -0.73307440276E+02  0.73307440276E+02  0.00000000000E+00 0. -1.
         25    2    1    2    0    0  0.20502343156E+02  0.26186104896E+02  0.31872163256E+02  0.13330018220E+03  0.12508815139E+03 0.  0.
          5    1    3    3  502    0  0.59268234966E+02  0.54274074572E+02  0.27524318342E+02  0.85049746306E+02  0.41800000000E+01 0. -1.
         -5    1    3    3    0  502 -0.38765891810E+02 -0.28087969676E+02  0.43478449136E+01  0.48250435892E+02  0.41800000000E+01 0. -1.
        -11    1    1    2    0    0  0.16723307402E+02 -0.47989625948E+02  0.35949912983E+02  0.62250055844E+02  0.00000000000E+00 0. -1.
         11    1    1    2    0    0 -0.37225650558E+02  0.21803521053E+02  0.39827840522E+02  0.58714559271E+02  0.00000000000E+00 0.  1.
</event>
<event>
 7    1  0.2810263E-009  0.1809515E+03  0.7561462E-02  0.1166885E+00
          1   -1    0    0  501    0  0.00000000000E+00  0.00000000000E+00  0.47042275035E+03  0.47042275035E+03  0.00000000000E+00 0. -1.
         -1   -1    0    0    0  501 -0.00000000000E+00 -0.00000000000E+00 -0.86152695070E+02  0.86152695070E+02  0.00000000000E+00 0.  1.
         25    2    1    2    0    0 -0.16254783625E+03  0.47811709523E+02  0.15580057660E+03  0.26197188730E+03  0.12509073279E+03 0.  0.
          5    1    3    3  502    0 -0.13811131616E+03  0.59235037347E+02  0.17339780340E+03  0.22949465337E+03  0.41800000000E+01 0.  1.
         -5    1    3    3    0  502 -0.24436520086E+02 -0.11423327824E+02 -0.17597226802E+02  0.32477233928E+02  0.41800000000E+01 0.  1.
        -11    1    1    2    0    0  0.16890552837E+03 -0.38907111277E+02  0.22279817384E+03  0.28227976741E+03  0.00000000000E+00 0. -1.
         11    1    1    2    0    0 -0.63576921161E+01 -0.89045982453E+01  0.56713048394E+01  0.12323790713E+02  0.00000000000E+00 0.  1.
</event>
<event>
 7    1  0.2810263E-009  0.9788787E+02  0.7561462E-02  0.1284801E+00
         -2   -1    0    0    0  501 -0.00000000000E+00  0.00000000000E+00  0.27810205800E+02  0.27810205800E+02  0.00000000000E+00 0.  1.
          2   -1    0    0  501    0  0.00000000000E+00 -0.00000000000E+00 -0.16766660668E+04  0.16766660668E+04  0.00000000000E+00 0. -1.
         25    2    1    2    0    0  0.67929553557E+02 -0.18988012548E+01 -0.15605044282E+04  0.15669844391E+04  0.12509249490E+03 0.  0.
          5    1    3    3  502    0  0.68386573922E+02 -0.27087508342E+02 -0.43533072074E+03  0.44152096827E+03  0.41800000000E+01 0.  1.
         -5    1    3    3    0  502 -0.45702036517E+00  0.25188707087E+02 -0.11251737075E+04  0.11254634708E+04  0.41800000000E+01 0.  1.
        -11    1    1    2    0    0 -0.29163991979E+01  0.26790346516E+02 -0.52901852211E+02  0.59370312599E+02  0.00000000000E+00 0. -1.
         11    1    1    2    0    0 -0.65013154359E+02 -0.24891545262E+02 -0.35449580619E+02  0.78121520923E+02  0.00000000000E+00 0.  1.
</event>
<event>
 7    1  0.2810263E-009  0.2162229E+03  0.7561462E-02  0.1136731E+00
          2   -1    0    0  501    0  0.00000000000E+00  0.00000000000E+00  0.65119618211E+03  0.65119618211E+03  0.00000000000E+00 0. -1.
         -2   -1    0    0    0  501 -0.00000000000E+00 -0.00000000000E+00 -0.88360875309E+02  0.88360875309E+02  0.00000000000E+00 0.  1.
         25    2    1    2    0    0  0.13394665277E+03  0.14989788618E+03  0.40296465773E+03  0.46737512076E+03  0.12509159068E+03 0.  0.
          5    1    3    3  502    0 -0.93103347215E+01  0.20410749329E+02  0.27446102477E+01  0.22984479681E+02  0.41800000000E+01 0. -1.
         -5    1    3    3    0  502  0.14325698749E+03  0.12948713685E+03  0.40022004748E+03  0.44439064108E+03  0.41800000000E+01 0. -1.
        -11    1    1    2    0    0 -0.73877818708E+02 -0.13607562545E+03  0.13599604977E+03  0.20608113327E+03  0.00000000000E+00 0.  1.
         11    1    1    2    0    0 -0.60068834058E+02 -0.13822260732E+02  0.23874599305E+02  0.66100803390E+02  0.00000000000E+00 0. -1.
</event>
<event>
 7    1  0.2810263E-009  0.9529143E+02  0.7561462E-02  0.1290521E+00
          1   -1    0    0  501    0  0.00000000000E+00  0.00000000000E+00  0.11520818616E+03  0.11520818616E+03  0.00000000000E+00 0. -1.
         -1   -1    0    0    0  501 -0.00000000000E+00 -0.00000000000E+00 -0.15979995785E+03  0.15979995785E+03  0.00000000000E+00 0.  1.
         25    2    1    2    0    0 -0.54310066492E+02 -0.23012655574E+02  0.29269012967E+02  0.14136583328E+03  0.12509379705E+03 0.  0.
          5    1    3    3  502    0  0.12612895711E+02  0.85535164622E+01 -0.38076794541E+02  0.41225750018E+02  0.41800000000E+01 0. -1.
         -5    1    3    3    0  502 -0.66922962202E+02 -0.31566172036E+02  0.67345807508E+02  0.10014008326E+03  0.41800000000E+01 0. -1.
        -11    1    1    2    0    0 -0.13609758402E+02  0.29451502651E+02 -0.53280752129E+02  0.62381528353E+02  0.00000000000E+00 0.  1.
         11    1    1    2    0    0  0.67919824894E+02 -0.64388470774E+01 -0.20580032531E+02  0.71260782372E+02  0.00000000000E+00 0. -1.
</event>
<event>
 7    1  0.2810263E-009  0.1041989E+03  0.7561462E-02  0.1271706E+00
         -1   -1    0    0    0  501 -0.00000000000E+00  0.00000000000E+00  0.63340608863E+03  0.63340608863E+03  0.00000000000E+00 0.  1.
          1   -1    0    0  501    0  0.00000000000E+00 -0.00000000000E+00 -0.22466058216E+02  0.22466058216E+02  0.00000000000E+00 0. -1.
         25    2    1    2    0    0 -0.54416886887E+01  0.36899494090E+02  0.40245522687E+03  0.42309515747E+03  0.12509243781E+03 0.  0.
          5    1    3    3  502    0  0.25966647856E+02 -0.27304033675E+02  0.26890197378E+03  0.27156126557E+03  0.41800000000E+01 0.  1.
         -5    1    3    3    0  502 -0.31408336545E+02  0.64203527765E+02  0.13355325309E+03  0.15153389190E+03  0.41800000000E+01 0.  1.
        -11    1    1    2    0    0  0.23535105214E+02 -0.62931231905E+02  0.10599149800E+03  0.12549278375E+03  0.00000000000E+00 0.  1.
         11    1    1    2    0    0 -0.18093416525E+02  0.26031737814E+02  0.10249330554E+03  0.10728420562E+03  0.00000000000E+00 0. -1.
</event>
<event>
 7    1  0.2810263E-009  0.8701143E+02  0.7561462E-02  0.1310255E+00
          3   -1    0    0  501    0  0.00000000000E+00  0.00000000000E+00  0.52185348688E+02  0.52185348688E+02  0.00000000000E+00 0. -1.
         -3   -1    0    0    0  501 -0.00000000000E+00 -0.00000000000E+00 -0.27363151350E+03  0.27363151350E+03  0.00000000000E+00 0.  1.
         25    2    1    2    0    0 -0.37911456096E+02  0.13661492293E+02 -0.84134671706E+02  0.15603384304E+03  0.12507598617E+03 0.  0.
          5    1    3    3  502    0 -0.43499828644E+02  0.33440612593E+02  0.13098195879E+02  0.56564518896E+02  0.41800000000E+01 0.  1.
         -5    1    3    3    0  502  0.55883725477E+01 -0.19779120299E+02 -0.97232867585E+02  0.99469324147E+02  0.41800000000E+01 0.  1.
        -11    1    1    2    0    0  0.68104554256E+01  0.37519159281E+02 -0.38151751656E+02  0.53940947069E+02  0.00000000000E+00 0. -1.
         11    1    1    2    0    0  0.31101000670E+02 -0.51180651575E+02 -0.99159741453E+02  0.11584207208E+03  0.00000000000E+00 0.  1.
</event>
<event>
 7    1  0.2810263E-009  0.8334074E+02  0.7561462E-02  0.1319830E+00
         -1   -1    0    0    0  501 -0.00000000000E+00  0.00000000000E+00  0.19078728247E+02  0.19078728247E+02  0.00000000000E+00 0.  1.
          1   -1    0    0  501    0  0.00000000000E+00 -0.00000000000E+00 -0.73477941529E+03  0.73477941529E+03  0.00000000000E+00 0. -1.
         25    2    1    2    0    0  0.97648952300E+01  0.10101867938E+01 -0.55248564407E+03  0.56655595235E+03  0.12509550986E+03 0.  0.
          5    1    3    3  502    0 -0.19770697458E+02 -0.28317100505E+02 -0.49075589751E+03  0.49198735959E+03  0.41800000000E+01 0. -1.
         -5    1    3    3    0  502  0.29535592688E+02  0.29327287299E+02 -0.61729746560E+02  0.74568592759E+02  0.41800000000E+01 0. -1.
        -11    1    1    2    0    0  0.22451230365E+02  0.35101812327E+02 -0.94270760741E+02  0.10306876978E+03  0.00000000000E+00 0.  1.
         11    1    1    2    0    0 -0.32216125595E+02 -0.36111999121E+02 -0.68944282239E+02  0.84233421409E+02  0.00000000000E+00 0. -1.
</event>
<event>
 7    1  0.2810263E-009  0.1065383E+03  0.7561462E-02  0.1267118E+00
          2   -1    0    0  501    0  0.00000000000E+00  0.00000000000E+00  0.13693846792E+03  0.13693846792E+03  0.00000000000E+00 0. -1.
         -2   -1    0    0    0  501 -0.00000000000E+00 -0.00000000000E+00 -0.10856446291E+03  0.10856446291E+03  0.00000000000E+00 0.  1.
         25    2    1    2    0    0 -0.36099435705E+02 -0.36280260564E+01  0.57736571316E+02  0.14247086627E+03  0.12509238281E+03 0.  0.
          5    1    3    3  502    0 -0.29290388363E+02 -0.58224215333E+02  0.57918775364E+02  0.87292857905E+02  0.41800000000E+01 0. -1.
         -5    1    3    3    0  502 -0.68090473418E+01  0.54596189277E+02 -0.18220404753E+00  0.55178008369E+02  0.41800000000E+01 0. -1.
        -11    1    1    2    0    0  0.45775468002E+02  0.36358265210E+02 -0.35444378915E+02  0.68363886055E+02  0.00000000000E+00 0.  1.
         11    1    1    2    0    0 -0.96760322971E+01 -0.32730239153E+02  0.60818126087E+01  0.34668178502E+02  0.00000000000E+00 0. -1.
</event>
<event>
 7    1  0.2810263E-009  0.3119019E+03  0.7561462E-02  0.1079438E+00
          1   -1    0    0  501    0  0.00000000000E+00  0.00000000000E+00  0.10687101781E+03  0.10687101781E+03  0.00000000000E+00 0. -1.
         -1   -1    0    0    0  501 -0.00000000000E+00 -0.00000000000E+00 -0.98846593757E+03  0.98846593757E+03  0.00000000000E+00 0.  1.
         25    2    1    2    0    0 -0.29167763609E+03 -0.42062929538E+02 -0.58664111021E+03  0.66831149625E+03  0.12508928971E+03 0.  0.
          5    1    3    3  502    0 -0.60832211047E+02 -0.63456788348E+02 -0.14941447871E+03  0.17340553837E+03  0.41800000000E+01 0.  1.
         -5    1    3    3    0  502 -0.23084542504E+03  0.21393858810E+02 -0.43722663150E+03  0.49490595788E+03  0.41800000000E+01 0.  1.
        -11    1    1    2    0    0  0.39107965468E+02  0.33039400583E+02 -0.81347373109E+02  0.96116752264E+02  0.00000000000E+00 0. -1.
         11    1    1    2    0    0  0.25256967062E+03  0.90235289551E+01 -0.21360643644E+03  0.33090870687E+03  0.00000000000E+00 0.  1.
</event>
<event>
 7    1  0.2810263E-009  0.1364653E+03  0.7561462E-02  0.1218166E+00
          1   -1    0    0  501    0  0.00000000000E+00  0.00000000000E+00  0.18351958880E+03  0.18351958880E+03  0.00000000000E+00 0. -1.
         -1   -1    0    0    0  501 -0.00000000000E+00 -0.00000000000E+00 -0.14834432773E+03  0.14834432773E+03  0.00000000000E+00 0.  1.
         25    2    1    2    0    0 -0.21916076136E+02 -0.11879988104E+03  0.51249653911E+02  0.18130331373E+03  0.12510251163E+03 0.  0.
          5    1    3    3  502    0  0.21187558074E+02  0.24149635620E+01  0.47835056286E+02  0.52539601026E+02  0.41800000000E+01 0.  1.
         -5    1    3    3    0  502 -0.43103634210E+02 -0.12121484460E+03  0.34145976252E+01  0.12876371271E+03  0.41800000000E+01 0.  1.
        -11    1    1    2    0    0  0.50341137373E+01  0.80121281873E+02 -0.51569589109E+02  0.95415851047E+02  0.00000000000E+00 0.  1.
         11    1    1    2    0    0  0.16881962399E+02  0.38678599164E+02  0.35495196260E+02  0.55144751747E+02  0.00000000000E+00 0. -1.
</event>
<event>
 7    1  0.2810263E-009  0.1517685E+03  0.7561462E-02  0.1198317E+00
         -1   -1    0    0    0  501 -0.00000000000E+00  0.00000000000E+00  0.11161277870E+03  0.11161277870E+03  0.00000000000E+00 0.  1.
          1   -1    0    0  501    0  0.00000000000E+00 -0.00000000000E+00 -0.33143503441E+03  0.33143503441E+03  0.00000000000E+00 0. -1.
         25    2    1    2    0    0 -0.48675596309E+02 -0.40747367687E+01 -0.17804694859E+03  0.22301111480E+03  0.12508926519E+03 0.  0.
          5    1    3    3  502    0 -0.31893429475E+02 -0.45351297470E+02 -0.16824861668E+03  0.17719763103E+03  0.41800000000E+01 0.  1.
         -5    1    3    3    0  502 -0.16782166834E+02  0.41276560701E+02 -0.97983319085E+01  0.45813483770E+02  0.41800000000E+01 0.  1.
        -11    1    1    2    0    0  0.31319218614E+02  0.10046972664E+03 -0.58909427010E+02  0.12060422885E+03  0.00000000000E+00 0.  1.
         11    1    1    2    0    0  0.17356377695E+02 -0.96394989874E+02  0.17134119892E+02  0.99432469466E+02  0.00000000000E+00 0. -1.
</event>
<event>
 7    1  0.2810263E-009  0.1056448E+03  0.7561462E-02  0.1268854E+00
         -2   -1    0    0    0  501 -0.00000000000E+00  0.00000000000E+00  0.59965033371E+02  0.59965033371E+02  0.00000000000E+00 0.  1.
          2   -1    0    0  501    0  0.00000000000E+00 -0.00000000000E+00 -0.22155772606E+03  0.22155772606E+03  0.00000000000E+00 0. -1.
         25    2    1    2    0    0 -0.19547442555E+02 -0.19680969970E+02 -0.57361159126E+02  0.14038242701E+03  0.12508988828E+03 0.  0.
          5    1    3    3  502    0 -0.24226710195E+02  0.45123384791E+02  0.31698821358E+01  0.51483724561E+02  0.41800000000E+01 0. -1.
         -5    1    3    3    0  502  0.46792676399E+01 -0.64804354762E+02 -0.60531041262E+02  0.88898702454E+02  0.41800000000E+01 0. -1.
        -11    1    1    2    0    0 -0.67566161350E+01 -0.34187425952E+02 -0.44410925255E+02  0.56451414834E+02  0.00000000000E+00 0.  1.
         11    1    1    2    0    0  0.26304058690E+02  0.53868395922E+02 -0.59820608306E+02  0.84688917580E+02  0.00000000000E+00 0. -1.
</event>
<event>
 7    1  0.2810263E-009  0.1449822E+03  0.7561462E-02  0.1206778E+00
          2   -1    0    0  501    0  0.00000000000E+00  0.00000000000E+00  0.32155342594E+03  0.32155342594E+03  0.00000000000E+00 0.  1.
         -2   -1    0    0    0  501 -0.00000000000E+00 -0.00000000000E+00 -0.32067451102E+03  0.32067451102E+03  0.00000000000E+00 0. -1.
         25    2    1    2    0    0 -0.11460874172E+03  0.60105582381E+02  0.27304354598E+03  0.32702656725E+03  0.12508298436E+03 0.  0.
          5    1    3    3  502    0 -0.73290994857E+02  0.52477574086E+02  0.56637547696E+02  0.10653989825E+03  0.41800000000E+01 0. -1.
         -5    1    3    3    0  502 -0.41317746859E+02  0.76280082958E+01  0.21640599828E+03  0.22048666901E+03  0.41800000000E+01 0. -1.
        -11    1    1    2    0    0 -0.11543586868E+02 -0.23442790316E+02 -0.30720051435E+02  0.40330390226E+02  0.00000000000E+00 0.  1.
         11    1    1    2    0    0  0.12615232858E+03 -0.36662792065E+02 -0.24144457963E+03  0.27487097949E+03  0.00000000000E+00 0. -1.
</event>
<event>
 7    1  0.2810263E-009  0.9423153E+02  0.7561462E-02  0.1292916E+00
         -1   -1    0    0    0  501 -0.00000000000E+00  0.00000000000E+00  0.74951485864E+02  0.74951485864E+02  0.00000000000E+00 0.  1.
          1   -1    0    0  501    0  0.00000000000E+00 -0.00000000000E+00 -0.16367552655E+03  0.16367552655E+03  0.00000000000E+00 0. -1.
         25    2    1    2    0    0  0.91159202356E+01  0.26158936581E+01 -0.72672570577E+02  0.14497873988E+03  0.12509032577E+03 0.  0.
          5    1    3    3  502    0  0.25271636908E+02 -0.45979852271E+02  0.38858962077E+01  0.52776652378E+02  0.41800000000E+01 0. -1.
         -5    1    3    3    0  502 -0.16155716672E+02  0.48595745929E+02 -0.76558466785E+02  0.92202087504E+02  0.41800000000E+01 0. -1.
        -11    1    1    2    0    0  0.33374649852E+02 -0.19582753727E+02 -0.26267258698E+02  0.46768797032E+02  0.00000000000E+00 0.  1.
         11    1    1    2    0    0 -0.42490570087E+02  0.16966860069E+02  0.10215788587E+02  0.46879475503E+02  0.00000000000E+00 0. -1.
</event>
<event>
 7    1  0.2810263E-009  0.1388461E+03  0.7561462E-02  0.1214890E+00
         -1   -1    0    0    0  501 -0.00000000000E+00  0.00000000000E+00  0.26858552460E+02  0.26858552460E+02  0.00000000000E+00 0. -1.
          1   -1    0    0  501    0  0.00000000000E+00 -0.00000000000E+00 -0.10658404164E+04  0.10658404164E+04  0.00000000000E+00 0.  1.
         25    2    1    2    0    0  0.78247107553E+02 -0.82485809983E+02 -0.75264030804E+03  0.77139003063E+03  0.12509447385E+03 0.  0.
          5    1    3    3  502    0  0.76451860015E+02 -0.10670891367E+03 -0.48017944577E+03  0.49781668483E+03  0.41800000000E+01 0. -1.
         -5    1    3    3    0  502  0.17952475383E+01  0.24223103685E+02 -0.27246086227E+03  0.27357334580E+03  0.41800000000E+01 0. -1.
        -11    1    1    2    0    0 -0.18736628735E+02  0.51106728330E+02 -0.22070342980E+03  0.22731687765E+03  0.00000000000E+00 0.  1.
         11    1    1    2    0    0 -0.59510478819E+02  0.31379081654E+02 -0.65638126113E+02  0.93992060592E+02  0.00000000000E+00 0. -1.
</event>
<event>
 7    1  0.2810263E-009  0.1065745E+03  0.7561462E-02  0.1267048E+00
          1   -1    0    0  501    0  0.00000000000E+00  0.00000000000E+00  0.40666246618E+03  0.40666246618E+03  0.00000000000E+00 0. -1.
         -1   -1    0    0    0  501 -0.00000000000E+00 -0.00000000000E+00 -0.37349281304E+02  0.37349281304E+02  0.00000000000E+00 0.  1.
         25    2    1    2    0    0 -0.22883695392E+02 -0.32698306660E+02  0.13394567759E+03  0.18756993522E+03  0.12509273872E+03 0.  0.
          5    1    3    3  502    0 -0.18283419857E+02 -0.78475131215E+02  0.60681926117E+02  0.10095740794E+03  0.41800000000E+01 0.  1.
         -5    1    3    3    0  502 -0.46002755359E+01  0.45776824555E+02  0.73263751476E+02  0.86612527279E+02  0.41800000000E+01 0.  1.
        -11    1    1    2    0    0 -0.21089052992E+02  0.36474470251E+02  0.47648557177E+02  0.63604403442E+02  0.00000000000E+00 0.  1.
         11    1    1    2    0    0  0.43972748385E+02 -0.37761635915E+01  0.18771895011E+03  0.19283740882E+03  0.00000000000E+00 0. -1.
</event>
<event>
 7    1  0.2810263E-009  0.9558770E+02  0.7561462E-02  0.1289858E+00
         -1   -1    0    0    0  501 -0.00000000000E+00  0.00000000000E+00  0.11021521389E+04  0.11021521389E+04  0.00000000000E+00 0.  1.
          1   -1    0    0  501    0  0.00000000000E+00 -0.00000000000E+00 -0.13931746564E+02  0.13931746564E+02  0.00000000000E+00 0. -1.
         25    2    1    2    0    0 -0.34550693947E+02 -0.49393490398E+02  0.65463434665E+03  0.66919865234E+03  0.12508893294E+03 0.  0.
          5    1    3    3  502    0  0.10275858810E+02  0.51590259746E+01  0.48826233260E+03  0.48841558806E+03  0.41800000000E+01 0.  1.
         -5    1    3    3    0  502 -0.44826552757E+02 -0.54552516372E+02  0.16637201405E+03  0.18078306429E+03  0.41800000000E+01 0.  1.
        -11    1    1    2    0    0 -0.10001572729E+02 -0.21936886420E+02  0.95941995843E+02  0.98924845257E+02  0.00000000000E+00 0.  1.
         11    1    1    2    0    0  0.44552266675E+02  0.71330376818E+02  0.33764404980E+03  0.34796038782E+03  0.00000000000E+00 0. -1.
</event>
<event>
 7    1  0.2911928E-009  0.1401617E+03  0.7561462E-02  0.1213112E+00
          1   -1    0    0  501    0  0.00000000000E+00  0.00000000000E+00  0.22294844424E+03  0.22294844424E+03  0.00000000000E+00 0. -1.
         -1   -1    0    0    0  501 -0.00000000000E+00 -0.00000000000E+00 -0.15229533518E+03  0.15229533518E+03  0.00000000000E+00 0.  1.
         25    2    1    2    0    0 -0.31876905778E+02  0.10968644554E+03  0.13383245043E+03  0.21588314175E+03  0.12508857921E+03 0.  0.
          5    1    3    3  502    0 -0.74823571584E+02  0.87780775231E+02  0.67278641898E+02  0.13359610556E+03  0.41800000000E+01 0. -1.
         -5    1    3    3    0  502  0.42946665806E+02  0.21905670307E+02  0.66553808533E+02  0.82287036194E+02  0.41800000000E+01 0. -1.
        -11    1    1    2    0    0  0.13014466195E+02 -0.81908881534E+02 -0.85441498635E+02  0.11907430829E+03  0.00000000000E+00 0.  1.
         11    1    1    2    0    0  0.18862439583E+02 -0.27777564004E+02  0.22262157267E+02  0.40286329384E+02  0.00000000000E+00 0. -1.
</event>
<event>
 7    1  0.2810263E-009  0.2093013E+03  0.7561462E-02  0.1142121E+00
          2   -1    0    0  501    0  0.00000000000E+00  0.00000000000E+00  0.53016186533E+02  0.53016186533E+02  0.00000000000E+00 0. -1.
         -2   -1    0    0    0  501 -0.00000000000E+00 -0.00000000000E+00 -0.14331698135E+04  0.14331698135E+04  0.00000000000E+00 0.  1.
         25    2    1    2    0    0 -0.31035458044E+02 -0.18194695126E+03 -0.23998294751E+03  0.32757854575E+03  0.12509194943E+03 0.  0.
          5    1    3    3  502    0  0.23918729035E+02 -0.14441459837E+03 -0.20597731520E+03  0.25272872531E+03  0.41800000000E+01 0.  1.
         -5    1    3    3    0  502 -0.54954187079E+02 -0.37532352892E+02 -0.34005632308E+02  0.74849820439E+02  0.41800000000E+01 0.  1.
        -11    1    1    2    0    0 -0.32032015791E+02  0.70286559529E+02 -0.39471592523E+03  0.40220257597E+03  0.00000000000E+00 0. -1.
         11    1    1    2    0    0  0.63067473835E+02  0.11166039173E+03 -0.74545475424E+03  0.75640487833E+03  0.00000000000E+00 0.  1.
</event>
<event>
 7    1  0.2810263E-009  0.1236847E+03  0.7561462E-02  0.1237139E+00
         -2   -1    0    0    0  501 -0.00000000000E+00  0.00000000000E+00  0.23523408626E+02  0.23523408626E+02  0.00000000000E+00 0.  1.
          2   -1    0    0  501    0  0.00000000000E+00 -0.00000000000E+00 -0.69077760675E+03  0.69077760675E+03  0.00000000000E+00 0. -1.
         25    2    1    2    0    0  0.10197321667E+02  0.54864724130E+02 -0.39352086623E+03  0.41667868806E+03  0.12509329961E+03 0.  0.
          5    1    3    3  502    0 -0.54310301435E+02  0.28408878891E+02 -0.12584084890E+03  0.14003594143E+03  0.41800000000E+01 0. -1.
         -5    1    3    3    0  502  0.64507623102E+02  0.26455845239E+02 -0.26768001733E+03  0.27664274663E+03  0.41800000000E+01 0. -1.
        -11    1    1    2    0    0 -0.87497019730E+01 -0.85235266259E+02 -0.21595886319E+03  0.23233561605E+03  0.00000000000E+00 0. -1.
         11    1    1    2    0    0 -0.14476196936E+01  0.30370542129E+02 -0.57774468711E+02  0.65286711258E+02  0.00000000000E+00 0.  1.
</event>
<event>
 7    1  0.2810263E-009  0.9658083E+02  0.7561462E-02  0.1287655E+00
          1   -1    0    0  501    0  0.00000000000E+00  0.00000000000E+00  0.12940363613E+03  0.12940363613E+03  0.00000000000E+00 0. -1.
         -1   -1    0    0    0  501 -0.00000000000E+00 -0.00000000000E+00 -0.10595860648E+03  0.10595860648E+03  0.00000000000E+00 0.  1.
         25    2    1    2    0    0 -0.63750000403E+01  0.35718422590E+02 -0.10081940902E+02  0.13062966351E+03  0.12508404022E+03 0.  0.
          5    1    3    3  502    0 -0.37843786664E+02 -0.30577276196E+02  0.17856719633E+02  0.51994777091E+02  0.41800000000E+01 0.  1.
         -5    1    3    3    0  502  0.31468786624E+02  0.66295698787E+02 -0.27938660535E+02  0.78634886416E+02  0.41800000000E+01 0.  1.
        -11    1    1    2    0    0  0.13536772069E+02  0.14652003300E+02  0.47880400709E+02  0.51869626669E+02  0.00000000000E+00 0. -1.
         11    1    1    2    0    0 -0.71617720289E+01 -0.50370425890E+02 -0.14353430152E+02  0.52862952434E+02  0.00000000000E+00 0.  1.
</event>
<event>
 7    1  0.2810263E-009  0.1054025E+03  0.7561462E-02  0.1269329E+00
          1   -1    0    0  501    0  0.00000000000E+00  0.00000000000E+00  0.73303650689E+03  0.73303650689E+03  0.00000000000E+00 0. -1.
         -1   -1    0    0    0  501 -0.00000000000E+00 -0.00000000000E+00 -0.20852511381E+02  0.20852511381E+02  0.00000000000E+00 0.  1.
         25    2    1    2    0    0 -0.17067455201E+02  0.49851837802E+02  0.44361378284E+03  0.46391431892E+03  0.12508718243E+03 0.  0.
          5    1    3    3  502    0  0.29099578742E+00  0.77195175621E+02  0.15251693209E+03  0.17099142315E+03  0.41800000000E+01 0.  1.
         -5    1    3    3    0  502 -0.17358450988E+02 -0.27343337819E+02  0.29109685076E+03  0.29292289577E+03  0.41800000000E+01 0.  1.
        -11    1    1    2    0    0  0.40457659151E+02  0.54231190391E+01  0.57358183760E+02  0.70400238980E+02  0.00000000000E+00 0.  1.
         11    1    1    2    0    0 -0.23390203950E+02 -0.55274956841E+02  0.21121202891E+03  0.21957446038E+03  0.00000000000E+00 0. -1.
</event>
<event>
 7    1  0.2810263E-009  0.1231088E+03  0.7561462E-02  0.1238055E+00
         -1   -1    0    0    0  501 -0.00000000000E+00  0.00000000000E+00  0.40614441060E+02  0.40614441060E+02  0.00000000000E+00 0.  1.
          1   -1    0    0  501    0  0.00000000000E+00 -0.00000000000E+00 -0.46385247890E+03  0.46385247890E+03  0.00000000000E+00 0. -1.
         25    2    1    2    0    0 -0.48696622637E+02  0.70370716761E+02 -0.22676284093E+03  0.27275065431E+03  0.12509250404E+03 0.  0.
          5    1    3    3  502    0 -0.79538995575E+02  0.31078758439E+02 -0.77860498811E+02  0.11563766998E+03  0.41800000000E+01 0.  1.
         -5    1    3    3    0  502  0.30842372938E+02  0.39291958321E+02 -0.14890234212E+03  0.15711298433E+03  0.41800000000E+01 0.  1.
        -11    1    1    2    0    0  0.36410923423E+02 -0.84416258660E+02 -0.19146814927E+03  0.21239565028E+03  0.00000000000E+00 0.  1.
         11    1    1    2    0    0  0.12285699214E+02  0.14045541899E+02 -0.50070476411E+01  0.19320615375E+02  0.00000000000E+00 0. -1.
</event>
<event>
 7    1  0.2810263E-009  0.1075343E+03  0.7561462E-02  0.1265205E+00
         -2   -1    0    0    0  501 -0.00000000000E+00  0.00000000000E+00  0.19128051102E+03  0.19128051102E+03  0.00000000000E+00 0.  1.
          2   -1    0    0  501    0  0.00000000000E+00 -0.00000000000E+00 -0.94257065860E+02  0.94257065860E+02  0.00000000000E+00 0. -1.
         25    2    1    2    0    0  0.32801071984E+02 -0.67678515879E+02  0.26030600655E+02  0.14826155520E+03  0.12509038630E+03 0.  0.
          5    1    3    3  502    0  0.33604234483E+02 -0.18513637682E+01 -0.41677728561E+02  0.53732463009E+02  0.41800000000E+01 0. -1.
         -5    1    3    3    0  502 -0.80316249830E+00 -0.65827152111E+02  0.67708329216E+02  0.94529092190E+02  0.41800000000E+01 0. -1.
        -11    1    1    2    0    0  0.12996909646E+02 -0.15505488383E+02  0.23799630507E+02  0.31237193258E+02  0.00000000000E+00 0.  1.
         11    1    1    2    0    0 -0.45797981630E+02  0.83184004262E+02  0.47193214001E+02  0.10603882843E+03  0.00000000000E+00 0. -1.
</event>
<event>
 7    1  0.2810263E-009  0.1507387E+03  0.7561462E-02  0.1199568E+00
         -2   -1    0    0    0  501 -0.00000000000E+00  0.00000000000E+00  0.10644280634E+03  0.10644280634E+03  0.00000000000E+00 0.  1.
          2   -1    0    0  501    0  0.00000000000E+00 -0.00000000000E+00 -0.30514627409E+03  0.30514627409E+03  0.00000000000E+00 0. -1.
         25    2    1    2    0    0  0.55784396442E+01 -0.10501029434E+03 -0.21672944242E+03  0.27143667345E+03  0.12509170867E+03 0.  0.
          5    1    3    3  502    0 -0.27166372501E+02 -0.12226046598E+03 -0.15472420532E+03  0.19910470976E+03  0.41800000000E+01 0. -1.
         -5    1    3    3    0  502  0.32744812146E+02  0.17250171638E+02 -0.62005237097E+02  0.72331963691E+02  0.41800000000E+01 0. -1.
        -11    1    1    2    0    0  0.33133625078E+02  0.74522329009E+01  0.63083343816E+01  0.34542263514E+02  0.00000000000E+00 0. -1.
         11    1    1    2    0    0 -0.38712064722E+02  0.97558061444E+02  0.11717640282E+02  0.10561014346E+03  0.00000000000E+00 0.  1.
</event>
<event>
 7    1  0.2810263E-009  0.1005641E+03  0.7561462E-02  0.1279114E+00
          1   -1    0    0  501    0  0.00000000000E+00  0.00000000000E+00  0.72542194939E+03  0.72542194939E+03  0.00000000000E+00 0. -1.
         -1   -1    0    0    0  501 -0.00000000000E+00 -0.00000000000E+00 -0.21158795918E+02  0.21158795918E+02  0.00000000000E+00 0.  1.
         25    2    1    2    0    0 -0.22519705537E+02  0.24870321094E+02  0.54801549139E+03  0.56311070705E+03  0.12508804731E+03 0.  0.
          5    1    3    3  502    0  0.80763888216E+01 -0.46105409206E+02  0.28835402403E+03  0.29215826599E+03  0.41800000000E+01 0.  1.
         -5    1    3    3    0  502 -0.30596094358E+02  0.70975730300E+02  0.25966146736E+03  0.27095244106E+03  0.41800000000E+01 0.  1.
        -11    1    1    2    0    0  0.33619206966E+01 -0.47194671091E+02  0.35394838201E+02  0.59088358087E+02  0.00000000000E+00 0.  1.
         11    1    1    2    0    0  0.19157784840E+02  0.22324349997E+02  0.12085282387E+03  0.12438168017E+03  0.00000000000E+00 0. -1.
</event>
<event>
 7    1  0.2810263E-009  0.1071844E+03  0.7561462E-02  0.1265875E+00
         -1   -1    0    0    0  501 -0.00000000000E+00  0.00000000000E+00  0.99040238611E+02  0.99040238611E+02  0.00000000000E+00 0.  1.
          1   -1    0    0  501    0  0.00000000000E+00 -0.00000000000E+00 -0.18255704668E+03  0.18255704668E+03  0.00000000000E+00 0. -1.
         25    2    1    2    0    0 -0.13581716940E+02 -0.75495908754E+02 -0.73322928596E+02  0.16403505622E+03  0.12508857876E+03 0.  0.
          5    1    3    3  502    0 -0.54013308227E+02 -0.95718911204E+01  0.32688452396E+01  0.55110945504E+02  0.41800000000E+01 0. -1.
         -5    1    3    3    0  502  0.40431591286E+02 -0.65924017634E+02 -0.76591773835E+02  0.10892411071E+03  0.41800000000E+01 0. -1.
        -11    1    1    2    0    0 -0.90798279620E+01  0.20133013280E+02 -0.43723558391E+02  0.48985008501E+02  0.00000000000E+00 0. -1.
         11    1    1    2    0    0  0.22661544902E+02  0.55362895474E+02  0.33529678920E+02  0.68577220570E+02  0.00000000000E+00 0.  1.
</event>
<event>
 7    1  0.2810263E-009  0.1266736E+03  0.7561462E-02  0.1232477E+00
          1   -1    0    0  501    0  0.00000000000E+00  0.00000000000E+00  0.43938941736E+02  0.43938941736E+02  0.00000000000E+00 0. -1.
         -1   -1    0    0    0  501 -0.00000000000E+00 -0.00000000000E+00 -0.44263618839E+03  0.44263618839E+03  0.00000000000E+00 0.  1.
         25    2    1    2    0    0 -0.90905157126E+01  0.84550176921E+02 -0.25739610982E+03  0.29854566985E+03  0.12508153240E+03 0.  0.
          5    1    3    3  502    0 -0.51075100090E+02 -0.26980716653E+00 -0.13039366857E+03  0.14010253334E+03  0.41800000000E+01 0.  1.
         -5    1    3    3    0  502  0.41984584377E+02  0.84819984087E+02 -0.12700244125E+03  0.15844313651E+03  0.41800000000E+01 0.  1.
        -11    1    1    2    0    0 -0.13348350268E+02  0.55926848559E+01 -0.68486319504E+02  0.69998803832E+02  0.00000000000E+00 0.  1.
         11    1    1    2    0    0  0.22438865980E+02 -0.90142861777E+02 -0.72814817330E+02  0.11803065644E+03  0.00000000000E+00 0. -1.
</event>
<event>
 7    1  0.2941272E-009  0.1189324E+03  0.7561462E-02  0.1244869E+00
          2   -1    0    0  501    0  0.00000000000E+00  0.00000000000E+00  0.21112327015E+03  0.21112327015E+03  0.00000000000E+00 0. -1.
         -2   -1    0    0    0  501 -0.00000000000E+00 -0.00000000000E+00 -0.88737032370E+02  0.88737032370E+02  0.00000000000E+00 0.  1.
         25    2    1    2    0    0 -0.78114443287E+02  0.83066211808E+01  0.97103686882E+02  0.17677066574E+03  0.12509147074E+03 0.  0.
          5    1    3    3  502    0 -0.10655501564E+02 -0.43419508253E+02 -0.34473699409E+01  0.45034988287E+02  0.41800000000E+01 0. -1.
         -5    1    3    3    0  502 -0.67458941723E+02  0.51726129434E+02  0.10055105682E+03  0.13173567745E+03  0.41800000000E+01 0. -1.
        -11    1    1    2    0    0  0.52155830360E+02  0.31054683237E+02 -0.13328567848E+02  0.62147201968E+02  0.00000000000E+00 0.  1.
         11    1    1    2    0    0  0.25958612927E+02 -0.39361304418E+02  0.38611118746E+02  0.60942434817E+02  0.00000000000E+00 0. -1.
</event>
<event>
 7    1  0.2810263E-009  0.2194665E+03  0.7561462E-02  0.1134281E+00
          2   -1    0    0  501    0  0.00000000000E+00  0.00000000000E+00  0.41048614532E+03  0.41048614532E+03  0.00000000000E+00 0. -1.
         -2   -1    0    0    0  501 -0.00000000000E+00 -0.00000000000E+00 -0.14132938833E+03  0.14132938833E+03  0.00000000000E+00 0.  1.
         25    2    1    2    0    0 -0.15808374510E+03  0.13052676930E+03  0.64286491619E+02  0.24861188378E+03  0.12508959901E+03 0.  0.
          5    1    3    3  502    0 -0.14513348632E+03  0.78426068923E+02  0.35097840195E+00  0.16502112811E+03  0.41800000000E+01 0.  1.
         -5    1    3    3    0  502 -0.12950258784E+02  0.52100700381E+02  0.63935513217E+02  0.83590755668E+02  0.41800000000E+01 0.  1.
        -11    1    1    2    0    0  0.15476877091E+03 -0.89259231851E+02  0.18532386701E+03  0.25742089776E+03  0.00000000000E+00 0.  1.
         11    1    1    2    0    0  0.33149741879E+01 -0.41267537453E+02  0.19546398365E+02  0.45782752105E+02  0.00000000000E+00 0. -1.
</event>
<event>
 7    1  0.2810263E-009  0.1874595E+03  0.7561462E-02  0.1160773E+00
          1   -1    0    0  501    0  0.00000000000E+00  0.00000000000E+00  0.16745652772E+04  0.16745652772E+04  0.00000000000E+00 0. -1.
         -1   -1    0    0    0  501 -0.00000000000E+00 -0.00000000000E+00 -0.24470562463E+02  0.24470562463E+02  0.00000000000E+00 0.  1.
         25    2    1    2    0    0  0.17671246711E+02 -0.15184239430E+03  0.11827527249E+04  0.11991325795E+04  0.12508616665E+03 0.  0.
          5    1    3    3  502    0  0.43364872804E+02 -0.16333241027E+03  0.10055730766E+04  0.10196826336E+04  0.41800000000E+01 0. -1.
         -5    1    3    3    0  502 -0.25693626094E+02  0.11490015970E+02  0.17717964834E+03  0.17944994587E+03  0.41800000000E+01 0. -1.
        -11    1    1    2    0    0  0.21444339811E+02  0.13168145630E+03  0.34646092086E+03  0.37126141104E+03  0.00000000000E+00 0.  1.
         11    1    1    2    0    0 -0.39115586521E+02  0.20160937994E+02  0.12088106888E+03  0.12864184911E+03  0.00000000000E+00 0. -1.
</event>
<event>
 7    1  0.2810263E-009  0.6240242E+02  0.7561462E-02  0.1388018E+00
         -3   -1    0    0    0  501 -0.00000000000E+00  0.00000000000E+00  0.30126940820E+02  0.30126940820E+02  0.00000000000E+00 0.  1.
          3   -1    0    0  501    0  0.00000000000E+00 -0.00000000000E+00 -0.57195656061E+03  0.57195656061E+03  0.00000000000E+00 0. -1.
         25    2    1    2    0    0  0.60600784463E+01  0.79689455655E+01 -0.46865817341E+03  0.48516627834E+03  0.12508239481E+03 0.  0.
          5    1    3    3  502    0  0.30282451369E+02 -0.17267233465E+02 -0.33314366832E+02  0.48399417867E+02  0.41800000000E+01 0.  1.
         -5    1    3    3    0  502 -0.24222372923E+02  0.25236179031E+02 -0.43534380658E+03  0.43676686048E+03  0.41800000000E+01 0.  1.
        -11    1    1    2    0    0  0.16244044368E+02 -0.22570619496E+02 -0.83742695101E+02  0.88239111649E+02  0.00000000000E+00 0. -1.
         11    1    1    2    0    0 -0.22304122815E+02  0.14601673931E+02  0.10571248723E+02  0.28678111438E+02  0.00000000000E+00 0.  1.
</event>
<event>
 7    1  0.2810263E-009  0.1509258E+03  0.7561462E-02  0.1199340E+00
          4   -1    0    0  501    0  0.00000000000E+00  0.00000000000E+00  0.16177851199E+03  0.16177851199E+03  0.00000000000E+00 0. -1.
         -4   -1    0    0    0  501 -0.00000000000E+00 -0.00000000000E+00 -0.16470060579E+03  0.16470060579E+03  0.00000000000E+00 0.  1.
         25    2    1    2    0    0 -0.11458171388E+03  0.29682987812E+02  0.27986560578E+02  0.17447349614E+03  0.12509078448E+03 0.  0.
          5    1    3    3  502    0 -0.73972346760E+02 -0.31220770900E+02 -0.24789102294E+02  0.84134514995E+02  0.41800000000E+01 0.  1.
         -5    1    3    3    0  502 -0.40609367124E+02  0.60903758712E+02  0.52775662872E+02  0.90338981150E+02  0.41800000000E+01 0.  1.
        -11    1    1    2    0    0  0.97383472629E+02  0.16571478855E+02 -0.27499810155E+02  0.10253972016E+03  0.00000000000E+00 0.  1.
         11    1    1    2    0    0  0.17198241256E+02 -0.46254466667E+02 -0.34088442234E+01  0.49465901466E+02  0.00000000000E+00 0. -1.
</event>
<event>
 7    1  0.2810263E-009  0.1353830E+03  0.7561462E-02  0.1219680E+00
         -2   -1    0    0    0  501 -0.00000000000E+00  0.00000000000E+00  0.28928692571E+02  0.28928692571E+02  0.00000000000E+00 0.  1.
          2   -1    0    0  501    0  0.00000000000E+00 -0.00000000000E+00 -0.10573625020E+04  0.10573625020E+04  0.00000000000E+00 0. -1.
         25    2    1    2    0    0  0.80141067499E+02  0.89642478049E+02 -0.34060817340E+03  0.38225838938E+03  0.12509669817E+03 0.  0.
          5    1    3    3  502    0  0.66744997965E+02  0.89996728884E+02 -0.13206134350E+03  0.17323965138E+03  0.41800000000E+01 0.  1.
         -5    1    3    3    0  502  0.13396069534E+02 -0.35425083439E+00 -0.20854682991E+03  0.20901873800E+03  0.41800000000E+01 0.  1.
        -11    1    1    2    0    0 -0.50002577947E+02  0.30343906623E-01 -0.15474619628E+03  0.16262424169E+03  0.00000000000E+00 0.  1.
         11    1    1    2    0    0 -0.30138489552E+02 -0.89672821956E+02 -0.53307943972E+03  0.54140856347E+03  0.00000000000E+00 0. -1.
</event>
<event>
 7    1  0.3151750E-009  0.1599841E+03  0.7561462E-02  0.1188715E+00
          1   -1    0    0  501    0  0.00000000000E+00  0.00000000000E+00  0.51085723569E+03  0.51085723569E+03  0.00000000000E+00 0. -1.
         -1   -1    0    0    0  501 -0.00000000000E+00 -0.00000000000E+00 -0.58030132158E+02  0.58030132158E+02  0.00000000000E+00 0.  1.
         25    2    1    2    0    0 -0.36217860452E+02 -0.12776278199E+03  0.21722539278E+03  0.28367029747E+03  0.12508758738E+03 0.  0.
          5    1    3    3  502    0 -0.35308079773E+02 -0.15056536631E+03  0.16319968765E+03  0.22487374342E+03  0.41800000000E+01 0.  1.
         -5    1    3    3    0  502 -0.90978067968E+00  0.22802584324E+02  0.54025705132E+02  0.58796554046E+02  0.41800000000E+01 0.  1.
        -11    1    1    2    0    0 -0.19083323258E+01  0.83993845759E+02  0.68758470351E+02  0.10856488890E+03  0.00000000000E+00 0.  1.
         11    1    1    2    0    0  0.38126192778E+02  0.43768936231E+02  0.16684324039E+03  0.17665218148E+03  0.00000000000E+00 0. -1.
</event>
<event>
 7    1  0.2810263E-009  0.8137969E+02  0.7561462E-02  0.1325181E+00
         -1   -1    0    0    0  501 -0.00000000000E+00  0.00000000000E+00  0.28383167725E+02  0.28383167725E+02  0.00000000000E+00 0.  1.
          1   -1    0    0  501    0  0.00000000000E+00 -0.00000000000E+00 -0.50094411747E+03  0.50094411747E+03  0.00000000000E+00 0. -1.
         25    2    1    2    0    0  0.32241397438E+00  0.38308473221E+02 -0.20112404820E+03  0.23991967236E+03  0.12507167285E+03 0.  0.
          5    1    3    3  502    0  0.24164152673E+02  0.36529455432E+02 -0.73205747431E+01  0.44602360959E+02  0.41800000000E+01 0.  1.
         -5    1    3    3    0  502 -0.23841738699E+02  0.17790177888E+01 -0.19380347346E+03  0.19531731140E+03  0.41800000000E+01 0.  1.
        -11    1    1    2    0    0  0.42995268877E+02 -0.17258711674E+02 -0.84512923159E+02  0.96378890091E+02  0.00000000000E+00 0.  1.
         11    1    1    2    0    0 -0.43317682851E+02 -0.21049761546E+02 -0.18692397839E+03  0.19302872274E+03  0.00000000000E+00 0. -1.
</event>
<event>
 7    1  0.2810263E-009  0.1493911E+03  0.7561462E-02  0.1201223E+00
          1   -1    0    0  501    0  0.00000000000E+00  0.00000000000E+00  0.52659536984E+02  0.52659536984E+02  0.00000000000E+00 0.  1.
         -1   -1    0    0    0  501 -0.00000000000E+00 -0.00000000000E+00 -0.44379131423E+03  0.44379131423E+03  0.00000000000E+00 0. -1.
         25    2    1    2    0    0 -0.44674436107E+01 -0.10548583426E+03 -0.18381336972E+03  0.24613139810E+03  0.12508433539E+03 0.  0.
          5    1    3    3  502    0 -0.59319892374E+02 -0.32280444643E+02 -0.50647270082E+02  0.84519199620E+02  0.41800000000E+01 0.  1.
         -5    1    3    3    0  502  0.54852448763E+02 -0.73205389616E+02 -0.13316609964E+03  0.16161219848E+03  0.41800000000E+01 0.  1.
        -11    1    1    2    0    0 -0.42503279757E+02  0.36138496767E+02 -0.70569773201E+02  0.89958949684E+02  0.00000000000E+00 0.  1.
         11    1    1    2    0    0  0.46970723368E+02  0.69347337492E+02 -0.13674863432E+03  0.16036050343E+03  0.00000000000E+00 0. -1.
</event>
<event>
 7    1  0.2810263E-009  0.1078271E+03  0.7561462E-02  0.1264647E+00
          1   -1    0    0  501    0  0.00000000000E+00  0.00000000000E+00  0.15326402588E+03  0.15326402588E+03  0.00000000000E+00 0. -1.
         -1   -1    0    0    0  501 -0.00000000000E+00 -0.00000000000E+00 -0.90220144395E+02  0.90220144395E+02  0.00000000000E+00 0.  1.
         25    2    1    2    0    0  0.11696112618E+01 -0.43930460307E+02  0.21462681374E+02  0.13430967341E+03  0.12508872190E+03 0.  0.
          5    1    3    3  502    0 -0.89349230179E+01 -0.87188307265E+02  0.10554335451E+02  0.88377034177E+02  0.41800000000E+01 0. -1.
         -5    1    3    3    0  502  0.10104534280E+02  0.43257846959E+02  0.10908345922E+02  0.45932639237E+02  0.41800000000E+01 0. -1.
        -11    1    1    2    0    0  0.15446602581E+02  0.58921089391E+02 -0.11663970803E+01  0.60923335336E+02  0.00000000000E+00 0.  1.
         11    1    1    2    0    0 -0.16616213843E+02 -0.14990629084E+02  0.42747597187E+02  0.48251161520E+02  0.00000000000E+00 0. -1.
</event>
<event>
 7    1  0.2810263E-009  0.1138810E+03  0.7561462E-02  0.1253547E+00
         -4   -1    0    0    0  501 -0.00000000000E+00  0.00000000000E+00  0.17197609535E+03  0.17197609535E+03  0.00000000000E+00 0. -1.
          4   -1    0    0  501    0  0.00000000000E+00 -0.00000000000E+00 -0.79319400177E+02  0.79319400177E+02  0.00000000000E+00 0.  1.
         25    2    1    2    0    0  0.40239075677E+02  0.14895578764E+02  0.53052193798E+02  0.14249050454E+03  0.12509175488E+03 0.  0.
          5    1    3    3  502    0  0.14080513525E+02 -0.52292028485E+02  0.25729827935E+01  0.54376555101E+02  0.41800000000E+01 0.  1.
         -5    1    3    3    0  502  0.26158562152E+02  0.67187607249E+02  0.50479211004E+02  0.88113949437E+02  0.41800000000E+01 0.  1.
        -11    1    1    2    0    0 -0.64518320242E+02 -0.31513477174E+02  0.25709811827E+02  0.76267341075E+02  0.00000000000E+00 0.  1.
         11    1    1    2    0    0  0.24279244565E+02  0.16617898410E+02  0.13894689544E+02  0.32537649911E+02  0.00000000000E+00 0. -1.
</event>
<event>
 7    1  0.2810263E-009  0.2533405E+03  0.7561462E-02  0.1111212E+00
         -2   -1    0    0    0  501 -0.00000000000E+00  0.00000000000E+00  0.14519013028E+03  0.14519013028E+03  0.00000000000E+00 0.  1.
          2   -1    0    0  501    0  0.00000000000E+00 -0.00000000000E+00 -0.49018775447E+03  0.49018775447E+03  0.00000000000E+00 0. -1.
         25    2    1    2    0    0  0.12497842716E+01 -0.24332784256E+03 -0.16856883085E+03  0.32136056021E+03  0.12508860059E+03 0.  0.
          5    1    3    3  502    0 -0.17802863398E+02 -0.64959214391E+02 -0.11631604950E+03  0.13447504323E+03  0.41800000000E+01 0.  1.
         -5    1    3    3    0  502  0.19052647670E+02 -0.17836862817E+03 -0.52252781352E+02  0.18688551698E+03  0.41800000000E+01 0.  1.
        -11    1    1    2    0    0  0.44518116225E+02  0.13550488986E+03 -0.97711911656E+02  0.17289029911E+03  0.00000000000E+00 0. -1.
         11    1    1    2    0    0 -0.45767900497E+02  0.10782295270E+03 -0.78716881682E+02  0.14112702543E+03  0.00000000000E+00 0.  1.
</event>
<event>
 7    1  0.2810263E-009  0.9108126E+02  0.7561462E-02  0.1300254E+00
          2   -1    0    0  501    0  0.00000000000E+00  0.00000000000E+00  0.52893376846E+03  0.52893376846E+03  0.00000000000E+00 0. -1.
         -2   -1    0    0    0  501 -0.00000000000E+00 -0.00000000000E+00 -0.25506517667E+02  0.25506517667E+02  0.00000000000E+00 0.  1.
         25    2    1    2    0    0  0.11509915002E+02 -0.21377264244E+02  0.20307078484E+03  0.23974060008E+03  0.12509334954E+03 0.  0.
          5    1    3    3  502    0  0.26435975497E+02 -0.53077251752E+02  0.37124043135E+02  0.70083681644E+02  0.41800000000E+01 0.  1.
         -5    1    3    3    0  502 -0.14926060495E+02  0.31699987509E+02  0.16594674171E+03  0.16965691844E+03  0.41800000000E+01 0.  1.
        -11    1    1    2    0    0 -0.46873367193E+02  0.22622512791E+02  0.23155127470E+03  0.23732864018E+03  0.00000000000E+00 0. -1.
         11    1    1    2    0    0  0.35363452191E+02 -0.12452485472E+01  0.68805191254E+02  0.77371045866E+02  0.00000000000E+00 0.  1.
</event>
<event>
 7    1  0.2810263E-009  0.1010989E+03  0.7561462E-02  0.1278002E+00
         -1   -1    0    0    0  501 -0.00000000000E+00  0.00000000000E+00  0.87805768700E+02  0.87805768700E+02  0.00000000000E+00 0.  1.
          1   -1    0    0  501    0  0.00000000000E+00 -0.00000000000E+00 -0.15722351790E+03  0.15722351790E+03  0.00000000000E+00 0. -1.
         25    2    1    2    0    0 -0.21975811656E+02  0.36468959738E+02 -0.35100734607E+02  0.13671233895E+03  0.12508109661E+03 0.  0.
          5    1    3    3  502    0 -0.16423028866E+02 -0.41073734296E+02  0.11605825877E+02  0.45923143626E+02  0.41800000000E+01 0. -1.
         -5    1    3    3    0  502 -0.55527827902E+01  0.77542694034E+02 -0.46706560484E+02  0.90789195321E+02  0.41800000000E+01 0. -1.
        -11    1    1    2    0    0 -0.22409875164E+02  0.87432338877E-01  0.19390388908E+02  0.29634394398E+02  0.00000000000E+00 0.  1.
         11    1    1    2    0    0  0.44385686820E+02 -0.36556392077E+02 -0.53707403503E+02  0.78682553258E+02  0.00000000000E+00 0. -1.
</event>
<event>
 7    1  0.2810263E-009  0.8333831E+02  0.7561462E-02  0.1319836E+00
          2   -1    0    0  501    0  0.00000000000E+00  0.00000000000E+00  0.70472776484E+03  0.70472776484E+03  0.00000000000E+00 0. -1.
         -2   -1    0    0    0  501 -0.00000000000E+00 -0.00000000000E+00 -0.24740979932E+02  0.24740979932E+02  0.00000000000E+00 0.  1.
         25    2    1    2    0    0 -0.34946952839E+02  0.35047847618E+02  0.56279216967E+03  0.57864699135E+03  0.12509066003E+03 0.  0.
          5    1    3    3  502    0 -0.58791454037E+01 -0.14858464735E+02  0.46282779120E+03  0.46312241906E+03  0.41800000000E+01 0.  1.
         -5    1    3    3    0  502 -0.29067807436E+02  0.49906312352E+02  0.99964378463E+02  0.11552457229E+03  0.41800000000E+01 0.  1.
        -11    1    1    2    0    0  0.58832087848E+02 -0.34827646292E+02  0.10099773764E+03  0.12196197159E+03  0.00000000000E+00 0. -1.
         11    1    1    2    0    0 -0.23885135009E+02 -0.22020132556E+00  0.16196877604E+02  0.28859781828E+02  0.00000000000E+00 0.  1.
</event>
<event>
 7    1  0.2810263E-009  0.7972348E+02  0.7561462E-02  0.1329838E+00
          1   -1    0    0  501    0  0.00000000000E+00  0.00000000000E+00  0.30829697939E+03  0.30829697939E+03  0.00000000000E+00 0. -1.
         -1   -1    0    0    0  501 -0.00000000000E+00 -0.00000000000E+00 -0.58154102722E+02  0.58154102722E+02  0.00000000000E+00 0.  1.
         25    2    1    2    0    0 -0.45988279058E+01 -0.25691765531E+02  0.23239684237E+03  0.26521064144E+03  0.12508867236E+03 0.  0.
          5    1    3    3  502    0  0.22236682934E+02  0.11254449579E+02  0.21450610713E+03  0.21598952543E+03  0.41800000000E+01 0. -1.
         -5    1    3    3    0  502 -0.26835510840E+02 -0.36946215110E+02  0.17890735247E+02  0.49221116004E+02  0.41800000000E+01 0. -1.
        -11    1    1    2    0    0 -0.65259368862E+00 -0.31190641779E+02 -0.15825262538E+02  0.34981723049E+02  0.00000000000E+00 0.  1.
         11    1    1    2    0    0  0.52514215944E+01  0.56882407309E+02  0.33571296832E+02  0.66258717623E+02  0.00000000000E+00 0. -1.
</event>
<event>
 7    1  0.2810263E-009  0.1591539E+03  0.7561462E-02  0.1189655E+00
         -1   -1    0    0    0  501 -0.00000000000E+00  0.00000000000E+00  0.29351518587E+03  0.29351518587E+03  0.00000000000E+00 0.  1.
          1   -1    0    0  501    0  0.00000000000E+00 -0.00000000000E+00 -0.11912369822E+03  0.11912369822E+03  0.00000000000E+00 0. -1.
         25    2    1    2    0    0  0.64792277043E+02  0.13667013459E+03  0.75370777189E+02  0.21024886700E+03  0.12508823753E+03 0.  0.
          5    1    3    3  502    0  0.99298849956E+01  0.24008467032E+02 -0.34603317633E+02  0.43472647682E+02  0.41800000000E+01 0.  1.
         -5    1    3    3    0  502  0.54862392048E+02  0.11266166756E+03  0.10997409482E+03  0.16677621932E+03  0.41800000000E+01 0.  1.
        -11    1    1    2    0    0 -0.58357516440E+02 -0.14487457887E+03  0.69257565040E+02  0.17085331030E+03  0.00000000000E+00 0. -1.
         11    1    1    2    0    0 -0.64347606034E+01  0.82044442762E+01  0.29763145413E+02  0.31536706784E+02  0.00000000000E+00 0.  1.
</event>
<event>
 7    1  0.2810263E-009  0.9687514E+02  0.7561462E-02  0.1287008E+00
          2   -1    0    0  501    0  0.00000000000E+00  0.00000000000E+00  0.98197969872E+02  0.98197969872E+02  0.00000000000E+00 0. -1.
         -2   -1    0    0    0  501 -0.00000000000E+00 -0.00000000000E+00 -0.12990021074E+03  0.12990021074E+03  0.00000000000E+00 0.  1.
         25    2    1    2    0    0  0.16717488103E+02  0.19049325626E+02 -0.41499115351E+02  0.13420523562E+03  0.12508604030E+03 0.  0.
          5    1    3    3  502    0 -0.43705843252E+02  0.33580543112E+02  0.63814688869E+01  0.55642152683E+02  0.41800000000E+01 0.  1.
         -5    1    3    3    0  502  0.60423331355E+02 -0.14531217486E+02 -0.47880584238E+02  0.78563082937E+02  0.41800000000E+01 0.  1.
        -11    1    1    2    0    0  0.33298913973E+01  0.26350331270E+02  0.30214096821E+02  0.40228345498E+02  0.00000000000E+00 0. -1.
         11    1    1    2    0    0 -0.20047379500E+02 -0.45399656896E+02 -0.20417222343E+02  0.53664599499E+02  0.00000000000E+00 0.  1.
</event>
<event>
 7    1  0.2810263E-009  0.9977999E+02  0.7561462E-02  0.1280759E+00
         -2   -1    0    0    0  501 -0.00000000000E+00  0.00000000000E+00  0.38854919053E+02  0.38854919053E+02  0.00000000000E+00 0.  1.
          2   -1    0    0  501    0  0.00000000000E+00 -0.00000000000E+00 -0.51423982396E+03  0.51423982396E+03  0.00000000000E+00 0. -1.
         25    2    1    2    0    0 -0.83063318729E+01 -0.86069339856E+02 -0.20380732079E+03  0.25428315921E+03  0.12508227146E+03 0.  0.
          5    1    3    3  502    0  0.94206115862E+01 -0.72062482123E+02 -0.29626684496E+02  0.78593651694E+02  0.41800000000E+01 0.  1.
         -5    1    3    3    0  502 -0.17726943459E+02 -0.14006857733E+02 -0.17418063630E+03  0.17568950751E+03  0.41800000000E+01 0.  1.
        -11    1    1    2    0    0  0.28491432616E+02  0.20280745458E+02 -0.18469879649E+03  0.18798062611E+03  0.00000000000E+00 0. -1.
         11    1    1    2    0    0 -0.20185100743E+02  0.65788594399E+02 -0.86878787626E+02  0.11083095770E+03  0.00000000000E+00 0.  1.
</event>
<event>
 7    1  0.2810263E-009  0.1083421E+03  0.7561462E-02  0.1263671E+00
         -1   -1    0    0    0  501 -0.00000000000E+00  0.00000000000E+00  0.72015579371E+02  0.72015579371E+02  0.00000000000E+00 0.  1.
          1   -1    0    0  501    0  0.00000000000E+00 -0.00000000000E+00 -0.34354654794E+03  0.34354654794E+03  0.00000000000E+00 0. -1.
         25    2    1    2    0    0 -0.46591941594E+02  0.33012984129E+01 -0.10009843143E+02  0.13391390797E+03  0.12510407745E+03 0.  0.
          5    1    3    3  502    0  0.30286194240E+02 -0.13784198260E+02 -0.37580479019E+02  0.50368864257E+02  0.41800000000E+01 0.  1.
         -5    1    3    3    0  502 -0.76878135833E+02  0.17085496673E+02  0.27570635876E+02  0.83545043709E+02  0.41800000000E+01 0.  1.
        -11    1    1    2    0    0  0.73375118232E+02  0.10549915841E+02 -0.17634129367E+03  0.19128894520E+03  0.00000000000E+00 0.  1.
         11    1    1    2    0    0 -0.26783176638E+02 -0.13851214254E+02 -0.85179831748E+02  0.90359274144E+02  0.00000000000E+00 0. -1.
</event>
<event>
 7    1  0.2810263E-009  0.2104274E+03  0.7561462E-02  0.1141228E+00
         -3   -1    0    0    0  501 -0.00000000000E+00  0.00000000000E+00  0.11026267151E+03  0.11026267151E+03  0.00000000000E+00 0.  1.
          3   -1    0    0  501    0  0.00000000000E+00 -0.00000000000E+00 -0.48077519218E+03  0.48077519218E+03  0.00000000000E+00 0. -1.
         25    2    1    2    0    0  0.16122517736E+03 -0.11228315416E+03 -0.12422643884E+03  0.26397135072E+03  0.12509037283E+03 0.  0.
          5    1    3    3  502    0  0.13818279143E+03 -0.12028850740E+03 -0.14337867320E+03  0.23267729839E+03  0.41800000000E+01 0. -1.
         -5    1    3    3    0  502  0.23042385930E+02  0.80053532440E+01  0.19152234365E+02  0.31294052328E+02  0.41800000000E+01 0. -1.
        -11    1    1    2    0    0  0.56386178336E+01  0.22848302740E+02 -0.44708994576E+02  0.50524579614E+02  0.00000000000E+00 0.  1.
         11    1    1    2    0    0 -0.16686379519E+03  0.89434851418E+02 -0.20157708726E+03  0.27654193335E+03  0.00000000000E+00 0. -1.
</event>
<event>
 7    1  0.2810263E-009  0.7585762E+02  0.7561462E-02  0.1341236E+00
          4   -1    0    0  501    0  0.00000000000E+00  0.00000000000E+00  0.36167384404E+02  0.36167384404E+02  0.00000000000E+00 0. -1.
         -4   -1    0    0    0  501 -0.00000000000E+00 -0.00000000000E+00 -0.37337060831E+03  0.37337060831E+03  0.00000000000E+00 0.  1.
         25    2    1    2    0    0 -0.31199325715E+02 -0.19361674796E+02 -0.17322220902E+03  0.21679823526E+03  0.12508904324E+03 0.  0.
          5    1    3    3  502    0 -0.60463396473E+02 -0.20635520498E+02 -0.17580198885E+03  0.18709745776E+03  0.41800000000E+01 0. -1.
         -5    1    3    3    0  502  0.29264070757E+02  0.12738457012E+01  0.25797798217E+01  0.29700777500E+02  0.41800000000E+01 0. -1.
        -11    1    1    2    0    0  0.26673033289E+02 -0.99311520950E+01 -0.16037471340E+03  0.16288071459E+03  0.00000000000E+00 0.  1.
         11    1    1    2    0    0  0.45262924265E+01  0.29292826891E+02 -0.36063014847E+01  0.29859042865E+02  0.00000000000E+00 0. -1.
</event>
<event>
 7    1  0.2810263E-009  0.9503336E+02  0.7561462E-02  0.1291101E+00
          2   -1    0    0  501    0  0.00000000000E+00  0.00000000000E+00  0.53583828358E+03  0.53583828358E+03  0.00000000000E+00 0. -1.
         -2   -1    0    0    0  501 -0.00000000000E+00 -0.00000000000E+00 -0.49936905496E+02  0.49936905496E+02  0.00000000000E+00 0.  1.
         25    2    1    2    0    0  0.66944325864E+02  0.81145093678E+01  0.77027446817E+02  0.16164318459E+03  0.12509158059E+03 0.  0.
          5    1    3    3  502    0  0.29742615570E+02 -0.22299353124E+02  0.10105503723E+03  0.10775656490E+03  0.41800000000E+01 0. -1.
         -5    1    3    3    0  502  0.37201710295E+02  0.30413862492E+02 -0.24027590411E+02  0.53886619689E+02  0.41800000000E+01 0. -1.
        -11    1    1    2    0    0 -0.23504273826E+02 -0.42804976781E+02  0.11330430966E+03  0.12337983431E+03  0.00000000000E+00 0. -1.
         11    1    1    2    0    0 -0.43440052038E+02  0.34690467413E+02  0.29556962161E+03  0.30075217018E+03  0.00000000000E+00 0.  1.
</event>
<event>
 7    1  0.2810263E-009  0.7987902E+02  0.7561462E-02  0.1329395E+00
         -1   -1    0    0    0  501 -0.00000000000E+00  0.00000000000E+00  0.39952235299E+03  0.39952235299E+03  0.00000000000E+00 0.  1.
          1   -1    0    0  501    0  0.00000000000E+00 -0.00000000000E+00 -0.26034662195E+02  0.26034662195E+02  0.00000000000E+00 0. -1.
         25    2    1    2    0    0  0.26476464562E+02 -0.32857139334E+02  0.28103793173E+03  0.31050104357E+03  0.12509190305E+03 0.  0.
          5    1    3    3  502    0  0.62534759465E+02  0.68527547133E+01  0.22130603358E+03  0.23011168873E+03  0.41800000000E+01 0.  1.
         -5    1    3    3    0  502 -0.36058294903E+02 -0.39709894048E+02  0.59731898147E+02  0.80389354848E+02  0.41800000000E+01 0.  1.
        -11    1    1    2    0    0 -0.80432154367E+01  0.16101418542E+02 -0.13073500756E+01  0.18046001160E+02  0.00000000000E+00 0. -1.
         11    1    1    2    0    0 -0.18433249125E+02  0.16755720792E+02  0.93757109139E+02  0.97009970449E+02  0.00000000000E+00 0.  1.
</event>
<event>
 7    1  0.2810263E-009  0.1600239E+03  0.7561462E-02  0.1188670E+00
         -2   -1    0    0    0  501 -0.00000000000E+00  0.00000000000E+00  0.48830731915E+02  0.48830731915E+02  0.00000000000E+00 0.  1.
          2   -1    0    0  501    0  0.00000000000E+00 -0.00000000000E+00 -0.61885510143E+03  0.61885510143E+03  0.00000000000E+00 0. -1.
         25    2    1    2    0    0  0.10522970984E+03  0.62542364359E+02 -0.19151394261E+03  0.25944235406E+03  0.12509158922E+03 0.  0.
          5    1    3    3  502    0  0.48278011938E+02 -0.31600735123E+02 -0.33507972550E+02  0.66855287909E+02  0.41800000000E+01 0. -1.
         -5    1    3    3    0  502  0.56951697903E+02  0.94143099481E+02 -0.15800597006E+03  0.19258706615E+03  0.41800000000E+01 0. -1.
        -11    1    1    2    0    0 -0.26082697234E+01 -0.48429831340E+02 -0.14162779717E+03  0.14970198584E+03  0.00000000000E+00 0.  1.
         11    1    1    2    0    0 -0.10262144012E+03 -0.14112533019E+02 -0.23688262974E+03  0.25854149344E+03  0.00000000000E+00 0. -1.
</event>
<event>
 7    1  0.2810263E-009  0.6213002E+02  0.7561462E-02  0.1389104E+00
          4   -1    0    0  501    0  0.00000000000E+00  0.00000000000E+00  0.11539977798E+03  0.11539977798E+03  0.00000000000E+00 0.  1.
         -4   -1    0    0    0  501 -0.00000000000E+00 -0.00000000000E+00 -0.11503482585E+03  0.11503482585E+03  0.00000000000E+00 0. -1.
         25    2    1    2    0    0  0.25267571535E+01  0.20174491611E+02 -0.21404958687E+02  0.12852870991E+03  0.12509221559E+03 0.  0.
          5    1    3    3  502    0  0.53596210498E+00  0.20367337815E+00  0.52073439539E+02  0.52244083336E+02  0.41800000000E+01 0.  1.
         -5    1    3    3    0  502  0.19907950485E+01  0.19970818233E+02 -0.73478398226E+02  0.76284626575E+02  0.41800000000E+01 0.  1.
        -11    1    1    2    0    0 -0.10256488061E+02 -0.59034635280E+02  0.13909597324E+02  0.61512280137E+02  0.00000000000E+00 0. -1.
         11    1    1    2    0    0  0.77297309076E+01  0.38860143669E+02  0.78603134903E+01  0.40393613778E+02  0.00000000000E+00 0.  1.
</event>
<event>
 7    1  0.2810263E-009  0.1522678E+03  0.7561462E-02  0.1197714E+00
          2   -1    0    0  501    0  0.00000000000E+00  0.00000000000E+00  0.50046138457E+03  0.50046138457E+03  0.00000000000E+00 0. -1.
         -2   -1    0    0    0  501 -0.00000000000E+00 -0.00000000000E+00 -0.71471882601E+02  0.71471882601E+02  0.00000000000E+00 0.  1.
         25    2    1    2    0    0  0.27003620105E+02  0.14079196848E+03  0.30868310600E+03  0.36260857572E+03  0.12509254722E+03 0.  0.
          5    1    3    3  502    0  0.16843065051E+02  0.14464123643E+03  0.17187926360E+03  0.22531029664E+03  0.41800000000E+01 0. -1.
         -5    1    3    3    0  502  0.10160555054E+02 -0.38492679498E+01  0.13680384240E+03  0.13729827908E+03  0.41800000000E+01 0. -1.
        -11    1    1    2    0    0  0.43060376858E+01 -0.65921936842E+02  0.10890368677E+03  0.12737447433E+03  0.00000000000E+00 0. -1.
         11    1    1    2    0    0 -0.31309657791E+02 -0.74870031640E+02  0.11402709191E+02  0.81950217118E+02  0.00000000000E+00 0.  1.
</event>
<event>
 7    1  0.2810263E-009  0.1020082E+03  0.7561462E-02  0.1276129E+00
         -1   -1    0    0    0  501 -0.00000000000E+00  0.00000000000E+00  0.23308877861E+03  0.23308877861E+03  0.00000000000E+00 0.  1.
          1   -1    0    0  501    0  0.00000000000E+00 -0.00000000000E+00 -0.77197570756E+02  0.77197570756E+02  0.00000000000E+00 0. -1.
         25    2    1    2    0    0  0.54194892235E+02 -0.31403972078E+02  0.14081449066E+03  0.19849282290E+03  0.12508950458E+03 0.  0.
          5    1    3    3  502    0 -0.27829097674E+01  0.44119833537E+02  0.55080043255E+02  0.70750179245E+02  0.41800000000E+01 0. -1.
         -5    1    3    3    0  502  0.56977802002E+02 -0.75523805615E+02  0.85734447405E+02  0.12774264365E+03  0.41800000000E+01 0. -1.
        -11    1    1    2    0    0 -0.13714686351E+02  0.56990650313E-01  0.48665073494E+02  0.50560708537E+02  0.00000000000E+00 0.  1.
         11    1    1    2    0    0 -0.40480205884E+02  0.31346981428E+02 -0.33588356299E+02  0.61232817932E+02  0.00000000000E+00 0. -1.
</event>
<event>
 7    1  0.2810263E-009  0.2268052E+03  0.7561462E-02  0.1128909E+00
         -2   -1    0    0    0  501 -0.00000000000E+00  0.00000000000E+00  0.26947858122E+03  0.26947858122E+03  0.00000000000E+00 0. -1.
          2   -1    0    0  501    0  0.00000000000E+00 -0.00000000000E+00 -0.23807565532E+03  0.23807565532E+03  0.00000000000E+00 0.  1.
         25    2    1    2    0    0  0.60890508554E+02 -0.19442291276E+03  0.11965752495E+03  0.26734418924E+03  0.12508824567E+03 0.  0.
          5    1    3    3  502    0  0.71505273840E+02 -0.49618707655E+02  0.15246916345E+02  0.88458810722E+02  0.41800000000E+01 0. -1.
         -5    1    3    3    0  502 -0.10614765286E+02 -0.14480420511E+03  0.10441060860E+03  0.17888537852E+03  0.41800000000E+01 0. -1.
        -11    1    1    2    0    0 -0.10293014663E+01  0.14095687097E+03 -0.72133818823E+02  0.15834515071E+03  0.00000000000E+00 0. -1.
         11    1    1    2    0    0 -0.59861207087E+02  0.53466041795E+02 -0.16120780227E+02  0.81864896594E+02  0.00000000000E+00 0.  1.
</event>
<event>
 7    1  0.2810263E-009  0.9318653E+02  0.7561462E-02  0.1295314E+00
         -1   -1    0    0    0  501 -0.00000000000E+00  0.00000000000E+00  0.22746430359E+03  0.22746430359E+03  0.00000000000E+00 0.  1.
          1   -1    0    0  501    0  0.00000000000E+00 -0.00000000000E+00 -0.66956683165E+02  0.66956683165E+02  0.00000000000E+00 0. -1.
         25    2    1    2    0    0  0.30502532238E+02 -0.47025645722E+02  0.77162014123E+02  0.15730200873E+03  0.12509248457E+03 0.  0.
          5    1    3    3  502    0 -0.13725720253E+02 -0.22997508311E+01 -0.29794979949E+02  0.33149622630E+02  0.41800000000E+01 0.  1.
         -5    1    3    3    0  502  0.44228252490E+02 -0.44725894891E+02  0.10695699407E+03  0.12415238610E+03  0.41800000000E+01 0.  1.
        -11    1    1    2    0    0 -0.49992984353E+02 -0.78156824240E+01  0.36157204354E+02  0.62191050827E+02  0.00000000000E+00 0.  1.
         11    1    1    2    0    0  0.19490452116E+02  0.54841328146E+02  0.47188401949E+02  0.74927927204E+02  0.00000000000E+00 0. -1.
</event>
<event>
 7    1  0.3357193E-009  0.1129962E+03  0.7561462E-02  0.1255120E+00
         -2   -1    0    0    0  501 -0.00000000000E+00  0.00000000000E+00  0.31984699871E+02  0.31984699871E+02  0.00000000000E+00 0. -1.
          2   -1    0    0  501    0  0.00000000000E+00 -0.00000000000E+00 -0.62435468473E+03  0.62435468473E+03  0.00000000000E+00 0.  1.
         25    2    1    2    0    0 -0.89855331731E+02 -0.57186863889E+01 -0.32354245174E+03  0.35837733664E+03  0.12509161971E+03 0.  0.
          5    1    3    3  502    0 -0.16128149128E+02  0.29173356417E+02 -0.23704292497E+03  0.23941182635E+03  0.41800000000E+01 0. -1.
         -5    1    3    3    0  502 -0.73727182603E+02 -0.34892042806E+02 -0.86499526771E+02  0.11896551028E+03  0.41800000000E+01 0. -1.
        -11    1    1    2    0    0  0.73673146836E+02 -0.23493180896E+02 -0.10295332616E+03  0.12875965782E+03  0.00000000000E+00 0. -1.
         11    1    1    2    0    0  0.16182184895E+02  0.29211867285E+02 -0.16587420695E+03  0.16920239015E+03  0.00000000000E+00 0.  1.
</event>
<event>
 7    1  0.2810263E-009  0.1371400E+03  0.7561462E-02  0.1217230E+00
         -2   -1    0    0    0  501 -0.00000000000E+00  0.00000000000E+00  0.30316144964E+03  0.30316144964E+03  0.00000000000E+00 0.  1.
          2   -1    0    0  501    0  0.00000000000E+00 -0.00000000000E+00 -0.87723264698E+02  0.87723264698E+02  0.00000000000E+00 0. -1.
         25    2    1    2    0    0 -0.68625189054E+02  0.94266763682E+02  0.15316173715E+03  0.22956682331E+03  0.12508704702E+03 0.  0.
          5    1    3    3  502    0  0.65767609467E+01  0.10828480126E+02  0.10736548069E+03  0.10819116697E+03  0.41800000000E+01 0.  1.
         -5    1    3    3    0  502 -0.75201950001E+02  0.83438283555E+02  0.45796256456E+02  0.12137565634E+03  0.41800000000E+01 0.  1.
        -11    1    1    2    0    0  0.87711639316E+02 -0.51527483990E+02  0.47186097317E+02  0.11213804465E+03  0.00000000000E+00 0.  1.
         11    1    1    2    0    0 -0.19086450262E+02 -0.42739279691E+02  0.15090350476E+02  0.49179846377E+02  0.00000000000E+00 0. -1.
</event>
<event>
 7    1  0.2810263E-009  0.7636098E+02  0.7561462E-02  0.1339708E+00
          2   -1    0    0  501    0  0.00000000000E+00  0.00000000000E+00  0.30072862920E+03  0.30072862920E+03  0.00000000000E+00 0.  1.
         -2   -1    0    0    0  501 -0.00000000000E+00 -0.00000000000E+00 -0.53880566181E+02  0.53880566181E+02  0.00000000000E+00 0. -1.
         25    2    1    2    0    0  0.55612023860E+02  0.27038125436E+02  0.17362713821E+03  0.22274982575E+03  0.12508934537E+03 0.  0.
          5    1    3    3  502    0  0.22668790815E+02  0.17083349857E+02  0.18426632488E+03  0.18648663707E+03  0.41800000000E+01 0.  1.
         -5    1    3    3    0  502  0.32943233045E+02  0.99547755795E+01 -0.10639186674E+02  0.36263188682E+02  0.41800000000E+01 0.  1.
        -11    1    1    2    0    0  0.14780671102E+02 -0.44958356606E+01  0.53033696964E+02  0.55238155203E+02  0.00000000000E+00 0.  1.
         11    1    1    2    0    0 -0.70392694962E+02 -0.22542289776E+02  0.20187227846E+02  0.76621214428E+02  0.00000000000E+00 0. -1.
</event>
<event>
 7    1  0.2810263E-009  0.2071315E+03  0.7561462E-02  0.1143858E+00
         -3   -1    0    0    0  501 -0.00000000000E+00  0.00000000000E+00  0.59053729969E+03  0.59053729969E+03  0.00000000000E+00 0.  1.
          3   -1    0    0  501    0  0.00000000000E+00 -0.00000000000E+00 -0.18388427910E+03  0.18388427910E+03  0.00000000000E+00 0. -1.
         25    2    1    2    0    0  0.19342244600E+03  0.23709637402E+02 -0.82501937979E+02  0.24582248072E+03  0.12509089788E+03 0.  0.
          5    1    3    3  502    0  0.11252023995E+03 -0.33761984617E+02 -0.87235831391E+02  0.14638387439E+03  0.41800000000E+01 0.  1.
         -5    1    3    3    0  502  0.80902206049E+02  0.57471622018E+02  0.47338934112E+01  0.99438606325E+02  0.41800000000E+01 0.  1.
        -11    1    1    2    0    0 -0.75369270066E+02 -0.24749288515E+02  0.24251830238E+03  0.25516304815E+03  0.00000000000E+00 0.  1.
         11    1    1    2    0    0 -0.11805317593E+03  0.10396511130E+01  0.24663665619E+03  0.27343604992E+03  0.00000000000E+00 0. -1.
</event>
<event>
 7    1  0.3438308E-009  0.8465914E+02  0.7561462E-02  0.1316326E+00
          1   -1    0    0  501    0  0.00000000000E+00  0.00000000000E+00  0.41934203768E+03  0.41934203768E+03  0.00000000000E+00 0. -1.
         -1   -1    0    0    0  501 -0.00000000000E+00 -0.00000000000E+00 -0.37909812182E+02  0.37909812182E+02  0.00000000000E+00 0.  1.
         25    2    1    2    0    0  0.53525620987E+00  0.30899841900E+02  0.31398961453E+03  0.33939873790E+03  0.12508772334E+03 0.  0.
          5    1    3    3  502    0  0.16165966484E+02 -0.41234125380E+02  0.18916236222E+03  0.19432308985E+03  0.41800000000E+01 0.  1.
         -5    1    3    3    0  502 -0.15630710274E+02  0.72133967281E+02  0.12482725231E+03  0.14507564806E+03  0.41800000000E+01 0.  1.
        -11    1    1    2    0    0 -0.20426880925E+02 -0.17737033362E+02 -0.15753361277E+02  0.31305402223E+02  0.00000000000E+00 0.  1.
         11    1    1    2    0    0  0.19891624716E+02 -0.13162808538E+02  0.83195972241E+02  0.86547709730E+02  0.00000000000E+00 0. -1.
</event>
<event>
 7    1  0.2810263E-009  0.8277544E+02  0.7561462E-02  0.1321355E+00
          1   -1    0    0  501    0  0.00000000000E+00  0.00000000000E+00  0.83713438812E+02  0.83713438812E+02  0.00000000000E+00 0. -1.
         -1   -1    0    0    0  501 -0.00000000000E+00 -0.00000000000E+00 -0.15452930474E+03  0.15452930474E+03  0.00000000000E+00 0.  1.
         25    2    1    2    0    0 -0.47572133065E+01 -0.35511441830E+02 -0.33533071750E+02  0.13437010487E+03  0.12508862700E+03 0.  0.
          5    1    3    3  502    0  0.33964898065E+02 -0.66109562459E+02  0.20511396103E+00  0.74441943962E+02  0.41800000000E+01 0. -1.
         -5    1    3    3    0  502 -0.38722111372E+02  0.30598120630E+02 -0.33738185711E+02  0.59928160912E+02  0.41800000000E+01 0. -1.
        -11    1    1    2    0    0 -0.84165451018E+01  0.12630479529E+02 -0.64317594944E+02  0.66084190726E+02  0.00000000000E+00 0.  1.
         11    1    1    2    0    0  0.13173758408E+02  0.22880962301E+02  0.27034800764E+02  0.37788447953E+02  0.00000000000E+00 0. -1.
</event>
<event>
 7    1  0.2810263E-009  0.2610249E+03  0.7561462E-02  0.1106529E+00
          1   -1    0    0  501    0  0.00000000000E+00  0.00000000000E+00  0.60822073370E+02  0.60822073370E+02  0.00000000000E+00 0. -1.
         -1   -1    0    0    0  501 -0.00000000000E+00 -0.00000000000E+00 -0.12032368344E+04  0.12032368344E+04  0.00000000000E+00 0.  1.
         25    2    1    2    0    0  0.14092584165E+03  0.20287201325E+03 -0.61128982315E+03  0.67107357816E+03  0.12508937931E+03 0.  0.
          5    1    3    3  502    0 -0.78832562154E+01  0.83300883045E+02 -0.22687880801E+03  0.24185253517E+03  0.41800000000E+01 0.  1.
         -5    1    3    3    0  502  0.14880909786E+03  0.11957113021E+03 -0.38441101514E+03  0.42922104299E+03  0.41800000000E+01 0.  1.
        -11    1    1    2    0    0 -0.82602179728E+02 -0.10805015486E+03 -0.18649151901E+03  0.23081820276E+03  0.00000000000E+00 0.  1.
         11    1    1    2    0    0 -0.58323661919E+02 -0.94821858393E+02 -0.34463341883E+03  0.36216712681E+03  0.00000000000E+00 0. -1.
</event>
<event>
 7    1  0.2810263E-009  0.7075774E+02  0.7561462E-02  0.1357535E+00
          1   -1    0    0  501    0  0.00000000000E+00  0.00000000000E+00  0.57743692183E+02  0.57743692183E+02  0.00000000000E+00 0. -1.
         -1   -1    0    0    0  501 -0.00000000000E+00 -0.00000000000E+00 -0.25775470402E+03  0.25775470402E+03  0.00000000000E+00 0.  1.
         25    2    1    2    0    0 -0.17375165447E+02 -0.40883374261E+02 -0.75568955019E+02  0.15274745757E+03  0.12509105551E+03 0.  0.
          5    1    3    3  502    0 -0.26185011765E+02 -0.32773364221E+02  0.26565081034E+02  0.49828949154E+02  0.41800000000E+01 0. -1.
         -5    1    3    3    0  502  0.88098463177E+01 -0.81100100397E+01 -0.10213403605E+03  0.10291850842E+03  0.41800000000E+01 0. -1.
        -11    1    1    2    0    0  0.42339104059E+01  0.61815377502E+02 -0.37636141297E+02  0.72495144836E+02  0.00000000000E+00 0.  1.
         11    1    1    2    0    0  0.13141255041E+02 -0.20932003241E+02 -0.86805915521E+02  0.90255793793E+02  0.00000000000E+00 0. -1.
</event>
<event>
 7    1  0.2810263E-009  0.1296247E+03  0.7561462E-02  0.1228014E+00
          2   -1    0    0  501    0  0.00000000000E+00  0.00000000000E+00  0.37240112204E+02  0.37240112204E+02  0.00000000000E+00 0. -1.
         -2   -1    0    0    0  501 -0.00000000000E+00 -0.00000000000E+00 -0.73137924888E+03  0.73137924888E+03  0.00000000000E+00 0.  1.
         25    2    1    2    0    0 -0.69061162638E+02  0.88123254771E+02 -0.49158752581E+03  0.51945757068E+03  0.12507085988E+03 0.  0.
          5    1    3    3  502    0 -0.52504064751E+02  0.42845094196E+02 -0.79537147683E+02  0.10457537556E+03  0.41800000000E+01 0. -1.
         -5    1    3    3    0  502 -0.16557097887E+02  0.45278160575E+02 -0.41205037812E+03  0.41488219512E+03  0.41800000000E+01 0. -1.
        -11    1    1    2    0    0  0.81615886240E+02 -0.35744935449E+02 -0.14618397154E+03  0.17119756667E+03  0.00000000000E+00 0.  1.
         11    1    1    2    0    0 -0.12554723601E+02 -0.52378319322E+02 -0.56367639329E+02  0.77964223739E+02  0.00000000000E+00 0. -1.
</event>
<event>
 7    1  0.2810263E-009  0.9723165E+02  0.7561462E-02  0.1286227E+00
         -1   -1    0    0    0  501 -0.00000000000E+00  0.00000000000E+00  0.10219595092E+03  0.10219595092E+03  0.00000000000E+00 0.  1.
          1   -1    0    0  501    0  0.00000000000E+00 -0.00000000000E+00 -0.13358657556E+03  0.13358657556E+03  0.00000000000E+00 0. -1.
         25    2    1    2    0    0 -0.35304164398E+02 -0.22524771926E+02 -0.77107785142E+01  0.13213633987E+03  0.12508719693E+03 0.  0.
          5    1    3    3  502    0  0.41759394947E+02  0.12285302896E+02 -0.17098811059E+02  0.46953354228E+02  0.41800000000E+01 0. -1.
         -5    1    3    3    0  502 -0.77063559345E+02 -0.34810074822E+02  0.93880325448E+01  0.85182985644E+02  0.41800000000E+01 0. -1.
        -11    1    1    2    0    0 -0.11854365474E+02 -0.32976795644E+01 -0.44364382303E+02  0.46039103906E+02  0.00000000000E+00 0. -1.
         11    1    1    2    0    0  0.47158529872E+02  0.25822451491E+02  0.20684536176E+02  0.57607082703E+02  0.00000000000E+00 0.  1.
</event>
<event>
 7    1  0.2810263E-009  0.1038558E+03  0.7561462E-02  0.1272390E+00
          2   -1    0    0  501    0  0.00000000000E+00  0.00000000000E+00  0.53514593078E+03  0.53514593078E+03  0.00000000000E+00 0. -1.
         -2   -1    0    0    0  501 -0.00000000000E+00 -0.00000000000E+00 -0.88083098493E+02  0.88083098493E+02  0.00000000000E+00 0.  1.
         25    2    1    2    0    0  0.57687293581E+02  0.14295252727E+02  0.48835291236E+03  0.50760700541E+03  0.12507648395E+03 0.  0.
          5    1    3    3  502    0  0.61671883343E+02 -0.28155498969E+02  0.42935724683E+03  0.43469675766E+03  0.41800000000E+01 0.  1.
         -5    1    3    3    0  502 -0.39845897624E+01  0.42450751696E+02  0.58995665536E+02  0.72910247751E+02  0.41800000000E+01 0.  1.
        -11    1    1    2    0    0 -0.71476294001E+02 -0.28683987916E+02 -0.52066977573E+02  0.92965595359E+02  0.00000000000E+00 0.  1.
         11    1    1    2    0    0  0.13789000420E+02  0.14388735188E+02  0.10776897501E+02  0.22656428506E+02  0.00000000000E+00 0. -1.
</event>
<event>
 7    1  0.2810263E-009  0.1114178E+03  0.7561462E-02  0.1257967E+00
          1   -1    0    0  501    0  0.00000000000E+00  0.00000000000E+00  0.19848480021E+03  0.19848480021E+03  0.00000000000E+00 0. -1.
         -1   -1    0    0    0  501 -0.00000000000E+00 -0.00000000000E+00 -0.10180334229E+03  0.10180334229E+03  0.00000000000E+00 0.  1.
         25    2    1    2    0    0  0.85372328170E+01 -0.35323286026E+02  0.14268474810E+03  0.19320191451E+03  0.12508966205E+03 0.  0.
          5    1    3    3  502    0 -0.20263360490E+02  0.41204132098E+02  0.69399892447E+02  0.83319876092E+02  0.41800000000E+01 0. -1.
         -5    1    3    3    0  502  0.28800593307E+02 -0.76527418124E+02  0.73284855654E+02  0.10988203842E+03  0.41800000000E+01 0. -1.
        -11    1    1    2    0    0  0.38915852700E+02  0.25113029695E+02 -0.12070803324E+02  0.47862429365E+02  0.00000000000E+00 0. -1.
         11    1    1    2    0    0 -0.47453085517E+02  0.10210256330E+02 -0.33932486859E+02  0.59223798627E+02  0.00000000000E+00 0.  1.
</event>
<event>
 7    1  0.2810263E-009  0.9184593E+02  0.7561462E-02  0.1298442E+00
          2   -1    0    0  501    0  0.00000000000E+00  0.00000000000E+00  0.12744375263E+03  0.12744375263E+03  0.00000000000E+00 0. -1.
         -2   -1    0    0    0  501 -0.00000000000E+00 -0.00000000000E+00 -0.10549895396E+03  0.10549895396E+03  0.00000000000E+00 0.  1.
         25    2    1    2    0    0  0.32845496118E+02  0.79590798859E+01  0.35743476212E+02  0.13441773313E+03  0.12509339439E+03 0.  0.
          5    1    3    3  502    0 -0.26608720643E+02 -0.11616213231E+02  0.60294690947E+02  0.67051342869E+02  0.41800000000E+01 0. -1.
         -5    1    3    3    0  502  0.59454216761E+02  0.19575293116E+02 -0.24551214735E+02  0.67366390257E+02  0.41800000000E+01 0. -1.
        -11    1    1    2    0    0  0.14627917876E+02  0.28321384816E+02 -0.21254283897E+02  0.38312157382E+02  0.00000000000E+00 0.  1.
         11    1    1    2    0    0 -0.47473413994E+02 -0.36280464702E+02  0.74556063540E+01  0.60212816089E+02  0.00000000000E+00 0. -1.
</event>
<event>
 7    1  0.2810263E-009  0.1514992E+03  0.7561462E-02  0.1198643E+00
         -1   -1    0    0    0  501 -0.00000000000E+00  0.00000000000E+00  0.88619751114E+02  0.88619751114E+02  0.00000000000E+00 0.  1.
          1   -1    0    0  501    0  0.00000000000E+00 -0.00000000000E+00 -0.52435682285E+03  0.52435682285E+03  0.00000000000E+00 0. -1.
         25    2    1    2    0    0 -0.63364604899E+02  0.11738620649E+03 -0.41328757795E+03  0.45194061299E+03  0.12509636665E+03 0.  0.
          5    1    3    3  502    0 -0.34482332464E+02  0.10794239061E+03 -0.15614421399E+03  0.19297429597E+03  0.41800000000E+01 0. -1.
         -5    1    3    3    0  502 -0.28882272436E+02  0.94438158836E+01 -0.25714336397E+03  0.25896631702E+03  0.41800000000E+01 0. -1.
        -11    1    1    2    0    0 -0.10993154649E+01 -0.88134737791E+02 -0.18972996793E+02  0.90160496379E+02  0.00000000000E+00 0.  1.
         11    1    1    2    0    0  0.64463920364E+02 -0.29251468700E+02 -0.34764969844E+01  0.70875464592E+02  0.00000000000E+00 0. -1.
</event>
<event>
 7    1  0.2810263E-009  0.7423513E+02  0.7561462E-02  0.1346256E+00
          2   -1    0    0  501    0  0.00000000000E+00  0.00000000000E+00  0.75206528379E+02  0.75206528379E+02  0.00000000000E+00 0. -1.
         -2   -1    0    0    0  501 -0.00000000000E+00 -0.00000000000E+00 -0.23719645495E+03  0.23719645495E+03  0.00000000000E+00 0.  1.
         25    2    1    2    0    0  0.16039950087E+01 -0.35780970673E+02 -0.15130718831E+03  0.19955997993E+03  0.12508984648E+03 0.  0.
          5    1    3    3  502    0 -0.75856948931E+01  0.25774927719E+02  0.81086679599E+01  0.28374505494E+02  0.41800000000E+01 0.  1.
         -5    1    3    3    0  502  0.91896899018E+01 -0.61555898392E+02 -0.15941585627E+03  0.17118547443E+03  0.41800000000E+01 0.  1.
        -11    1    1    2    0    0 -0.21772106093E+02  0.31485916344E+02  0.41664875520E+02  0.56580468219E+02  0.00000000000E+00 0. -1.
         11    1    1    2    0    0  0.20168111085E+02  0.42950543294E+01 -0.52347613781E+02  0.56262535181E+02  0.00000000000E+00 0.  1.
</event>
<event>
 7    1  0.2810263E-009  0.7782649E+02  0.7561462E-02  0.1335335E+00
         -2   -1    0    0    0  501 -0.00000000000E+00  0.00000000000E+00  0.31196911872E+02  0.31196911872E+02  0.00000000000E+00 0.  1.
          2   -1    0    0  501    0  0.00000000000E+00 -0.00000000000E+00 -0.68871422155E+03  0.68871422155E+03  0.00000000000E+00 0. -1.
         25    2    1    2    0    0  0.25957904272E+01 -0.23344842522E+02 -0.65815028442E+03  0.67034551491E+03  0.12509833205E+03 0.  0.
          5    1    3    3  502    0 -0.49012025569E+02 -0.41945488253E+02 -0.23856331803E+03  0.24716701185E+03  0.41800000000E+01 0. -1.
         -5    1    3    3    0  502  0.51607815996E+02  0.18600645730E+02 -0.41958696639E+03  0.42317850307E+03  0.41800000000E+01 0. -1.
        -11    1    1    2    0    0 -0.14977940481E+02  0.13647377132E+02  0.17304314816E+02  0.26646367762E+02  0.00000000000E+00 0.  1.
         11    1    1    2    0    0  0.12382150054E+02  0.96974653900E+01 -0.16671340069E+02  0.22919250744E+02  0.00000000000E+00 0. -1.
</event>
<event>
 7    1  0.2810263E-009  0.1074567E+03  0.7561462E-02  0.1265353E+00
         -1   -1    0    0    0  501 -0.00000000000E+00  0.00000000000E+00  0.11639906777E+03  0.11639906777E+03  0.00000000000E+00 0.  1.
          1   -1    0    0  501    0  0.00000000000E+00 -0.00000000000E+00 -0.11418180081E+03  0.11418180081E+03  0.00000000000E+00 0. -1.
         25    2    1    2    0    0  0.22353070283E+02 -0.34561954780E+02  0.10395631844E+02  0.13209644352E+03  0.12508881948E+03 0.  0.
          5    1    3    3  502    0 -0.25347482523E+02  0.35170308699E+02  0.18082693878E+02  0.47158262289E+02  0.41800000000E+01 0.  1.
         -5    1    3    3    0  502  0.47700552806E+02 -0.69732263479E+02 -0.76870620345E+01  0.84938181230E+02  0.41800000000E+01 0.  1.
        -11    1    1    2    0    0  0.24998920122E+02  0.30219575949E+02 -0.26709223284E+02  0.47450515132E+02  0.00000000000E+00 0. -1.
         11    1    1    2    0    0 -0.47351990405E+02  0.43423788308E+01  0.18530858403E+02  0.51033909926E+02  0.00000000000E+00 0.  1.
</event>
<event>
 7    1  0.2810263E-009  0.1439590E+03  0.7561462E-02  0.1208099E+00
          1   -1    0    0  501    0  0.00000000000E+00  0.00000000000E+00  0.71358066001E+03  0.71358066001E+03  0.00000000000E+00 0. -1.
         -1   -1    0    0    0  501 -0.00000000000E+00 -0.00000000000E+00 -0.41540879250E+02  0.41540879250E+02  0.00000000000E+00 0.  1.
         25    2    1    2    0    0 -0.11467671183E+01  0.12007743247E+03  0.51025057464E+03  0.53890928190E+03  0.12509060850E+03 0.  0.
          5    1    3    3  502    0  0.47481338891E+02  0.10651740584E+03  0.41412959992E+03  0.43025717103E+03  0.41800000000E+01 0. -1.
         -5    1    3    3    0  502 -0.48628106009E+02  0.13560026631E+02  0.96120974715E+02  0.10865211087E+03  0.41800000000E+01 0. -1.
        -11    1    1    2    0    0  0.57470759841E+01 -0.48175837598E+02  0.12750229341E+03  0.13642131445E+03  0.00000000000E+00 0. -1.
         11    1    1    2    0    0 -0.46003088658E+01 -0.71901594877E+02  0.34286912710E+02  0.79790942911E+02  0.00000000000E+00 0.  1.
</event>
<event>
 7    1  0.2810263E-009  0.1361691E+03  0.7561462E-02  0.1218579E+00
         -2   -1    0    0    0  501 -0.00000000000E+00  0.00000000000E+00  0.27523233193E+02  0.27523233193E+02  0.00000000000E+00 0.  1.
          2   -1    0    0  501    0  0.00000000000E+00 -0.00000000000E+00 -0.71822679695E+03  0.71822679695E+03  0.00000000000E+00 0. -1.
         25    2    1    2    0    0 -0.75889216632E+02 -0.46109369216E+02 -0.41813471328E+03  0.44538664072E+03  0.12508946460E+03 0.  0.
          5    1    3    3  502    0 -0.35769562918E+02 -0.85193707823E+02 -0.31043716850E+03  0.32392304251E+03  0.41800000000E+01 0. -1.
         -5    1    3    3    0  502 -0.40119653714E+02  0.39084338607E+02 -0.10769754478E+03  0.12146359821E+03  0.41800000000E+01 0. -1.
        -11    1    1    2    0    0  0.82454503565E+02  0.56034836566E+01 -0.15217514252E+03  0.17316875639E+03  0.00000000000E+00 0.  1.
         11    1    1    2    0    0 -0.65652869323E+01  0.40505885559E+02 -0.12039370795E+03  0.12719463303E+03  0.00000000000E+00 0. -1.
</event>
<event>
 7    1  0.2810263E-009  0.7875156E+02  0.7561462E-02  0.1332632E+00
         -1   -1    0    0    0  501 -0.00000000000E+00  0.00000000000E+00  0.43768291711E+02  0.43768291711E+02  0.00000000000E+00 0.  1.
          1   -1    0    0  501    0  0.00000000000E+00 -0.00000000000E+00 -0.28245397110E+03  0.28245397110E+03  0.00000000000E+00 0. -1.
         25    2    1    2    0    0  0.12285937152E+02 -0.40137158960E+01 -0.19810293505E+03  0.23464816005E+03  0.12509169426E+03 0.  0.
          5    1    3    3  502    0  0.32244387146E+01  0.35354532567E+02 -0.18987395415E+03  0.19320955163E+03  0.41800000000E+01 0. -1.
         -5    1    3    3    0  502  0.90614984372E+01 -0.39368248463E+02 -0.82289809011E+01  0.41438608418E+02  0.41800000000E+01 0. -1.
        -11    1    1    2    0    0 -0.45423762005E+02  0.12151202995E+02 -0.16593401232E+02  0.49862920626E+02  0.00000000000E+00 0.  1.
         11    1    1    2    0    0  0.33137824853E+02 -0.81374870992E+01 -0.23989343107E+02  0.41711182133E+02  0.00000000000E+00 0. -1.
</event>
<event>
 7    1  0.2810263E-009  0.1204366E+03  0.7561462E-02  0.1242379E+00
         -2   -1    0    0    0  501 -0.00000000000E+00  0.00000000000E+00  0.75961363897E+02  0.75961363897E+02  0.00000000000E+00 0.  1.
          2   -1    0    0  501    0  0.00000000000E+00 -0.00000000000E+00 -0.22940635751E+03  0.22940635751E+03  0.00000000000E+00 0. -1.
         25    2    1    2    0    0 -0.54263674798E+02  0.50657926172E+02 -0.75593355627E+02  0.16392884086E+03  0.12509011777E+03 0.  0.
          5    1    3    3  502    0  0.39695309606E+02  0.27875503913E+02 -0.24895236674E+02  0.54680952189E+02  0.41800000000E+01 0.  1.
         -5    1    3    3    0  502 -0.93958984404E+02  0.22782422258E+02 -0.50698118953E+02  0.10924788867E+03  0.41800000000E+01 0.  1.
        -11    1    1    2    0    0  0.66422085351E+02 -0.33512803837E+02 -0.90307918721E+02  0.11700650250E+03  0.00000000000E+00 0.  1.
         11    1    1    2    0    0 -0.12158410553E+02 -0.17145122335E+02  0.12456280737E+02  0.24432378043E+02  0.00000000000E+00 0. -1.
</event>
<event>
 7    1  0.2810263E-009  0.1299480E+03  0.7561462E-02  0.1227533E+00
         -1   -1    0    0    0  501 -0.00000000000E+00  0.00000000000E+00  0.64851108093E+02  0.64851108093E+02  0.00000000000E+00 0.  1.
          1   -1    0    0  501    0  0.00000000000E+00 -0.00000000000E+00 -0.31313511650E+03  0.31313511650E+03  0.00000000000E+00 0. -1.
         25    2    1    2    0    0  0.52133879686E+02 -0.56601135582E+02 -0.14827703849E+03  0.20869488628E+03  0.12508335404E+03 0.  0.
          5    1    3    3  502    0  0.70515765094E+02 -0.83825521395E+02 -0.13263671867E+03  0.17207313184E+03  0.41800000000E+01 0.  1.
         -5    1    3    3    0  502 -0.18381885408E+02  0.27224385813E+02 -0.15640319823E+02  0.36621754439E+02  0.41800000000E+01 0.  1.
        -11    1    1    2    0    0 -0.67606660203E+02  0.10354205408E+02 -0.13101911818E+02  0.69638568098E+02  0.00000000000E+00 0.  1.
         11    1    1    2    0    0  0.15472780517E+02  0.46246930174E+02 -0.86905058095E+02  0.99652770207E+02  0.00000000000E+00 0. -1.
</event>
<event>
 7    1  0.2810263E-009  0.1142537E+03  0.7561462E-02  0.1252889E+00
         -3   -1    0    0    0  501 -0.00000000000E+00  0.00000000000E+00  0.44203806961E+02  0.44203806961E+02  0.00000000000E+00 0.  1.
          3   -1    0    0  501    0  0.00000000000E+00 -0.00000000000E+00 -0.33411220819E+03  0.33411220819E+03  0.00000000000E+00 0. -1.
         25    2    1    2    0    0  0.48798463837E+02 -0.24175488858E+01 -0.14068946876E+03  0.19449676576E+03  0.12509328781E+03 0.  0.
          5    1    3    3  502    0  0.87551789467E+02  0.18656357697E+02 -0.87210790253E+02  0.12504627087E+03  0.41800000000E+01 0.  1.
         -5    1    3    3    0  502 -0.38753325630E+02 -0.21073906583E+02 -0.53478678502E+02  0.69450494889E+02  0.41800000000E+01 0.  1.
        -11    1    1    2    0    0 -0.58962173975E+02  0.29301144280E+02 -0.56540428850E+02  0.86786606746E+02  0.00000000000E+00 0.  1.
         11    1    1    2    0    0  0.10163710138E+02 -0.26883595394E+02 -0.92678503624E+02  0.97032642647E+02  0.00000000000E+00 0. -1.
</event>
<event>
 7    1  0.2810263E-009  0.9404541E+02  0.7561462E-02  0.1293341E+00
         -1   -1    0    0    0  501 -0.00000000000E+00  0.00000000000E+00  0.13268116541E+04  0.13268116541E+04  0.00000000000E+00 0.  1.
          1   -1    0    0  501    0  0.00000000000E+00 -0.00000000000E+00 -0.45511077625E+02  0.45511077625E+02  0.00000000000E+00 0. -1.
         25    2    1    2    0    0 -0.22308669283E+02 -0.63163781057E+02  0.12439327517E+04  0.12519998659E+04  0.12509050131E+03 0.  0.
          5    1    3    3  502    0  0.67870865622E+01 -0.75495353800E+01  0.10008380992E+04  0.10008983131E+04  0.41800000000E+01 0.  1.
         -5    1    3    3    0  502 -0.29095755845E+02 -0.55614245677E+02  0.24309465250E+03  0.25110155277E+03  0.41800000000E+01 0.  1.
        -11    1    1    2    0    0  0.52204754503E+02  0.99115831678E+01  0.14160606395E+02  0.54991805272E+02  0.00000000000E+00 0. -1.
         11    1    1    2    0    0 -0.29896085220E+02  0.53252197889E+02  0.23207218432E+02  0.65331060598E+02  0.00000000000E+00 0.  1.
</event>
<event>
 7    1  0.2810263E-009  0.1002735E+03  0.7561462E-02  0.1279722E+00
          1   -1    0    0  501    0  0.00000000000E+00  0.00000000000E+00  0.47085132545E+03  0.47085132545E+03  0.00000000000E+00 0. -1.
         -1   -1    0    0    0  501 -0.00000000000E+00 -0.00000000000E+00 -0.35050714117E+02  0.35050714117E+02  0.00000000000E+00 0.  1.
         25    2    1    2    0    0  0.60755624524E+01  0.64557017164E+02  0.18583347581E+03  0.23320926548E+03  0.12509180569E+03 0.  0.
          5    1    3    3  502    0 -0.32843841006E+02  0.53531316638E+01  0.14999754222E+03  0.15370136298E+03  0.41800000000E+01 0. -1.
         -5    1    3    3    0  502  0.38919403459E+02  0.59203885500E+02  0.35835933589E+02  0.79507902501E+02  0.41800000000E+01 0. -1.
        -11    1    1    2    0    0 -0.38464997042E+02 -0.31067470606E+02  0.63425115502E+02  0.80420700095E+02  0.00000000000E+00 0.  1.
         11    1    1    2    0    0  0.32389434589E+02 -0.33489546557E+02  0.18654202002E+03  0.19227207399E+03  0.00000000000E+00 0. -1.
</event>
<event>
 7    1  0.2810263E-009  0.1038821E+03  0.7561462E-02  0.1272338E+00
          3   -1    0    0  501    0  0.00000000000E+00  0.00000000000E+00  0.41528166789E+02  0.41528166789E+02  0.00000000000E+00 0. -1.
         -3   -1    0    0    0  501 -0.00000000000E+00 -0.00000000000E+00 -0.33206369060E+03  0.33206369060E+03  0.00000000000E+00 0.  1.
         25    2    1    2    0    0 -0.20493878157E+02 -0.33739071894E+02 -0.13512688807E+03  0.18832311768E+03  0.12509195322E+03 0.  0.
          5    1    3    3  502    0  0.46270119939E+02 -0.15532354651E+02 -0.98279425376E+02  0.10981118291E+03  0.41800000000E+01 0.  1.
         -5    1    3    3    0  502 -0.66763998096E+02 -0.18206717242E+02 -0.36847462689E+02  0.78511934769E+02  0.41800000000E+01 0.  1.
        -11    1    1    2    0    0 -0.46960468595E+01  0.55780678260E+02 -0.13480088113E+03  0.14596168838E+03  0.00000000000E+00 0.  1.
         11    1    1    2    0    0  0.25189925017E+02 -0.22041606366E+02 -0.20607754619E+02  0.39307051326E+02  0.00000000000E+00 0. -1.
</event>
<event>
 7    1  0.2810263E-009  0.1094869E+03  0.7561462E-02  0.1261523E+00
          1   -1    0    0  501    0  0.00000000000E+00  0.00000000000E+00  0.27612096058E+03  0.27612096058E+03  0.00000000000E+00 0. -1.
         -1   -1    0    0    0  501 -0.00000000000E+00 -0.00000000000E+00 -0.52567948499E+02  0.52567948499E+02  0.00000000000E+00 0.  1.
         25    2    1    2    0    0  0.46623890463E+02 -0.28145755270E+02  0.12540272737E+03  0.18530642448E+03  0.12508659488E+03 0.  0.
          5    1    3    3  502    0 -0.31981696900E+02 -0.13952714243E+02 -0.16406664081E+01  0.35180553686E+02  0.41800000000E+01 0. -1.
         -5    1    3    3    0  502  0.78605587364E+02 -0.14193041027E+02  0.12704339378E+03  0.15012587079E+03  0.41800000000E+01 0. -1.
        -11    1    1    2    0    0 -0.57425875276E+02 -0.15012682484E+02  0.64076275131E+02  0.87343464674E+02  0.00000000000E+00 0.  1.
         11    1    1    2    0    0  0.10801984813E+02  0.43158437754E+02  0.34074009574E+02  0.56039019921E+02  0.00000000000E+00 0. -1.
</event>
<event>
 7    1  0.2810263E-009  0.1582885E+03  0.7561462E-02  0.1190643E+00
         -2   -1    0    0    0  501 -0.00000000000E+00  0.00000000000E+00  0.33493867530E+02  0.33493867530E+02  0.00000000000E+00 0.  1.
          2   -1    0    0  501    0  0.00000000000E+00 -0.00000000000E+00 -0.90191775303E+03  0.90191775303E+03  0.00000000000E+00 0. -1.
         25    2    1    2    0    0  0.12342045332E+03  0.20214443509E+02 -0.50622388341E+03  0.53623748423E+03  0.12508711899E+03 0.  0.
          5    1    3    3  502    0  0.86410600667E+02 -0.25852787395E+02 -0.14967339600E+03  0.17479918877E+03  0.41800000000E+01 0. -1.
         -5    1    3    3    0  502  0.37009852656E+02  0.46067230904E+02 -0.35655048741E+03  0.36143829546E+03  0.41800000000E+01 0. -1.
        -11    1    1    2    0    0 -0.64250728184E+02  0.45414659276E+02 -0.15202383429E+03  0.17117795870E+03  0.00000000000E+00 0.  1.
         11    1    1    2    0    0 -0.59169725139E+02 -0.65629102785E+02 -0.21017616780E+03  0.22799617763E+03  0.00000000000E+00 0. -1.
</event>
<event>
 7    1  0.2810263E-009  0.1015849E+03  0.7561462E-02  0.1276998E+00
         -2   -1    0    0    0  501 -0.00000000000E+00  0.00000000000E+00  0.11039256149E+03  0.11039256149E+03  0.00000000000E+00 0.  1.
          2   -1    0    0  501    0  0.00000000000E+00 -0.00000000000E+00 -0.20293076713E+03  0.20293076713E+03  0.00000000000E+00 0. -1.
         25    2    1    2    0    0  0.14888237573E+02 -0.13010021348E+02  0.55011941574E+02  0.13807381207E+03  0.12508854300E+03 0.  0.
          5    1    3    3  502    0 -0.42560958094E+02 -0.25607402805E+02  0.61036652507E+02  0.78804311948E+02  0.41800000000E+01 0.  1.
         -5    1    3    3    0  502  0.57449195668E+02  0.12597381457E+02 -0.60247109327E+01  0.59269500118E+02  0.41800000000E+01 0.  1.
        -11    1    1    2    0    0  0.56523457467E+01  0.50926040820E+02 -0.85734509541E+02  0.99879010670E+02  0.00000000000E+00 0.  1.
         11    1    1    2    0    0 -0.20540583320E+02 -0.37916019472E+02 -0.61815637671E+02  0.75370505879E+02  0.00000000000E+00 0. -1.
</event>
<event>
 7    1  0.2810263E-009  0.1212565E+03  0.7561462E-02  0.1241039E+00
          2   -1    0    0  501    0  0.00000000000E+00  0.00000000000E+00  0.14618567271E+04  0.14618567271E+04  0.00000000000E+00 0. -1.
         -2   -1    0    0    0  501 -0.00000000000E+00 -0.00000000000E+00 -0.12369586845E+02  0.12369586845E+02  0.00000000000E+00 0.  1.
         25    2    1    2    0    0  0.23223726850E+02  0.74466396337E+02  0.89385432051E+03  0.90592887341E+03  0.12508793596E+03 0.  0.
          5    1    3    3  502    0  0.42197215640E+02 -0.47309830354E+01  0.11230491156E+03  0.12013680855E+03  0.41800000000E+01 0. -1.
         -5    1    3    3    0  502 -0.18973488790E+02  0.79197379373E+02  0.78154940895E+03  0.78579206486E+03  0.41800000000E+01 0. -1.
        -11    1    1    2    0    0  0.34008092774E+02 -0.20934258441E+02  0.22394969222E+03  0.22748243492E+03  0.00000000000E+00 0.  1.
         11    1    1    2    0    0 -0.57231819623E+02 -0.53532137896E+02  0.33168312752E+03  0.34081500560E+03  0.00000000000E+00 0. -1.
</event>
<event>
 7    1  0.2810263E-009  0.1232791E+03  0.7561462E-02  0.1237784E+00
          1   -1    0    0  501    0  0.00000000000E+00  0.00000000000E+00  0.32306577614E+03  0.32306577614E+03  0.00000000000E+00 0. -1.
         -1   -1    0    0    0  501 -0.00000000000E+00 -0.00000000000E+00 -0.51905989569E+02  0.51905989569E+02  0.00000000000E+00 0.  1.
         25    2    1    2    0    0 -0.65336067441E+02 -0.27576321774E+02  0.14868405162E+03  0.20684179224E+03  0.12508926645E+03 0.  0.
          5    1    3    3  502    0 -0.22242272874E+02 -0.68290527719E+02  0.12213568975E+03  0.14174947616E+03  0.41800000000E+01 0.  1.
         -5    1    3    3    0  502 -0.43093794566E+02  0.40714205944E+02  0.26548361862E+02  0.65092316085E+02  0.41800000000E+01 0.  1.
        -11    1    1    2    0    0  0.59304941851E+02 -0.23471041114E+02  0.68184994479E+02  0.93365729104E+02  0.00000000000E+00 0.  1.
         11    1    1    2    0    0  0.60311255893E+01  0.51047362888E+02  0.54290740471E+02  0.74764244359E+02  0.00000000000E+00 0. -1.
</event>
<event>
 7    1  0.2810263E-009  0.1012766E+03  0.7561462E-02  0.1277634E+00
          1   -1    0    0  501    0  0.00000000000E+00  0.00000000000E+00  0.37342393096E+03  0.37342393096E+03  0.00000000000E+00 0. -1.
         -1   -1    0    0    0  501 -0.00000000000E+00 -0.00000000000E+00 -0.33408628249E+02  0.33408628249E+02  0.00000000000E+00 0.  1.
         25    2    1    2    0    0 -0.18192009948E+02  0.16345311326E+02  0.17288517039E+03  0.21479232210E+03  0.12509332941E+03 0.  0.
          5    1    3    3  502    0 -0.49579828731E+02  0.57150264063E+02  0.10534438445E+03  0.12976603498E+03  0.41800000000E+01 0. -1.
         -5    1    3    3    0  502  0.31387818783E+02 -0.40804952737E+02  0.67540785942E+02  0.85026287121E+02  0.41800000000E+01 0. -1.
        -11    1    1    2    0    0  0.10545699799E+00  0.27603525910E+02  0.12661622217E+03  0.12959025226E+03  0.00000000000E+00 0. -1.
         11    1    1    2    0    0  0.18086552950E+02 -0.43948837237E+02  0.40513910148E+02  0.62449984848E+02  0.00000000000E+00 0.  1.
</event>
<event>
 7    1  0.2810263E-009  0.7325283E+02  0.7561462E-02  0.1349368E+00
         -2   -1    0    0    0  501 -0.00000000000E+00  0.00000000000E+00  0.16047625999E+03  0.16047625999E+03  0.00000000000E+00 0.  1.
          2   -1    0    0  501    0  0.00000000000E+00 -0.00000000000E+00 -0.97631647349E+02  0.97631647349E+02  0.00000000000E+00 0. -1.
         25    2    1    2    0    0  0.29534866149E+02 -0.51428811315E+02  0.22448745094E+02  0.14024652157E+03  0.12509160525E+03 0.  0.
          5    1    3    3  502    0  0.26955837120E+02 -0.60163570019E+02 -0.39849516145E+02  0.77147447458E+02  0.41800000000E+01 0. -1.
         -5    1    3    3    0  502  0.25790290293E+01  0.87347587044E+01  0.62298261239E+02  0.63099074112E+02  0.41800000000E+01 0. -1.
        -11    1    1    2    0    0 -0.36397972329E+02  0.27741870168E+02  0.67286272545E+02  0.81374850065E+02  0.00000000000E+00 0.  1.
         11    1    1    2    0    0  0.68631061801E+01  0.23686941147E+02 -0.26890404993E+02  0.36486535709E+02  0.00000000000E+00 0. -1.
</event>
<event>
 7    1  0.2810263E-009  0.1118356E+03  0.7561462E-02  0.1257208E+00
         -2   -1    0    0    0  501 -0.00000000000E+00  0.00000000000E+00  0.14517636479E+03  0.14517636479E+03  0.00000000000E+00 0. -1.
          2   -1    0    0  501    0  0.00000000000E+00 -0.00000000000E+00 -0.13930124324E+03  0.13930124324E+03  0.00000000000E+00 0.  1.
         25    2    1    2    0    0  0.24680700217E+02 -0.83067674400E+02 -0.25869643795E+02  0.15436008851E+03  0.12509365676E+03 0.  0.
          5    1    3    3  502    0  0.37287022769E+02 -0.47969580307E+02  0.43944051062E+02  0.75099631993E+02  0.41800000000E+01 0.  1.
         -5    1    3    3    0  502 -0.12606322552E+02 -0.35098094093E+02 -0.69813694857E+02  0.79260456514E+02  0.41800000000E+01 0.  1.
        -11    1    1    2    0    0 -0.14573225211E+02  0.10239828235E+03  0.20010413283E+02  0.10534801261E+03  0.00000000000E+00 0. -1.
         11    1    1    2    0    0 -0.10107475006E+02 -0.19330607947E+02  0.11734352059E+02  0.24769506915E+02  0.00000000000E+00 0.  1.
</event>
<event>
 7    1  0.2810263E-009  0.1036703E+03  0.7561462E-02  0.1272762E+00
         -1   -1    0    0    0  501 -0.00000000000E+00  0.00000000000E+00  0.35749494711E+02  0.35749494711E+02  0.00000000000E+00 0.  1.
          1   -1    0    0  501    0  0.00000000000E+00 -0.00000000000E+00 -0.36499606911E+03  0.36499606911E+03  0.00000000000E+00 0. -1.
         25    2    1    2    0    0  0.32847930531E+02  0.62963420628E+01 -0.16743801177E+03  0.21166059411E+03  0.12508432696E+03 0.  0.
          5    1    3    3  502    0  0.36314178815E+02  0.53527732102E+02 -0.41293099444E+02  0.76853953370E+02  0.41800000000E+01 0. -1.
         -5    1    3    3    0  502 -0.34662482836E+01 -0.47231390039E+02 -0.12614491233E+03  0.13480664074E+03  0.41800000000E+01 0. -1.
        -11    1    1    2    0    0 -0.18432791209E+02 -0.47700426322E+02 -0.10936189960E+03  0.12072747635E+03  0.00000000000E+00 0. -1.
         11    1    1    2    0    0 -0.14415139322E+02  0.41404084259E+02 -0.52446663036E+02  0.68357493361E+02  0.00000000000E+00 0.  1.
</event>
<event>
 7    1  0.3108160E-009  0.1288858E+03  0.7561462E-02  0.1229118E+00
         -1   -1    0    0    0  501 -0.00000000000E+00  0.00000000000E+00  0.12501896352E+03  0.12501896352E+03  0.00000000000E+00 0.  1.
          1   -1    0    0  501    0  0.00000000000E+00 -0.00000000000E+00 -0.18565224442E+03  0.18565224442E+03  0.00000000000E+00 0. -1.
         25    2    1    2    0    0  0.39558295271E+02  0.90929010861E+02  0.68027344240E+01  0.15977299784E+03  0.12509272522E+03 0.  0.
          5    1    3    3  502    0  0.32845837560E+02 -0.25376774517E+02  0.10932256662E+02  0.43125588294E+02  0.41800000000E+01 0.  1.
         -5    1    3    3    0  502  0.67124577109E+01  0.11630578538E+03 -0.41295222381E+01  0.11664740955E+03  0.41800000000E+01 0.  1.
        -11    1    1    2    0    0 -0.24290087681E+02 -0.45863545278E+02 -0.85487096208E+02  0.10000758353E+03  0.00000000000E+00 0. -1.
         11    1    1    2    0    0 -0.15268207591E+02 -0.45065465583E+02  0.18051080880E+02  0.50890626565E+02  0.00000000000E+00 0.  1.
</event>
<event>
 7    1  0.2810263E-009  0.1236746E+03  0.7561462E-02  0.1237155E+00
         -1   -1    0    0    0  501 -0.00000000000E+00  0.00000000000E+00  0.19910559247E+02  0.19910559247E+02  0.00000000000E+00 0.  1.
          1   -1    0    0  501    0  0.00000000000E+00 -0.00000000000E+00 -0.15430003746E+04  0.15430003746E+04  0.00000000000E+00 0. -1.
         25    2    1    2    0    0  0.57326387227E+02  0.55758244944E+02 -0.13064705358E+04  0.13148802714E+04  0.12509824316E+03 0.  0.
          5    1    3    3  502    0  0.83075296565E+02  0.38760205577E+01 -0.95718937911E+03  0.96080461506E+03  0.41800000000E+01 0.  1.
         -5    1    3    3    0  502 -0.25748909338E+02  0.51882224386E+02 -0.34928115673E+03  0.35407565630E+03  0.41800000000E+01 0.  1.
        -11    1    1    2    0    0 -0.55703144251E+02 -0.57791807471E+01 -0.53617832613E+02  0.77531356132E+02  0.00000000000E+00 0.  1.
         11    1    1    2    0    0 -0.16232429768E+01 -0.49979064197E+02 -0.16300144687E+03  0.17049930632E+03  0.00000000000E+00 0. -1.
</event>
<event>
 7    1  0.3019335E-009  0.1862748E+03  0.7561462E-02  0.1161865E+00
         -2   -1    0    0    0  501 -0.00000000000E+00  0.00000000000E+00  0.24403766905E+02  0.24403766905E+02  0.00000000000E+00 0.  1.
          2   -1    0    0  501    0  0.00000000000E+00 -0.00000000000E+00 -0.15545082376E+04  0.15545082376E+04  0.00000000000E+00 0. -1.
         25    2    1    2    0    0 -0.95969911088E+02  0.12900560686E+03 -0.87003452883E+03  0.89356627502E+03  0.12509171061E+03 0.  0.
          5    1    3    3  502    0  0.50040331621E+01  0.89584929512E+02 -0.49816993387E+03  0.50620278086E+03  0.41800000000E+01 0. -1.
         -5    1    3    3    0  502 -0.10097394425E+03  0.39420677346E+02 -0.37186459497E+03  0.38736349416E+03  0.41800000000E+01 0. -1.
        -11    1    1    2    0    0  0.85104861691E+02 -0.59356406052E+02 -0.27597702765E+03  0.29483782018E+03  0.00000000000E+00 0.  1.
         11    1    1    2    0    0  0.10865049397E+02 -0.69649200806E+02 -0.38409291419E+03  0.39050790927E+03  0.00000000000E+00 0. -1.
</event>
<event>
 7    1  0.2810263E-009  0.1046643E+03  0.7561462E-02  0.1270782E+00
         -1   -1    0    0    0  501 -0.00000000000E+00  0.00000000000E+00  0.39455423278E+03  0.39455423278E+03  0.00000000000E+00 0.  1.
          1   -1    0    0  501    0  0.00000000000E+00 -0.00000000000E+00 -0.32313197245E+02  0.32313197245E+02  0.00000000000E+00 0. -1.
         25    2    1    2    0    0 -0.25988907574E+01  0.16087042355E+02  0.26006235895E+03  0.28904878244E+03  0.12510483973E+03 0.  0.
          5    1    3    3  502    0  0.57002747718E+02 -0.12492521016E+02  0.14377762991E+03  0.15522517705E+03  0.41800000000E+01 0. -1.
         -5    1    3    3    0  502 -0.59601638475E+02  0.28579563371E+02  0.11628472903E+03  0.13382360538E+03  0.41800000000E+01 0. -1.
        -11    1    1    2    0    0  0.35944355889E+02  0.15051120442E+02  0.75510298614E+02  0.84972572891E+02  0.00000000000E+00 0.  1.
         11    1    1    2    0    0 -0.33345465132E+02 -0.31138162797E+02  0.26668377979E+02  0.52846074700E+02  0.00000000000E+00 0. -1.
</event>
<event>
 7    1  0.2977894E-009  0.1276370E+03  0.7561462E-02  0.1231005E+00
          1   -1    0    0  501    0  0.00000000000E+00  0.00000000000E+00  0.38591827402E+03  0.38591827402E+03  0.00000000000E+00 0. -1.
         -1   -1    0    0    0  501 -0.00000000000E+00 -0.00000000000E+00 -0.64006954195E+02  0.64006954195E+02  0.00000000000E+00 0.  1.
         25    2    1    2    0    0  0.66884433563E+02 -0.77640891088E+02  0.10293183817E+03  0.19168764710E+03  0.12509018875E+03 0.  0.
          5    1    3    3  502    0  0.22964276957E+02  0.16931518143E+02 -0.16390698954E+02  0.33168686061E+02  0.41800000000E+01 0.  1.
         -5    1    3    3    0  502  0.43920156605E+02 -0.94572409231E+02  0.11932253712E+03  0.15851896104E+03  0.41800000000E+01 0.  1.
        -11    1    1    2    0    0 -0.41315680166E+02  0.10434365015E+01  0.25449895995E+02  0.48536289449E+02  0.00000000000E+00 0.  1.
         11    1    1    2    0    0 -0.25568753396E+02  0.76597454587E+02  0.19352958566E+03  0.20970129167E+03  0.00000000000E+00 0. -1.
</event>
<event>
 7    1  0.2810263E-009  0.1161263E+03  0.7561462E-02  0.1249628E+00
         -2   -1    0    0    0  501 -0.00000000000E+00  0.00000000000E+00  0.78867120352E+02  0.78867120352E+02  0.00000000000E+00 0.  1.
          2   -1    0    0  501    0  0.00000000000E+00 -0.00000000000E+00 -0.28716671537E+03  0.28716671537E+03  0.00000000000E+00 0. -1.
         25    2    1    2    0    0  0.62027838010E+02  0.26324354102E+02 -0.21866940916E+02  0.14375941494E+03  0.12509269351E+03 0.  0.
          5    1    3    3  502    0  0.85577769358E+02 -0.21251248845E+02 -0.74329803127E+01  0.88588327572E+02  0.41800000000E+01 0.  1.
         -5    1    3    3    0  502 -0.23549931348E+02  0.47575602946E+02 -0.14433960603E+02  0.55171087364E+02  0.41800000000E+01 0.  1.
        -11    1    1    2    0    0 -0.21424639236E+02  0.19873103719E+02 -0.36843460430E+01  0.29453859231E+02  0.00000000000E+00 0.  1.
         11    1    1    2    0    0 -0.40603198774E+02 -0.46197457821E+02 -0.18274830806E+03  0.19282056155E+03  0.00000000000E+00 0. -1.
</event>
<event>
 7    1  0.2810263E-009  0.1406442E+03  0.7561462E-02  0.1212465E+00
          2   -1    0    0  501    0  0.00000000000E+00  0.00000000000E+00  0.13351496337E+04  0.13351496337E+04  0.00000000000E+00 0. -1.
         -2   -1    0    0    0  501 -0.00000000000E+00 -0.00000000000E+00 -0.23458519496E+02  0.23458519496E+02  0.00000000000E+00 0.  1.
         25    2    1    2    0    0 -0.11997339276E+03 -0.36550365139E+02  0.46290551027E+03  0.49563938487E+03  0.12508934499E+03 0.  0.
          5    1    3    3  502    0 -0.83072320122E+02 -0.30359989317E+02  0.44540567415E+03  0.45412159857E+03  0.41800000000E+01 0. -1.
         -5    1    3    3    0  502 -0.36901072639E+02 -0.61903758218E+01  0.17499836116E+02  0.41517786294E+02  0.41800000000E+01 0. -1.
        -11    1    1    2    0    0 -0.50566381800E+01 -0.17989122216E+02  0.78087781345E+02  0.80292463551E+02  0.00000000000E+00 0.  1.
         11    1    1    2    0    0  0.12503003094E+03  0.54539487355E+02  0.77069782262E+03  0.78267630480E+03  0.00000000000E+00 0. -1.
</event>
<event>
 7    1  0.2810263E-009  0.1076559E+03  0.7561462E-02  0.1264973E+00
          1   -1    0    0  501    0  0.00000000000E+00  0.00000000000E+00  0.87387738385E+03  0.87387738385E+03  0.00000000000E+00 0. -1.
         -1   -1    0    0    0  501 -0.00000000000E+00 -0.00000000000E+00 -0.15792763449E+02  0.15792763449E+02  0.00000000000E+00 0.  1.
         25    2    1    2    0    0  0.33023079670E+02  0.33104636685E+02  0.47063995145E+03  0.48921936493E+03  0.12508869799E+03 0.  0.
          5    1    3    3  502    0 -0.36873031581E+02  0.22679296615E+02  0.70276241032E+02  0.82644984158E+02  0.41800000000E+01 0.  1.
         -5    1    3    3    0  502  0.69896111252E+02  0.10425340069E+02  0.40036371042E+03  0.40657438077E+03  0.41800000000E+01 0.  1.
        -11    1    1    2    0    0 -0.83079321252E+01  0.31121275156E+02  0.13557933175E+03  0.13935318691E+03  0.00000000000E+00 0.  1.
         11    1    1    2    0    0 -0.24715147545E+02 -0.64225911840E+02  0.25186533721E+03  0.26109759546E+03  0.00000000000E+00 0. -1.
</event>
<event>
 7    1  0.2810263E-009  0.1272455E+03  0.7561462E-02  0.1231601E+00
         -1   -1    0    0    0  501 -0.00000000000E+00  0.00000000000E+00  0.38109526695E+02  0.38109526695E+02  0.00000000000E+00 0.  1.
          1   -1    0    0  501    0  0.00000000000E+00 -0.00000000000E+00 -0.50722386957E+03  0.50722386957E+03  0.00000000000E+00 0. -1.
         25    2    1    2    0    0 -0.74760783216E+02 -0.12476623497E+02 -0.17148555986E+03  0.22538642911E+03  0.12508758670E+03 0.  0.
          5    1    3    3  502    0 -0.23135416263E+02  0.50998095401E+02 -0.34907072284E+02  0.66121322701E+02  0.41800000000E+01 0.  1.
         -5    1    3    3    0  502 -0.51625366953E+02 -0.63474718898E+02 -0.13657848758E+03  0.15926510641E+03  0.41800000000E+01 0.  1.
        -11    1    1    2    0    0  0.95127009940E+02  0.73630615772E+01 -0.25839081061E+03  0.27544359442E+03  0.00000000000E+00 0.  1.
         11    1    1    2    0    0 -0.20366226724E+02  0.51135619195E+01 -0.39237972406E+02  0.44503372737E+02  0.00000000000E+00 0. -1.
</event>
<event>
 7    1  0.2810263E-009  0.9974569E+02  0.7561462E-02  0.1280832E+00
         -1   -1    0    0    0  501 -0.00000000000E+00  0.00000000000E+00  0.30580312383E+02  0.30580312383E+02  0.00000000000E+00 0.  1.
          1   -1    0    0  501    0  0.00000000000E+00 -0.00000000000E+00 -0.52800265409E+03  0.52800265409E+03  0.00000000000E+00 0. -1.
         25    2    1    2    0    0 -0.42902045131E+02 -0.45019197883E+02 -0.31917722296E+03  0.34840844159E+03  0.12508808442E+03 0.  0.
          5    1    3    3  502    0 -0.65780400827E+02 -0.38898528385E+02 -0.31479264381E+03  0.32396301894E+03  0.41800000000E+01 0. -1.
         -5    1    3    3    0  502  0.22878355696E+02 -0.61206694974E+01 -0.43845791496E+01  0.24445422655E+02  0.41800000000E+01 0. -1.
        -11    1    1    2    0    0  0.22438317723E+02 -0.20422471691E+02 -0.10731383083E+03  0.11152046332E+03  0.00000000000E+00 0. -1.
         11    1    1    2    0    0  0.20463727408E+02  0.65441669574E+02 -0.70931287915E+02  0.98654061555E+02  0.00000000000E+00 0.  1.
</event>
<event>
 7    1  0.2810263E-009  0.1149686E+03  0.7561462E-02  0.1251636E+00
         -2   -1    0    0    0  501 -0.00000000000E+00  0.00000000000E+00  0.12659504397E+03  0.12659504397E+03  0.00000000000E+00 0. -1.
          2   -1    0    0  501    0  0.00000000000E+00 -0.00000000000E+00 -0.14853439276E+03  0.14853439276E+03  0.00000000000E+00 0.  1.
         25    2    1    2    0    0 -0.79474864279E+02 -0.23660195231E+02 -0.28309647178E+02  0.15272352927E+03  0.12508789461E+03 0.  0.
          5    1    3    3  502    0 -0.77106504637E+02 -0.67630175581E+02 -0.51069982457E+01  0.10277552013E+03  0.41800000000E+01 0. -1.
         -5    1    3    3    0  502 -0.23683596421E+01  0.43969980350E+02 -0.23202648932E+02  0.49948009138E+02  0.41800000000E+01 0. -1.
        -11    1    1    2    0    0  0.51445613346E+02  0.12944432024E+02 -0.40507492124E+02  0.66746283575E+02  0.00000000000E+00 0.  1.
         11    1    1    2    0    0  0.28029250933E+02  0.10715763207E+02  0.46877790510E+02  0.55659623895E+02  0.00000000000E+00 0. -1.
</event>
<event>
 7    1  0.2810263E-009  0.1741278E+03  0.7561462E-02  0.1173610E+00
          1   -1    0    0  501    0  0.00000000000E+00  0.00000000000E+00  0.46778537451E+02  0.46778537451E+02  0.00000000000E+00 0. -1.
         -1   -1    0    0    0  501 -0.00000000000E+00 -0.00000000000E+00 -0.80591599486E+03  0.80591599486E+03  0.00000000000E+00 0.  1.
         25    2    1    2    0    0  0.12786566435E+02 -0.16089868575E+03 -0.37201023456E+03  0.42437024803E+03  0.12508640788E+03 0.  0.
          5    1    3    3  502    0 -0.15727667273E+02 -0.13664151431E+03 -0.16920538877E+03  0.21809676508E+03  0.41800000000E+01 0. -1.
         -5    1    3    3    0  502  0.28514233707E+02 -0.24257171442E+02 -0.20280484580E+03  0.20627348295E+03  0.41800000000E+01 0. -1.
        -11    1    1    2    0    0  0.23883351743E+02  0.90554448564E+02 -0.27842980270E+03  0.29375785551E+03  0.00000000000E+00 0.  1.
         11    1    1    2    0    0 -0.36669918178E+02  0.70344237186E+02 -0.10869742015E+03  0.13456642877E+03  0.00000000000E+00 0. -1.
</event>
<event>
 7    1  0.2810263E-009  0.2666769E+03  0.7561462E-02  0.1103197E+00
         -1   -1    0    0    0  501 -0.00000000000E+00  0.00000000000E+00  0.80417393297E+02  0.80417393297E+02  0.00000000000E+00 0.  1.
          1   -1    0    0  501    0  0.00000000000E+00 -0.00000000000E+00 -0.11951082345E+04  0.11951082345E+04  0.00000000000E+00 0. -1.
         25    2    1    2    0    0 -0.14613671272E+03 -0.20463294164E+03 -0.83408424977E+03  0.88010050337E+03  0.12509908356E+03 0.  0.
          5    1    3    3  502    0 -0.10122118124E+03 -0.39689968178E+02 -0.28793688537E+03  0.30780861499E+03  0.41800000000E+01 0.  1.
         -5    1    3    3    0  502 -0.44915531475E+02 -0.16494297346E+03 -0.54614736440E+03  0.57229188838E+03  0.41800000000E+01 0.  1.
        -11    1    1    2    0    0  0.26739037969E+02  0.18881641190E+02 -0.11455995175E+03  0.11914476518E+03  0.00000000000E+00 0. -1.
         11    1    1    2    0    0  0.11939767475E+03  0.18575130045E+03 -0.16604663968E+03  0.27628035924E+03  0.00000000000E+00 0.  1.
</event>
<event>
 7    1  0.2810263E-009  0.1411522E+03  0.7561462E-02  0.1211787E+00
          1   -1    0    0  501    0  0.00000000000E+00  0.00000000000E+00  0.13163341051E+03  0.13163341051E+03  0.00000000000E+00 0. -1.
         -1   -1    0    0    0  501 -0.00000000000E+00 -0.00000000000E+00 -0.16600517890E+03  0.16600517890E+03  0.00000000000E+00 0.  1.
         25    2    1    2    0    0 -0.29648850515E+02 -0.90438559073E+02 -0.41739306825E+02  0.16262515918E+03  0.12508631165E+03 0.  0.
          5    1    3    3  502    0  0.32102403259E+02 -0.79066415641E+02  0.28755132874E+01  0.85485690931E+02  0.41800000000E+01 0. -1.
         -5    1    3    3    0  502 -0.61751253774E+02 -0.11372143432E+02 -0.44614820112E+02  0.77139468254E+02  0.41800000000E+01 0. -1.
        -11    1    1    2    0    0 -0.31733660435E+02  0.53774280250E+02  0.11094408857E+02  0.63417539600E+02  0.00000000000E+00 0. -1.
         11    1    1    2    0    0  0.61382510950E+02  0.36664278823E+02 -0.37268704195E+01  0.71595890631E+02  0.00000000000E+00 0.  1.
</event>
<event>
 7    1  0.2810263E-009  0.1066385E+03  0.7561462E-02  0.1266925E+00
         -1   -1    0    0    0  501 -0.00000000000E+00  0.00000000000E+00  0.21587403961E+02  0.21587403961E+02  0.00000000000E+00 0.  1.
          1   -1    0    0  501    0  0.00000000000E+00 -0.00000000000E+00 -0.76983204565E+03  0.76983204565E+03  0.00000000000E+00 0. -1.
         25    2    1    2    0    0  0.10773852535E+02 -0.36749920537E+02 -0.61280090397E+03  0.62660947987E+03  0.12509140575E+03 0.  0.
          5    1    3    3  502    0 -0.30862812159E+02  0.28681572722E+02 -0.35059537658E+03  0.35314265711E+03  0.41800000000E+01 0.  1.
         -5    1    3    3    0  502  0.41636664694E+02 -0.65431493259E+02 -0.26220552739E+03  0.27346682276E+03  0.41800000000E+01 0.  1.
        -11    1    1    2    0    0 -0.41875633660E+02 -0.39328814196E+01 -0.70660663441E+02  0.82231171757E+02  0.00000000000E+00 0.  1.
         11    1    1    2    0    0  0.31101781125E+02  0.40682801957E+02 -0.64783074277E+02  0.82578797987E+02  0.00000000000E+00 0. -1.
</event>
<event>
 7    1  0.2810263E-009  0.1236082E+03  0.7561462E-02  0.1237261E+00
          2   -1    0    0  501    0  0.00000000000E+00  0.00000000000E+00  0.25212305332E+03  0.25212305332E+03  0.00000000000E+00 0.  1.
         -2   -1    0    0    0  501 -0.00000000000E+00 -0.00000000000E+00 -0.10650580955E+03  0.10650580955E+03  0.00000000000E+00 0. -1.
         25    2    1    2    0    0  0.73792637234E+02  0.71646602649E+02  0.14933224801E+03  0.22028854108E+03  0.12509329341E+03 0.  0.
          5    1    3    3  502    0  0.42398191711E+02  0.18154055974E+01  0.13591287107E+03  0.14244536945E+03  0.41800000000E+01 0. -1.
         -5    1    3    3    0  502  0.31394445523E+02  0.69831197051E+02  0.13419376944E+02  0.77843171626E+02  0.41800000000E+01 0. -1.
        -11    1    1    2    0    0 -0.41995012109E+02  0.74469602270E+01  0.23702201284E+02  0.48793776287E+02  0.00000000000E+00 0.  1.
         11    1    1    2    0    0 -0.31797625125E+02 -0.79093562876E+02 -0.27417205518E+02  0.89546545497E+02  0.00000000000E+00 0. -1.
</event>
<event>
 7    1  0.2810263E-009  0.1812959E+03  0.7561462E-02  0.1166555E+00
         -1   -1    0    0    0  501 -0.00000000000E+00  0.00000000000E+00  0.27909084881E+02  0.27909084881E+02  0.00000000000E+00 0.  1.
          1   -1    0    0  501    0  0.00000000000E+00 -0.00000000000E+00 -0.13110033443E+04  0.13110033443E+04  0.00000000000E+00 0. -1.
         25    2    1    2    0    0  0.67646964561E+02 -0.14066137852E+03 -0.59324136346E+03  0.62605475793E+03  0.12509000517E+03 0.  0.
          5    1    3    3  502    0  0.25985981636E+02  0.16055779862E+02 -0.17038759521E+03  0.17315445218E+03  0.41800000000E+01 0.  1.
         -5    1    3    3    0  502  0.41660982925E+02 -0.15671715838E+03 -0.42285376824E+03  0.45290030575E+03  0.41800000000E+01 0.  1.
        -11    1    1    2    0    0 -0.66816120103E+02  0.62847911775E+02 -0.48755151536E+03  0.49610556745E+03  0.00000000000E+00 0. -1.
         11    1    1    2    0    0 -0.83084445790E+00  0.77813466749E+02 -0.20230138063E+03  0.21675210383E+03  0.00000000000E+00 0.  1.
</event>
<event>
 7    1  0.2825510E-009  0.1200631E+03  0.7561462E-02  0.1242993E+00
          2   -1    0    0  501    0  0.00000000000E+00  0.00000000000E+00  0.86138059187E+03  0.86138059187E+03  0.00000000000E+00 0. -1.
         -2   -1    0    0    0  501 -0.00000000000E+00 -0.00000000000E+00 -0.22092771011E+02  0.22092771011E+02  0.00000000000E+00 0.  1.
         25    2    1    2    0    0 -0.54904763766E+02  0.64572144584E+02  0.49346056451E+03  0.51608026144E+03  0.12510560573E+03 0.  0.
          5    1    3    3  502    0 -0.39987862755E+02  0.92770227194E+02  0.23778431841E+03  0.25838769069E+03  0.41800000000E+01 0. -1.
         -5    1    3    3    0  502 -0.14916901012E+02 -0.28198082609E+02  0.25567624610E+03  0.25769257075E+03  0.41800000000E+01 0. -1.
        -11    1    1    2    0    0 -0.72427283706E+01  0.83364690310E+01  0.30168296336E+01  0.11447929559E+02  0.00000000000E+00 0.  1.
         11    1    1    2    0    0  0.62147492137E+02 -0.72908613615E+02  0.34281042672E+03  0.35594517188E+03  0.00000000000E+00 0. -1.
</event>
<event>
 7    1  0.2810263E-009  0.1251725E+03  0.7561462E-02  0.1234800E+00
         -2   -1    0    0    0  501 -0.00000000000E+00  0.00000000000E+00  0.14327387489E+02  0.14327387489E+02  0.00000000000E+00 0.  1.
          2   -1    0    0  501    0  0.00000000000E+00 -0.00000000000E+00 -0.17440280664E+04  0.17440280664E+04  0.00000000000E+00 0. -1.
         25    2    1    2    0    0  0.34787023436E+02 -0.94562995574E+02 -0.12291404857E+04  0.12395909773E+04  0.12508860980E+03 0.  0.
          5    1    3    3  502    0  0.44892379134E+02 -0.23780220776E+02 -0.95139074566E+03  0.95275529278E+03  0.41800000000E+01 0.  1.
         -5    1    3    3    0  502 -0.10105355698E+02 -0.70782774798E+02 -0.27774974003E+03  0.28683568451E+03  0.41800000000E+01 0.  1.
        -11    1    1    2    0    0  0.23209504591E+02  0.48205481696E+02 -0.12553995251E+03  0.13646512098E+03  0.00000000000E+00 0.  1.
         11    1    1    2    0    0 -0.57996528026E+02  0.46357513878E+02 -0.37502024076E+03  0.38229935566E+03  0.00000000000E+00 0. -1.
</event>
<event>
 7    1  0.2810263E-009  0.3662522E+03  0.7561462E-02  0.1056135E+00
         -2   -1    0    0    0  501 -0.00000000000E+00  0.00000000000E+00  0.89466588409E+02  0.89466588409E+02  0.00000000000E+00 0.  1.
          2   -1    0    0  501    0  0.00000000000E+00 -0.00000000000E+00 -0.18303371799E+04  0.18303371799E+04  0.00000000000E+00 0. -1.
         25    2    1    2    0    0 -0.25032310536E+03 -0.25998060367E+03 -0.12299176581E+04  0.12878649672E+04  0.12508859502E+03 0.  0.
          5    1    3    3  502    0 -0.94752465171E+02 -0.89096318443E+02 -0.66286167798E+03  0.67551407103E+03  0.41800000000E+01 0. -1.
         -5    1    3    3    0  502 -0.15557064019E+03 -0.17088428522E+03 -0.56705598013E+03  0.61235089616E+03  0.41800000000E+01 0. -1.
        -11    1    1    2    0    0  0.69143792701E+02  0.22851251678E+02 -0.11507630710E+03  0.13618223169E+03  0.00000000000E+00 0. -1.
         11    1    1    2    0    0  0.18117931266E+03  0.23712935199E+03 -0.39587662629E+03  0.49575656945E+03  0.00000000000E+00 0.  1.
</event>
<event>
 7    1  0.2810263E-009  0.1187334E+03  0.7561462E-02  0.1245201E+00
         -1   -1    0    0    0  501 -0.00000000000E+00  0.00000000000E+00  0.15892699899E+03  0.15892699899E+03  0.00000000000E+00 0.  1.
          1   -1    0    0  501    0  0.00000000000E+00 -0.00000000000E+00 -0.95261112092E+02  0.95261112092E+02  0.00000000000E+00 0. -1.
         25    2    1    2    0    0  0.39907434201E+02 -0.42441323358E+02  0.38149584549E+02  0.14316388296E+03  0.12508651946E+03 0.  0.
          5    1    3    3  502    0  0.58513407003E+01 -0.81485562589E+02  0.59460341857E+01  0.82018063992E+02  0.41800000000E+01 0.  1.
         -5    1    3    3    0  502  0.34056093501E+02  0.39044239231E+02  0.32203550363E+02  0.61145818971E+02  0.41800000000E+01 0.  1.
        -11    1    1    2    0    0  0.92789111671E+01  0.52641769153E+02  0.28736769833E+02  0.60688186597E+02  0.00000000000E+00 0. -1.
         11    1    1    2    0    0 -0.49186345369E+02 -0.10200445795E+02 -0.32204674850E+01  0.50336041521E+02  0.00000000000E+00 0.  1.
</event>
<event>
 7    1  0.2810263E-009  0.4529495E+02  0.7561462E-02  0.1472509E+00
          1   -1    0    0  501    0  0.00000000000E+00  0.00000000000E+00  0.14286079525E+03  0.14286079525E+03  0.00000000000E+00 0. -1.
         -1   -1    0    0    0  501 -0.00000000000E+00 -0.00000000000E+00 -0.81227986389E+02  0.81227986389E+02  0.00000000000E+00 0.  1.
         25    2    1    2    0    0  0.21002575355E+02  0.18317433080E+02  0.44112558291E+02  0.13553578190E+03  0.12508954332E+03 0.  0.
          5    1    3    3  502    0  0.22637933600E+02 -0.13985273374E+01  0.85991632990E+02  0.89030698417E+02  0.41800000000E+01 0.  1.
         -5    1    3    3    0  502 -0.16353582452E+01  0.19715960417E+02 -0.41879074699E+02  0.46505083479E+02  0.41800000000E+01 0.  1.
        -11    1    1    2    0    0 -0.26032071852E+02  0.22536254541E+01  0.46095369840E+02  0.52986136992E+02  0.00000000000E+00 0. -1.
         11    1    1    2    0    0  0.50294964974E+01 -0.20571058534E+02 -0.28575119273E+02  0.35566862747E+02  0.00000000000E+00 0.  1.
</event>
<event>
 7    1  0.2810263E-009  0.1371396E+03  0.7561462E-02  0.1217230E+00
          2   -1    0    0  501    0  0.00000000000E+00  0.00000000000E+00  0.26860474082E+03  0.26860474082E+03  0.00000000000E+00 0. -1.
         -2   -1    0    0    0  501 -0.00000000000E+00 -0.00000000000E+00 -0.11877337001E+03  0.11877337001E+03  0.00000000000E+00 0.  1.
         25    2    1    2    0    0  0.11096708525E+03 -0.16830641366E+02 -0.14587801084E+02  0.16869099902E+03  0.12508750822E+03 0.  0.
          5    1    3    3  502    0 -0.69012121629E+01 -0.35280506134E+02 -0.31678329237E+02  0.48097087080E+02  0.41800000000E+01 0.  1.
         -5    1    3    3    0  502  0.11786829741E+03  0.18449864768E+02  0.17090528153E+02  0.12059391194E+03  0.41800000000E+01 0.  1.
        -11    1    1    2    0    0 -0.40116004708E+02  0.25189350220E+02  0.13215569978E+03  0.14038848309E+03  0.00000000000E+00 0. -1.
         11    1    1    2    0    0 -0.70851080543E+02 -0.83587088541E+01  0.32263472105E+02  0.78298628724E+02  0.00000000000E+00 0.  1.
</event>
<event>
 7    1  0.2810263E-009  0.9368044E+02  0.7561462E-02  0.1294176E+00
          1   -1    0    0  501    0  0.00000000000E+00  0.00000000000E+00  0.23163102284E+03  0.23163102284E+03  0.00000000000E+00 0. -1.
         -1   -1    0    0    0  501 -0.00000000000E+00 -0.00000000000E+00 -0.75664354625E+02  0.75664354625E+02  0.00000000000E+00 0.  1.
         25    2    1    2    0    0  0.40714862466E+02 -0.50183940883E+01  0.16020399704E+03  0.20735629814E+03  0.12509368251E+03 0.  0.
          5    1    3    3  502    0  0.70633210001E+02 -0.43245502194E+02  0.10090886110E+03  0.13061123407E+03  0.41800000000E+01 0. -1.
         -5    1    3    3    0  502 -0.29918347535E+02  0.38227108106E+02  0.59295135935E+02  0.76745064069E+02  0.41800000000E+01 0. -1.
        -11    1    1    2    0    0 -0.35457634220E+02  0.19387452132E+02  0.37719155415E+02  0.55279759496E+02  0.00000000000E+00 0. -1.
         11    1    1    2    0    0 -0.52572282457E+01 -0.14369058044E+02 -0.41956484241E+02  0.44659319831E+02  0.00000000000E+00 0.  1.
</event>
<event>
 7    1  0.2810263E-009  0.1598206E+03  0.7561462E-02  0.1188899E+00
          1   -1    0    0  501    0  0.00000000000E+00  0.00000000000E+00  0.36451013569E+02  0.36451013569E+02  0.00000000000E+00 0. -1.
         -1   -1    0    0    0  501 -0.00000000000E+00 -0.00000000000E+00 -0.92733974222E+03  0.92733974222E+03  0.00000000000E+00 0.  1.
         25    2    1    2    0    0 -0.11460504071E+03  0.69869564435E+02 -0.33617044711E+03  0.38298060299E+03  0.12508997307E+03 0.  0.
          5    1    3    3  502    0 -0.19083967803E+02  0.73143453464E+02 -0.83021346248E+02  0.11235737156E+03  0.41800000000E+01 0. -1.
         -5    1    3    3    0  502 -0.95521072910E+02 -0.32738890288E+01 -0.25314910086E+03  0.27062323142E+03  0.41800000000E+01 0. -1.
        -11    1    1    2    0    0  0.38992931231E+02 -0.60635885148E+02 -0.12421264227E+03  0.14361733792E+03  0.00000000000E+00 0. -1.
         11    1    1    2    0    0  0.75612109482E+02 -0.92336792867E+01 -0.43050563927E+03  0.43719281487E+03  0.00000000000E+00 0.  1.
</event>
<event>
 7    1  0.2810263E-009  0.1362201E+03  0.7561462E-02  0.1218508E+00
          1   -1    0    0  501    0  0.00000000000E+00  0.00000000000E+00  0.10643517473E+03  0.10643517473E+03  0.00000000000E+00 0. -1.
         -1   -1    0    0    0  501 -0.00000000000E+00 -0.00000000000E+00 -0.18679471245E+03  0.18679471245E+03  0.00000000000E+00 0.  1.
         25    2    1    2    0    0 -0.45082573413E+02 -0.68487844651E+02 -0.66618849541E+01  0.14971538593E+03  0.12508913934E+03 0.  0.
          5    1    3    3  502    0 -0.72158844599E+02 -0.89391160274E+02 -0.79387038352E+01  0.11523095855E+03  0.41800000000E+01 0.  1.
         -5    1    3    3    0  502  0.27076271186E+02  0.20903315622E+02  0.12768188811E+01  0.34484427381E+02  0.41800000000E+01 0.  1.
        -11    1    1    2    0    0 -0.20953468112E+02 -0.75864683848E+01 -0.10911978763E+02  0.24812771087E+02  0.00000000000E+00 0.  1.
         11    1    1    2    0    0  0.66036041525E+02  0.76074313036E+02 -0.62785674008E+02  0.11870173017E+03  0.00000000000E+00 0. -1.
</event>
<event>
 7    1  0.2810263E-009  0.1027887E+03  0.7561462E-02  0.1274539E+00
         -4   -1    0    0    0  501 -0.00000000000E+00  0.00000000000E+00  0.45355620670E+02  0.45355620670E+02  0.00000000000E+00 0.  1.
          4   -1    0    0  501    0  0.00000000000E+00 -0.00000000000E+00 -0.30288665709E+03  0.30288665709E+03  0.00000000000E+00 0. -1.
         25    2    1    2    0    0  0.44352938858E+02  0.57871708813E+01 -0.14258706758E+03  0.19488394428E+03  0.12509198762E+03 0.  0.
          5    1    3    3  502    0  0.13551567684E+02  0.62697904988E+02 -0.48100411852E+02  0.80285704187E+02  0.41800000000E+01 0.  1.
         -5    1    3    3    0  502  0.30801371174E+02 -0.56910734106E+02 -0.94486655728E+02  0.11459824010E+03  0.41800000000E+01 0.  1.
        -11    1    1    2    0    0 -0.31835583819E+01 -0.29008536762E+02 -0.99409204632E+02  0.10360415153E+03  0.00000000000E+00 0. -1.
         11    1    1    2    0    0 -0.41169380476E+02  0.23221365881E+02 -0.15534764212E+02  0.49754181948E+02  0.00000000000E+00 0.  1.
</event>
<event>
 7    1  0.2810263E-009  0.1190532E+03  0.7561462E-02  0.1244667E+00
          1   -1    0    0  501    0  0.00000000000E+00  0.00000000000E+00  0.55857979955E+03  0.55857979955E+03  0.00000000000E+00 0. -1.
         -1   -1    0    0    0  501 -0.00000000000E+00 -0.00000000000E+00 -0.26853869847E+02  0.26853869847E+02  0.00000000000E+00 0.  1.
         25    2    1    2    0    0 -0.45606050245E+02  0.24953042761E+02  0.34429425089E+03  0.36997794253E+03  0.12507030264E+03 0.  0.
          5    1    3    3  502    0 -0.26090554592E+02 -0.50308544913E+02  0.16483708812E+03  0.17435711844E+03  0.41800000000E+01 0. -1.
         -5    1    3    3    0  502 -0.19515495654E+02  0.75261587674E+02  0.17945716277E+03  0.19562082409E+03  0.41800000000E+01 0. -1.
        -11    1    1    2    0    0  0.15415520480E+02  0.33918181788E+02  0.45101642344E+02  0.58499909997E+02  0.00000000000E+00 0.  1.
         11    1    1    2    0    0  0.30190529765E+02 -0.58871224549E+02  0.14233003647E+03  0.15695581687E+03  0.00000000000E+00 0. -1.
</event>
<event>
 7    1  0.2810263E-009  0.1868201E+03  0.7561462E-02  0.1161361E+00
         -1   -1    0    0    0  501 -0.00000000000E+00  0.00000000000E+00  0.48958250954E+03  0.48958250954E+03  0.00000000000E+00 0.  1.
          1   -1    0    0  501    0  0.00000000000E+00 -0.00000000000E+00 -0.73440883636E+02  0.73440883636E+02  0.00000000000E+00 0. -1.
         25    2    1    2    0    0 -0.92155337531E+02  0.12265257680E+03  0.25365479377E+03  0.32175195881E+03  0.12508919923E+03 0.  0.
          5    1    3    3  502    0 -0.73587829984E+02  0.14841163882E+03  0.20686241313E+03  0.26504851183E+03  0.41800000000E+01 0.  1.
         -5    1    3    3    0  502 -0.18567507546E+02 -0.25759062022E+02  0.46792380639E+02  0.56703446973E+02  0.41800000000E+01 0.  1.
        -11    1    1    2    0    0  0.14244651951E+02 -0.90512730159E+02  0.10444229937E+03  0.13893760588E+03  0.00000000000E+00 0. -1.
         11    1    1    2    0    0  0.77910685579E+02 -0.32139846639E+02  0.58044532766E+02  0.10233382849E+03  0.00000000000E+00 0.  1.
</event>
<event>
 7    1  0.2810263E-009  0.2338975E+03  0.7561462E-02  0.1123926E+00
          3   -1    0    0  501    0  0.00000000000E+00  0.00000000000E+00  0.13273524357E+03  0.13273524357E+03  0.00000000000E+00 0. -1.
         -3   -1    0    0    0  501 -0.00000000000E+00 -0.00000000000E+00 -0.46407647304E+03  0.46407647304E+03  0.00000000000E+00 0.  1.
         25    2    1    2    0    0 -0.21909177186E+03  0.84603740776E+01 -0.20607141542E+03  0.32586220840E+03  0.12509183900E+03 0.  0.
          5    1    3    3  502    0 -0.16787283822E+03  0.37137840526E+02 -0.20421110570E+03  0.26698343975E+03  0.41800000000E+01 0. -1.
         -5    1    3    3    0  502 -0.51218933642E+02 -0.28677466449E+02 -0.18603097198E+01  0.58878768649E+02  0.41800000000E+01 0. -1.
        -11    1    1    2    0    0  0.15589418964E+03  0.35619075121E+02 -0.62971732388E+02  0.17186377150E+03  0.00000000000E+00 0.  1.
         11    1    1    2    0    0  0.63197582219E+02 -0.44079449199E+02 -0.62298081667E+02  0.99085736710E+02  0.00000000000E+00 0. -1.
</event>
<event>
 7    1  0.2810263E-009  0.1852231E+03  0.7561462E-02  0.1162842E+00
          1   -1    0    0  501    0  0.00000000000E+00  0.00000000000E+00  0.84320331702E+03  0.84320331702E+03  0.00000000000E+00 0.  1.
         -1   -1    0    0    0  501 -0.00000000000E+00 -0.00000000000E+00 -0.46156208823E+02  0.46156208823E+02  0.00000000000E+00 0. -1.
         25    2    1    2    0    0 -0.91629826433E+02 -0.12158014434E+03  0.27541358746E+03  0.33864024497E+03  0.12508722864E+03 0.  0.
          5    1    3    3  502    0  0.25260805009E+02 -0.54404288616E+02  0.10841880335E+03  0.12397598238E+03  0.41800000000E+01 0.  1.
         -5    1    3    3    0  502 -0.11689063144E+03 -0.67175855720E+02  0.16699478411E+03  0.21466426259E+03  0.41800000000E+01 0.  1.
        -11    1    1    2    0    0  0.41159917141E+02 -0.27495248769E+01  0.97545186213E+02  0.10590921593E+03  0.00000000000E+00 0. -1.
         11    1    1    2    0    0  0.50469909293E+02  0.12432966921E+03  0.42408833453E+03  0.44481006494E+03  0.00000000000E+00 0.  1.
</event>
<event>
 7    1  0.2810263E-009  0.1114280E+03  0.7561462E-02  0.1257948E+00
         -2   -1    0    0    0  501 -0.00000000000E+00  0.00000000000E+00  0.13159937634E+02  0.13159937634E+02  0.00000000000E+00 0.  1.
          2   -1    0    0  501    0  0.00000000000E+00 -0.00000000000E+00 -0.16750144237E+04  0.16750144237E+04  0.00000000000E+00 0. -1.
         25    2    1    2    0    0 -0.69391381304E+02 -0.11636687151E+02 -0.13008470847E+04  0.13087393271E+04  0.12507962337E+03 0.  0.
          5    1    3    3  502    0  0.24978345868E+02 -0.36558984943E+02 -0.32854378270E+03  0.33154029422E+03  0.41800000000E+01 0. -1.
         -5    1    3    3    0  502 -0.94369727171E+02  0.24922297792E+02 -0.97230330203E+03  0.97719903289E+03  0.41800000000E+01 0. -1.
        -11    1    1    2    0    0  0.87956762321E+01 -0.12648592935E+02 -0.32177157223E+01  0.15738631392E+02  0.00000000000E+00 0.  1.
         11    1    1    2    0    0  0.60595705072E+02  0.24285280086E+02 -0.35778968557E+03  0.36369640279E+03  0.00000000000E+00 0. -1.
</event>
<event>
 7    1  0.2810263E-009  0.9840875E+02  0.7561462E-02  0.1283678E+00
         -1   -1    0    0    0  501 -0.00000000000E+00  0.00000000000E+00  0.22305511172E+02  0.22305511172E+02  0.00000000000E+00 0.  1.
          1   -1    0    0  501    0  0.00000000000E+00 -0.00000000000E+00 -0.80240157038E+03  0.80240157038E+03  0.00000000000E+00 0. -1.
         25    2    1    2    0    0 -0.19248369573E+02 -0.30848082503E+02 -0.62546678678E+03  0.63888870327E+03  0.12509184577E+03 0.  0.
          5    1    3    3  502    0  0.40191568455E+02  0.17095993563E+02 -0.12208046311E+03  0.12972566069E+03  0.41800000000E+01 0.  1.
         -5    1    3    3    0  502 -0.59439938028E+02 -0.47944076066E+02 -0.50338632367E+03  0.50916304258E+03  0.41800000000E+01 0.  1.
        -11    1    1    2    0    0 -0.72259410299E+01 -0.18830184350E+02 -0.11553534042E+03  0.11728258589E+03  0.00000000000E+00 0. -1.
         11    1    1    2    0    0  0.26474310603E+02  0.49678266852E+02 -0.39093932012E+02  0.68535792397E+02  0.00000000000E+00 0.  1.
</event>
<event>
 7    1  0.2810263E-009  0.2720526E+03  0.7561462E-02  0.1100111E+00
          2   -1    0    0  501    0  0.00000000000E+00  0.00000000000E+00  0.14037807438E+03  0.14037807438E+03  0.00000000000E+00 0. -1.
         -2   -1    0    0    0  501 -0.00000000000E+00 -0.00000000000E+00 -0.10663826293E+04  0.10663826293E+04  0.00000000000E+00 0.  1.
         25    2    1    2    0    0  0.26051002374E+03  0.43377963531E+02 -0.87629121816E+03  0.92373207535E+03  0.12509007881E+03 0.  0.
          5    1    3    3  502    0  0.13731898877E+03  0.39382036740E+02 -0.65486005588E+03  0.67027353721E+03  0.41800000000E+01 0.  1.
         -5    1    3    3    0  502  0.12319103497E+03  0.39959267907E+01 -0.22143116228E+03  0.25345853814E+03  0.41800000000E+01 0.  1.
        -11    1    1    2    0    0 -0.89732489030E+02 -0.57383480487E+02 -0.29284169265E+02  0.11046422946E+03  0.00000000000E+00 0.  1.
         11    1    1    2    0    0 -0.17077753471E+03  0.14005516956E+02 -0.20429167478E+02  0.17256439885E+03  0.00000000000E+00 0. -1.
</event>
<event>
 7    1  0.2810263E-009  0.1257220E+03  0.7561462E-02  0.1233945E+00
         -2   -1    0    0    0  501 -0.00000000000E+00  0.00000000000E+00  0.48008855146E+02  0.48008855146E+02  0.00000000000E+00 0. -1.
          2   -1    0    0  501    0  0.00000000000E+00 -0.00000000000E+00 -0.55208608743E+03  0.55208608743E+03  0.00000000000E+00 0.  1.
         25    2    1    2    0    0  0.74434880740E+02 -0.58134276294E+02 -0.12915356927E+03  0.20309742505E+03  0.12509106305E+03 0.  0.
          5    1    3    3  502    0 -0.33035180096E-01  0.17636349665E+02 -0.86765420162E+02  0.88638323860E+02  0.41800000000E+01 0.  1.
         -5    1    3    3    0  502  0.74467915920E+02 -0.75770625959E+02 -0.42388149106E+02  0.11445910119E+03  0.41800000000E+01 0.  1.
        -11    1    1    2    0    0  0.11782916527E+02  0.36149889401E+02 -0.15851758898E+03  0.16301373451E+03  0.00000000000E+00 0.  1.
         11    1    1    2    0    0 -0.86217797267E+02  0.21984386893E+02 -0.21640607404E+03  0.23398378302E+03  0.00000000000E+00 0. -1.
</event>
<event>
 7    1  0.2810263E-009  0.9688121E+02  0.7561462E-02  0.1286994E+00
         -2   -1    0    0    0  501 -0.00000000000E+00  0.00000000000E+00  0.13090565491E+03  0.13090565491E+03  0.00000000000E+00 0.  1.
          2   -1    0    0  501    0  0.00000000000E+00 -0.00000000000E+00 -0.13246323998E+03  0.13246323998E+03  0.00000000000E+00 0. -1.
         25    2    1    2    0    0 -0.44555409008E+02  0.35578435580E+02  0.55990315606E+02  0.14843619198E+03  0.12508948036E+03 0.  0.
          5    1    3    3  502    0 -0.60580551630E+00  0.63603063943E+02 -0.96968986721E+01  0.64476499495E+02  0.41800000000E+01 0. -1.
         -5    1    3    3    0  502 -0.43949603491E+02 -0.28024628363E+02  0.65687214279E+02  0.83959692482E+02  0.41800000000E+01 0. -1.
        -11    1    1    2    0    0  0.40091624553E+02  0.17532958511E+01  0.65116173585E+01  0.40654809878E+02  0.00000000000E+00 0.  1.
         11    1    1    2    0    0  0.44637844549E+01 -0.37331731431E+02 -0.64059518034E+02  0.74277893037E+02  0.00000000000E+00 0. -1.
</event>
<event>
 7    1  0.2810263E-009  0.7452001E+02  0.7561462E-02  0.1345364E+00
         -2   -1    0    0    0  501 -0.00000000000E+00  0.00000000000E+00  0.23406281229E+03  0.23406281229E+03  0.00000000000E+00 0.  1.
          2   -1    0    0  501    0  0.00000000000E+00 -0.00000000000E+00 -0.81525529190E+02  0.81525529190E+02  0.00000000000E+00 0. -1.
         25    2    1    2    0    0 -0.32992771414E+02 -0.63998932198E+02  0.28833228613E+02  0.14717301604E+03  0.12507659769E+03 0.  0.
          5    1    3    3  502    0 -0.22854468675E+02 -0.28260713303E+02  0.77561555993E+02  0.85756994017E+02  0.41800000000E+01 0. -1.
         -5    1    3    3    0  502 -0.10138302739E+02 -0.35738218895E+02 -0.48728327380E+02  0.61416022026E+02  0.41800000000E+01 0. -1.
        -11    1    1    2    0    0  0.26114762942E+02  0.27473827459E+02  0.12560480862E+03  0.13119969507E+03  0.00000000000E+00 0.  1.
         11    1    1    2    0    0  0.68780084724E+01  0.36525104740E+02 -0.19007541374E+01  0.37215630360E+02  0.00000000000E+00 0. -1.
</event>
<event>
 7    1  0.2810263E-009  0.1083237E+03  0.7561462E-02  0.1263706E+00
          3   -1    0    0  501    0  0.00000000000E+00  0.00000000000E+00  0.77392039538E+02  0.77392039538E+02  0.00000000000E+00 0. -1.
         -3   -1    0    0    0  501 -0.00000000000E+00 -0.00000000000E+00 -0.23723462065E+03  0.23723462065E+03  0.00000000000E+00 0.  1.
         25    2    1    2    0    0 -0.44249132990E+02  0.34449328425E+02 -0.15308443796E+03  0.20549525974E+03  0.12509482256E+03 0.  0.
          5    1    3    3  502    0 -0.79540264752E+02  0.18769751133E+02 -0.51377501427E+02  0.96623378782E+02  0.41800000000E+01 0. -1.
         -5    1    3    3    0  502  0.35291131762E+02  0.15679577292E+02 -0.10170693653E+03  0.10887188096E+03  0.41800000000E+01 0. -1.
        -11    1    1    2    0    0  0.49246844582E+02  0.10825539534E+02 -0.29290883152E+02  0.58312947476E+02  0.00000000000E+00 0. -1.
         11    1    1    2    0    0 -0.49977115922E+01 -0.45274867959E+02  0.22532740002E+02  0.50818452966E+02  0.00000000000E+00 0.  1.
</event>
<event>
 7    1  0.2810263E-009  0.1345021E+03  0.7561462E-02  0.1220924E+00
          1   -1    0    0  501    0  0.00000000000E+00  0.00000000000E+00  0.61383704805E+03  0.61383704805E+03  0.00000000000E+00 0.  1.
         -1   -1    0    0    0  501 -0.00000000000E+00 -0.00000000000E+00 -0.42169925380E+02  0.42169925380E+02  0.00000000000E+00 0. -1.
         25    2    1    2    0    0 -0.39269488344E+02 -0.78135904206E+02  0.14272279670E+03  0.20896716842E+03  0.12510063364E+03 0.  0.
          5    1    3    3  502    0  0.17640479670E+02 -0.91992802405E+02  0.83199759669E+02  0.12535363827E+03  0.41800000000E+01 0. -1.
         -5    1    3    3    0  502 -0.56909968014E+02  0.13856898199E+02  0.59523037035E+02  0.83613530155E+02  0.41800000000E+01 0. -1.
        -11    1    1    2    0    0 -0.85237147833E+01  0.66878361522E+02  0.32711680819E+03  0.33399217828E+03  0.00000000000E+00 0.  1.
         11    1    1    2    0    0  0.47793203128E+02  0.11257542685E+02  0.10182751778E+03  0.11304762673E+03  0.00000000000E+00 0. -1.
</event>
<event>
 7    1  0.2810263E-009  0.8998747E+02  0.7561462E-02  0.1302882E+00
          2   -1    0    0  501    0  0.00000000000E+00  0.00000000000E+00  0.35036907433E+03  0.35036907433E+03  0.00000000000E+00 0. -1.
         -2   -1    0    0    0  501 -0.00000000000E+00 -0.00000000000E+00 -0.46036269589E+02  0.46036269589E+02  0.00000000000E+00 0.  1.
         25    2    1    2    0    0 -0.72350113875E+00 -0.63915548678E+02  0.18012733110E+03  0.22842874503E+03  0.12509242715E+03 0.  0.
          5    1    3    3  502    0  0.26681617987E+02 -0.37138321598E+02  0.18404540522E+03  0.18968749893E+03  0.41800000000E+01 0. -1.
         -5    1    3    3    0  502 -0.27405119125E+02 -0.26777227080E+02 -0.39180741191E+01  0.38741246097E+02  0.41800000000E+01 0. -1.
        -11    1    1    2    0    0  0.27474739616E+02  0.63017210198E+02  0.39815902458E+02  0.79443918501E+02  0.00000000000E+00 0.  1.
         11    1    1    2    0    0 -0.26751238477E+02  0.89833847958E+00  0.84389571184E+02  0.88532680388E+02  0.00000000000E+00 0. -1.
</event>
<event>
 7    1  0.2810263E-009  0.1651554E+03  0.7561462E-02  0.1182996E+00
          1   -1    0    0  501    0  0.00000000000E+00  0.00000000000E+00  0.72523072513E+03  0.72523072513E+03  0.00000000000E+00 0. -1.
         -1   -1    0    0    0  501 -0.00000000000E+00 -0.00000000000E+00 -0.43965166339E+02  0.43965166339E+02  0.00000000000E+00 0.  1.
         25    2    1    2    0    0  0.57607571565E+02  0.12434310198E+03  0.28845687486E+03  0.34298214962E+03  0.12509814944E+03 0.  0.
          5    1    3    3  502    0 -0.34322449648E+02  0.54649563033E+01  0.48275810234E+02  0.59631556671E+02  0.41800000000E+01 0.  1.
         -5    1    3    3    0  502  0.91930021214E+02  0.11887814567E+03  0.24018106463E+03  0.28335059295E+03  0.41800000000E+01 0.  1.
        -11    1    1    2    0    0 -0.60210030285E+02 -0.77908263052E+02  0.15305676122E+03  0.18199262994E+03  0.00000000000E+00 0.  1.
         11    1    1    2    0    0  0.26024587199E+01 -0.46434838924E+02  0.23975192271E+03  0.24422111191E+03  0.00000000000E+00 0. -1.
</event>
<event>
 7    1  0.2810263E-009  0.1049022E+03  0.7561462E-02  0.1270312E+00
         -2   -1    0    0    0  501 -0.00000000000E+00  0.00000000000E+00  0.58279875598E+02  0.58279875598E+02  0.00000000000E+00 0.  1.
          2   -1    0    0  501    0  0.00000000000E+00 -0.00000000000E+00 -0.30927145131E+03  0.30927145131E+03  0.00000000000E+00 0. -1.
         25    2    1    2    0    0 -0.97773088881E+00  0.35482340886E+01 -0.25045921147E+03  0.27997916783E+03  0.12507986202E+03 0.  0.
          5    1    3    3  502    0  0.32825866761E+02  0.52829140928E+02 -0.97696984328E+02  0.11589058981E+03  0.41800000000E+01 0.  1.
         -5    1    3    3    0  502 -0.33803597650E+02 -0.49280906839E+02 -0.15276222715E+03  0.16408857802E+03  0.41800000000E+01 0.  1.
        -11    1    1    2    0    0 -0.32758691573E+02 -0.30209173455E+02  0.37778095018E+00  0.44563087335E+02  0.00000000000E+00 0. -1.
         11    1    1    2    0    0  0.33736422462E+02  0.26660939366E+02 -0.91014519250E+00  0.43009071749E+02  0.00000000000E+00 0.  1.
</event>
<event>
 7    1  0.2810263E-009  0.1757094E+03  0.7561462E-02  0.1172021E+00
         -3   -1    0    0    0  501 -0.00000000000E+00  0.00000000000E+00  0.25156376476E+03  0.25156376476E+03  0.00000000000E+00 0.  1.
          3   -1    0    0  501    0  0.00000000000E+00 -0.00000000000E+00 -0.18598486448E+03  0.18598486448E+03  0.00000000000E+00 0. -1.
         25    2    1    2    0    0 -0.13444167319E+03 -0.39064470941E+02  0.15869112927E+03  0.24582658169E+03  0.12508891787E+03 0.  0.
          5    1    3    3  502    0  0.11202318307E+02 -0.39487690618E+02  0.26079470167E+02  0.48809638495E+02  0.41800000000E+01 0. -1.
         -5    1    3    3    0  502 -0.14564399150E+03  0.42321967705E+00  0.13261165910E+03  0.19701694319E+03  0.41800000000E+01 0. -1.
        -11    1    1    2    0    0  0.19359381330E+02  0.45239871524E+02 -0.45521645398E+02  0.67034706091E+02  0.00000000000E+00 0.  1.
         11    1    1    2    0    0  0.11508229186E+03 -0.61754005826E+01 -0.47590583591E+02  0.12468734146E+03  0.00000000000E+00 0. -1.
</event>
<event>
 7    1  0.2837585E-009  0.8835675E+02  0.7561462E-02  0.1306881E+00
         -1   -1    0    0    0  501 -0.00000000000E+00  0.00000000000E+00  0.97722537371E+02  0.97722537371E+02  0.00000000000E+00 0.  1.
          1   -1    0    0  501    0  0.00000000000E+00 -0.00000000000E+00 -0.16642766898E+03  0.16642766898E+03  0.00000000000E+00 0. -1.
         25    2    1    2    0    0 -0.73527875653E+01 -0.40439593630E+01  0.30710287032E+02  0.12907492416E+03  0.12508715851E+03 0.  0.
          5    1    3    3  502    0  0.30578066860E+01  0.52790657120E+02 -0.15176107151E+02  0.55172368892E+02  0.41800000000E+01 0.  1.
         -5    1    3    3    0  502 -0.10410594251E+02 -0.56834616483E+02  0.45886394183E+02  0.73902555264E+02  0.41800000000E+01 0.  1.
        -11    1    1    2    0    0 -0.24551726494E+02 -0.14816330951E+02  0.31837784826E+00  0.28677731799E+02  0.00000000000E+00 0.  1.
         11    1    1    2    0    0  0.31904514059E+02  0.18860290314E+02 -0.99733796489E+02  0.10639755040E+03  0.00000000000E+00 0. -1.
</event>
<event>
 7    1  0.2810263E-009  0.1006747E+03  0.7561462E-02  0.1278884E+00
         -1   -1    0    0    0  501 -0.00000000000E+00  0.00000000000E+00  0.39833234717E+02  0.39833234717E+02  0.00000000000E+00 0.  1.
          1   -1    0    0  501    0  0.00000000000E+00 -0.00000000000E+00 -0.43099568716E+03  0.43099568716E+03  0.00000000000E+00 0. -1.
         25    2    1    2    0    0 -0.27103483050E+02  0.31939083303E+02 -0.30649195373E+03  0.33367522502E+03  0.12508850567E+03 0.  0.
          5    1    3    3  502    0 -0.27243230666E+02  0.61209565200E+02 -0.76443427863E+02  0.10173433320E+03  0.41800000000E+01 0.  1.
         -5    1    3    3    0  502  0.13974761640E+00 -0.29270481897E+02 -0.23004852587E+03  0.23194089181E+03  0.41800000000E+01 0.  1.
        -11    1    1    2    0    0  0.62703340708E+02 -0.28534066203E+02 -0.70829206994E+02  0.98806267177E+02  0.00000000000E+00 0. -1.
         11    1    1    2    0    0 -0.35599857658E+02 -0.34050170998E+01 -0.13841291713E+02  0.38347429679E+02  0.00000000000E+00 0.  1.
</event>
<event>
 7    1  0.2810263E-009  0.1149259E+03  0.7561462E-02  0.1251710E+00
          2   -1    0    0  501    0  0.00000000000E+00  0.00000000000E+00  0.57226565526E+03  0.57226565526E+03  0.00000000000E+00 0. -1.
         -2   -1    0    0    0  501 -0.00000000000E+00 -0.00000000000E+00 -0.23472465209E+02  0.23472465209E+02  0.00000000000E+00 0.  1.
         25    2    1    2    0    0  0.25173126490E+02  0.31454975864E+02  0.28766344399E+03  0.31626109423E+03  0.12509085061E+03 0.  0.
          5    1    3    3  502    0 -0.34578795976E+01  0.76922702936E+02  0.15686385817E+03  0.17479359702E+03  0.41800000000E+01 0. -1.
         -5    1    3    3    0  502  0.28631006088E+02 -0.45467727072E+02  0.13079958582E+03  0.14146749721E+03  0.41800000000E+01 0. -1.
        -11    1    1    2    0    0 -0.34550434333E+02 -0.59758729522E+02  0.16587088784E+03  0.17966076283E+03  0.00000000000E+00 0. -1.
         11    1    1    2    0    0  0.93773078427E+01  0.28303753658E+02  0.95258858216E+02  0.99816263415E+02  0.00000000000E+00 0.  1.
</event>
<event>
 7    1  0.2810263E-009  0.1024487E+03  0.7561462E-02  0.1275229E+00
         -1   -1    0    0    0  501 -0.00000000000E+00  0.00000000000E+00  0.70111177052E+02  0.70111177052E+02  0.00000000000E+00 0.  1.
          1   -1    0    0  501    0  0.00000000000E+00 -0.00000000000E+00 -0.42477931239E+03  0.42477931239E+03  0.00000000000E+00 0. -1.
         25    2    1    2    0    0  0.28379348518E+02 -0.42467848443E+02 -0.11465681217E+02  0.13560050202E+03  0.12508848360E+03 0.  0.
          5    1    3    3  502    0 -0.19654914171E+02 -0.51226198285E+02  0.37291347689E+02  0.66472220170E+02  0.41800000000E+01 0. -1.
         -5    1    3    3    0  502  0.48034262689E+02  0.87583498417E+01 -0.48757028907E+02  0.69128281852E+02  0.41800000000E+01 0. -1.
        -11    1    1    2    0    0 -0.30534295194E+02 -0.21193244783E+02 -0.76025313090E+02  0.84624730652E+02  0.00000000000E+00 0.  1.
         11    1    1    2    0    0  0.21549466761E+01  0.63661093227E+02 -0.26717714103E+03  0.27466525677E+03  0.00000000000E+00 0. -1.
</event>
<event>
 7    1  0.2810263E-009  0.8647470E+02  0.7561462E-02  0.1311620E+00
          1   -1    0    0  501    0  0.00000000000E+00  0.00000000000E+00  0.22149634497E+03  0.22149634497E+03  0.00000000000E+00 0. -1.
         -1   -1    0    0    0  501 -0.00000000000E+00 -0.00000000000E+00 -0.66845374343E+02  0.66845374343E+02  0.00000000000E+00 0.  1.
         25    2    1    2    0    0 -0.36384805141E+02 -0.31013990681E+02  0.11944655747E+03  0.17944414351E+03  0.12508796459E+03 0.  0.
          5    1    3    3  502    0 -0.40772517165E+02  0.26981312118E+02  0.29375567872E+01  0.49157817277E+02  0.41800000000E+01 0.  1.
         -5    1    3    3    0  502  0.43877120241E+01 -0.57995302799E+02  0.11650900068E+03  0.13028632623E+03  0.41800000000E+01 0.  1.
        -11    1    1    2    0    0  0.31253746765E+02  0.42635927926E+02 -0.16717116715E+02  0.55444395824E+02  0.00000000000E+00 0.  1.
         11    1    1    2    0    0  0.51310583756E+01 -0.11621937244E+02  0.51921529874E+02  0.53453179979E+02  0.00000000000E+00 0. -1.
</event>
<event>
 7    1  0.2810263E-009  0.8738793E+02  0.7561462E-02  0.1309303E+00
          2   -1    0    0  501    0  0.00000000000E+00  0.00000000000E+00  0.31218948305E+03  0.31218948305E+03  0.00000000000E+00 0.  1.
         -2   -1    0    0    0  501 -0.00000000000E+00 -0.00000000000E+00 -0.59035548641E+02  0.59035548641E+02  0.00000000000E+00 0. -1.
         25    2    1    2    0    0  0.63185059687E+02 -0.17853196075E+02  0.21327651669E+03  0.25582337317E+03  0.12509051647E+03 0.  0.
          5    1    3    3  502    0  0.50885238154E+02 -0.56430289011E+01  0.22736815901E+03  0.23309848427E+03  0.41800000000E+01 0. -1.
         -5    1    3    3    0  502  0.12299821533E+02 -0.12210167174E+02 -0.14091642319E+02  0.22724888898E+02  0.41800000000E+01 0. -1.
        -11    1    1    2    0    0 -0.60989646770E+02  0.46596744602E+02  0.40050485670E+02  0.86573870325E+02  0.00000000000E+00 0. -1.
         11    1    1    2    0    0 -0.21954129172E+01 -0.28743548527E+02 -0.17306795465E+00  0.28827788197E+02  0.00000000000E+00 0.  1.
</event>
<event>
 7    1  0.2810263E-009  0.2266630E+03  0.7561462E-02  0.1129011E+00
          1   -1    0    0  501    0  0.00000000000E+00  0.00000000000E+00  0.24212970630E+03  0.24212970630E+03  0.00000000000E+00 0. -1.
         -1   -1    0    0    0  501 -0.00000000000E+00 -0.00000000000E+00 -0.33222752157E+03  0.33222752157E+03  0.00000000000E+00 0.  1.
         25    2    1    2    0    0  0.21256657636E+03  0.28088071349E+02  0.10568791869E+03  0.26979506403E+03  0.12508377703E+03 0.  0.
          5    1    3    3  502    0  0.70849727064E+02  0.38387862527E+02 -0.16484661408E+02  0.82356106490E+02  0.41800000000E+01 0. -1.
         -5    1    3    3    0  502  0.14171684930E+03 -0.10299791178E+02  0.12217258010E+03  0.18743895754E+03  0.41800000000E+01 0. -1.
        -11    1    1    2    0    0 -0.14246978103E+03 -0.58579742447E+02 -0.15228349116E+03  0.21660906355E+03  0.00000000000E+00 0. -1.
         11    1    1    2    0    0 -0.70096795332E+02  0.30491671098E+02 -0.43502242797E+02  0.87953100290E+02  0.00000000000E+00 0.  1.
</event>
<event>
 7    1  0.2810263E-009  0.1207593E+03  0.7561462E-02  0.1241850E+00
          1   -1    0    0  501    0  0.00000000000E+00  0.00000000000E+00  0.79452422301E+02  0.79452422301E+02  0.00000000000E+00 0. -1.
         -1   -1    0    0    0  501 -0.00000000000E+00 -0.00000000000E+00 -0.24707184591E+03  0.24707184591E+03  0.00000000000E+00 0.  1.
         25    2    1    2    0    0 -0.70988523754E+02 -0.45964671978E+02 -0.62656490316E+02  0.16347895458E+03  0.12508961283E+03 0.  0.
          5    1    3    3  502    0  0.30308805511E+01 -0.54285349744E+02 -0.69754179084E+02  0.88539275654E+02  0.41800000000E+01 0.  1.
         -5    1    3    3    0  502 -0.74019404305E+02  0.83206777661E+01  0.70976887674E+01  0.74939678929E+02  0.41800000000E+01 0.  1.
        -11    1    1    2    0    0  0.61548313452E+01 -0.19380583245E+02 -0.54279426012E+02  0.57963307739E+02  0.00000000000E+00 0.  1.
         11    1    1    2    0    0  0.64833692409E+02  0.65345255223E+02 -0.50683507283E+02  0.10508200589E+03  0.00000000000E+00 0. -1.
</event>
<event>
 7    1  0.2810263E-009  0.1273551E+03  0.7561462E-02  0.1231434E+00
         -2   -1    0    0    0  501 -0.00000000000E+00  0.00000000000E+00  0.78110555632E+02  0.78110555632E+02  0.00000000000E+00 0.  1.
          2   -1    0    0  501    0  0.00000000000E+00 -0.00000000000E+00 -0.25682838645E+03  0.25682838645E+03  0.00000000000E+00 0. -1.
         25    2    1    2    0    0  0.75381171405E+02  0.46234482949E+02 -0.13118014432E+03  0.20168283066E+03  0.12509110882E+03 0.  0.
          5    1    3    3  502    0  0.11024035193E+03  0.29736563378E+02 -0.94082254735E+02  0.14800723445E+03  0.41800000000E+01 0. -1.
         -5    1    3    3    0  502 -0.34859180522E+02  0.16497919571E+02 -0.37097889585E+02  0.53675596210E+02  0.41800000000E+01 0. -1.
        -11    1    1    2    0    0 -0.53852503757E+02 -0.36888229688E+01  0.13655224938E+02  0.55679123052E+02  0.00000000000E+00 0.  1.
         11    1    1    2    0    0 -0.21528667649E+02 -0.42545659980E+02 -0.61192911431E+02  0.77576988362E+02  0.00000000000E+00 0. -1.
</event>
<event>
 7    1  0.2810263E-009  0.1271766E+03  0.7561462E-02  0.1231706E+00
          2   -1    0    0  501    0  0.00000000000E+00  0.00000000000E+00  0.16426344463E+04  0.16426344463E+04  0.00000000000E+00 0. -1.
         -2   -1    0    0    0  501 -0.00000000000E+00 -0.00000000000E+00 -0.15982731629E+02  0.15982731629E+02  0.00000000000E+00 0.  1.
         25    2    1    2    0    0  0.89768751352E+02  0.17052832216E+02  0.12635454251E+04  0.12730057921E+04  0.12508987786E+03 0.  0.
          5    1    3    3  502    0  0.79644057288E+02 -0.45217324031E+02  0.74439967547E+03  0.75002408727E+03  0.41800000000E+01 0.  1.
         -5    1    3    3    0  502  0.10124694064E+02  0.62270156247E+02  0.51914574967E+03  0.52298170484E+03  0.41800000000E+01 0.  1.
        -11    1    1    2    0    0 -0.14386706796E+02 -0.19250837049E+02  0.12700654120E+02  0.27182322832E+02  0.00000000000E+00 0.  1.
         11    1    1    2    0    0 -0.75382044556E+02  0.21980048327E+01  0.35040563544E+03  0.35842906302E+03  0.00000000000E+00 0. -1.
</event>
<event>
 7    1  0.2810263E-009  0.7850299E+02  0.7561462E-02  0.1333354E+00
         -2   -1    0    0    0  501 -0.00000000000E+00  0.00000000000E+00  0.20400508215E+02  0.20400508215E+02  0.00000000000E+00 0.  1.
          2   -1    0    0  501    0  0.00000000000E+00 -0.00000000000E+00 -0.59543741604E+03  0.59543741604E+03  0.00000000000E+00 0. -1.
         25    2    1    2    0    0 -0.11791669015E+02 -0.11028573403E+02 -0.37577977103E+03  0.39638805776E+03  0.12510948458E+03 0.  0.
          5    1    3    3  502    0 -0.20557471506E+02 -0.44827248124E+02 -0.56230092636E+02  0.74909195209E+02  0.41800000000E+01 0.  1.
         -5    1    3    3    0  502  0.87658024904E+01  0.33798674721E+02 -0.31954967839E+03  0.32147886255E+03  0.41800000000E+01 0.  1.
        -11    1    1    2    0    0  0.59262226652E+01  0.41193098956E+02 -0.41664165098E+02  0.58888828906E+02  0.00000000000E+00 0.  1.
         11    1    1    2    0    0  0.58654463500E+01 -0.30164525553E+02 -0.15759297169E+03  0.16056103758E+03  0.00000000000E+00 0. -1.
</event>
<event>
 7    1  0.2810263E-009  0.7720281E+02  0.7561462E-02  0.1337182E+00
          1   -1    0    0  501    0  0.00000000000E+00  0.00000000000E+00  0.15106471824E+03  0.15106471824E+03  0.00000000000E+00 0. -1.
         -1   -1    0    0    0  501 -0.00000000000E+00 -0.00000000000E+00 -0.86904015614E+02  0.86904015614E+02  0.00000000000E+00 0.  1.
         25    2    1    2    0    0  0.19262316099E+02 -0.29947890497E+01  0.75012163229E+02  0.14715644578E+03  0.12509272289E+03 0.  0.
          5    1    3    3  502    0 -0.23816256167E+02 -0.10756956636E+02  0.95172531330E+02  0.98783648918E+02  0.41800000000E+01 0. -1.
         -5    1    3    3    0  502  0.43078572266E+02  0.77621675861E+01 -0.20160368101E+02  0.48372796860E+02  0.41800000000E+01 0. -1.
        -11    1    1    2    0    0  0.31785775738E+02 -0.53823744981E+01 -0.20479391399E+02  0.38193074851E+02  0.00000000000E+00 0.  1.
         11    1    1    2    0    0 -0.51048091837E+02  0.83771635479E+01  0.96279307995E+01  0.52619213228E+02  0.00000000000E+00 0. -1.
</event>
<event>
 7    1  0.2810263E-009  0.1278359E+03  0.7561462E-02  0.1230703E+00
          3   -1    0    0  501    0  0.00000000000E+00  0.00000000000E+00  0.21615466847E+03  0.21615466847E+03  0.00000000000E+00 0. -1.
         -3   -1    0    0    0  501 -0.00000000000E+00 -0.00000000000E+00 -0.90790597201E+02  0.90790597201E+02  0.00000000000E+00 0.  1.
         25    2    1    2    0    0  0.62648212639E+02 -0.47650133988E+02  0.11375138066E+03  0.18649713296E+03  0.12508585126E+03 0.  0.
          5    1    3    3  502    0  0.55358506770E+02  0.34325620350E+02  0.46656654648E+02  0.80231716342E+02  0.41800000000E+01 0. -1.
         -5    1    3    3    0  502  0.72897058695E+01 -0.81975754338E+02  0.67094726012E+02  0.10626541662E+03  0.41800000000E+01 0. -1.
        -11    1    1    2    0    0 -0.48474821033E+02 -0.92562624169E+01  0.31472142594E+02  0.58531892397E+02  0.00000000000E+00 0. -1.
         11    1    1    2    0    0 -0.14173391606E+02  0.56906396405E+02 -0.19859451984E+02  0.61916240313E+02  0.00000000000E+00 0.  1.
</event>
<event>
 7    1  0.2810263E-009  0.1614196E+03  0.7561462E-02  0.1187103E+00
          1   -1    0    0  501    0  0.00000000000E+00  0.00000000000E+00  0.64660991284E+02  0.64660991284E+02  0.00000000000E+00 0. -1.
         -1   -1    0    0    0  501 -0.00000000000E+00 -0.00000000000E+00 -0.51880467252E+03  0.51880467252E+03  0.00000000000E+00 0.  1.
         25    2    1    2    0    0 -0.12923791684E+03 -0.71101051774E+02 -0.24859180730E+03  0.31496398756E+03  0.12508648245E+03 0.  0.
          5    1    3    3  502    0 -0.48041903450E+02 -0.78412443931E+02 -0.61138767576E+02  0.11050772440E+03  0.41800000000E+01 0. -1.
         -5    1    3    3    0  502 -0.81196013392E+02  0.73113921570E+01 -0.18745303972E+03  0.20445626317E+03  0.41800000000E+01 0. -1.
        -11    1    1    2    0    0  0.78363474792E+02  0.30600818681E+02 -0.17989995178E+03  0.19859817958E+03  0.00000000000E+00 0.  1.
         11    1    1    2    0    0  0.50874442050E+02  0.40500233094E+02 -0.25651922161E+02  0.69903496658E+02  0.00000000000E+00 0. -1.
</event>
<event>
 7    1  0.2810263E-009  0.7403329E+02  0.7561462E-02  0.1346891E+00
          2   -1    0    0  501    0  0.00000000000E+00  0.00000000000E+00  0.15622240560E+03  0.15622240560E+03  0.00000000000E+00 0. -1.
         -2   -1    0    0    0  501 -0.00000000000E+00 -0.00000000000E+00 -0.78029570951E+02  0.78029570951E+02  0.00000000000E+00 0.  1.
         25    2    1    2    0    0  0.78909647212E+01  0.21833202253E+01  0.56890031966E+02  0.13766194269E+03  0.12508917026E+03 0.  0.
          5    1    3    3  502    0 -0.80809137380E+01 -0.31890966879E+02  0.84517310914E+02  0.90790876080E+02  0.41800000000E+01 0.  1.
         -5    1    3    3    0  502  0.15971878459E+02  0.34074287104E+02 -0.27627278948E+02  0.46871066611E+02  0.41800000000E+01 0.  1.
        -11    1    1    2    0    0 -0.41097905321E+02 -0.11264427580E+02  0.39101669428E+02  0.57834813932E+02  0.00000000000E+00 0. -1.
         11    1    1    2    0    0  0.33206940600E+02  0.90811073548E+01 -0.17798866740E+02  0.38755219933E+02  0.00000000000E+00 0.  1.
</event>
<event>
 7    1  0.2810263E-009  0.1057933E+03  0.7561462E-02  0.1268565E+00
         -2   -1    0    0    0  501 -0.00000000000E+00  0.00000000000E+00  0.10016822568E+03  0.10016822568E+03  0.00000000000E+00 0.  1.
          2   -1    0    0  501    0  0.00000000000E+00 -0.00000000000E+00 -0.12318067310E+03  0.12318067310E+03  0.00000000000E+00 0. -1.
         25    2    1    2    0    0  0.72907244674E-01 -0.27008189768E+02 -0.19696919919E+02  0.12947683708E+03  0.12508730973E+03 0.  0.
          5    1    3    3  502    0  0.57371113344E+02 -0.15699900072E+02  0.14908004165E+02  0.61462610559E+02  0.41800000000E+01 0.  1.
         -5    1    3    3    0  502 -0.57298206099E+02 -0.11308289696E+02 -0.34604924084E+02  0.68014226518E+02  0.41800000000E+01 0.  1.
        -11    1    1    2    0    0 -0.22394276606E+02  0.53953575116E+02 -0.62988574959E+01  0.58755148695E+02  0.00000000000E+00 0. -1.
         11    1    1    2    0    0  0.22321369361E+02 -0.26945385347E+02  0.29833299894E+01  0.35116913012E+02  0.00000000000E+00 0.  1.
</event>
<event>
 7    1  0.2810263E-009  0.1035261E+03  0.7561462E-02  0.1273051E+00
         -1   -1    0    0    0  501 -0.00000000000E+00  0.00000000000E+00  0.11722185007E+03  0.11722185007E+03  0.00000000000E+00 0.  1.
          1   -1    0    0  501    0  0.00000000000E+00 -0.00000000000E+00 -0.10723521686E+03  0.10723521686E+03  0.00000000000E+00 0. -1.
         25    2    1    2    0    0  0.26836364487E+02 -0.34434931849E+01  0.92178459134E+01  0.12831565264E+03  0.12509152620E+03 0.  0.
          5    1    3    3  502    0 -0.41189729504E+02 -0.25720186284E+02  0.25176580225E+02  0.54858494246E+02  0.41800000000E+01 0.  1.
         -5    1    3    3    0  502  0.68026093991E+02  0.22276693099E+02 -0.15958734312E+02  0.73457158398E+02  0.41800000000E+01 0.  1.
        -11    1    1    2    0    0 -0.16108919315E+02 -0.39335364307E+02 -0.20484057959E+02  0.47184370264E+02  0.00000000000E+00 0.  1.
         11    1    1    2    0    0 -0.10727445172E+02  0.42778857492E+02  0.21252845260E+02  0.48957044028E+02  0.00000000000E+00 0. -1.
</event>
<event>
 7    1  0.2810263E-009  0.7425264E+02  0.7561462E-02  0.1346201E+00
         -1   -1    0    0    0  501 -0.00000000000E+00  0.00000000000E+00  0.57547410759E+03  0.57547410759E+03  0.00000000000E+00 0. -1.
          1   -1    0    0  501    0  0.00000000000E+00 -0.00000000000E+00 -0.25079903083E+02  0.25079903083E+02  0.00000000000E+00 0.  1.
         25    2    1    2    0    0  0.33684204904E+02 -0.12252030545E+02  0.33925553514E+03  0.36335525560E+03  0.12509190917E+03 0.  0.
          5    1    3    3  502    0  0.30651704979E+02 -0.36955150488E+02  0.38881715224E+02  0.61923100250E+02  0.41800000000E+01 0. -1.
         -5    1    3    3    0  502  0.30324999251E+01  0.24703119944E+02  0.30037381991E+03  0.30143215535E+03  0.41800000000E+01 0. -1.
        -11    1    1    2    0    0 -0.26325209371E+02 -0.25476592610E+02  0.18965936958E+03  0.19316508455E+03  0.00000000000E+00 0. -1.
         11    1    1    2    0    0 -0.73589955328E+01  0.37728623154E+02  0.21479299794E+02  0.44033670526E+02  0.00000000000E+00 0.  1.
</event>
<event>
 7    1  0.2810263E-009  0.1242358E+03  0.7561462E-02  0.1236268E+00
          2   -1    0    0  501    0  0.00000000000E+00  0.00000000000E+00  0.34407456463E+02  0.34407456463E+02  0.00000000000E+00 0. -1.
         -2   -1    0    0    0  501 -0.00000000000E+00 -0.00000000000E+00 -0.56032263690E+03  0.56032263690E+03  0.00000000000E+00 0.  1.
         25    2    1    2    0    0  0.25109653498E+02 -0.73246697976E+02 -0.36281485531E+03  0.39150595087E+03  0.12508683730E+03 0.  0.
          5    1    3    3  502    0 -0.40212325429E+02 -0.31683879871E+02 -0.24596574973E+03  0.25127180861E+03  0.41800000000E+01 0. -1.
         -5    1    3    3    0  502  0.65321978927E+02 -0.41562818104E+02 -0.11684910558E+03  0.14023414226E+03  0.41800000000E+01 0. -1.
        -11    1    1    2    0    0 -0.12635849930E+02  0.94276254684E+02 -0.14207539338E+03  0.17097688237E+03  0.00000000000E+00 0.  1.
         11    1    1    2    0    0 -0.12473803567E+02 -0.21029556708E+02 -0.21024931737E+02  0.32247260121E+02  0.00000000000E+00 0. -1.
</event>
<event>
 7    1  0.2810263E-009  0.1078440E+03  0.7561462E-02  0.1264615E+00
          2   -1    0    0  501    0  0.00000000000E+00  0.00000000000E+00  0.40231794864E+04  0.40231794864E+04  0.00000000000E+00 0. -1.
         -2   -1    0    0    0  501 -0.00000000000E+00 -0.00000000000E+00 -0.61318824503E+01  0.61318824503E+01  0.00000000000E+00 0.  1.
         25    2    1    2    0    0 -0.28796745427E+02  0.10810812512E+02  0.35641138267E+04  0.35664409296E+04  0.12508960140E+03 0.  0.
          5    1    3    3  502    0 -0.16698930330E+02 -0.52886582948E+02  0.10355022424E+04  0.10369947981E+04  0.41800000000E+01 0. -1.
         -5    1    3    3    0  502 -0.12097815097E+02  0.63697395460E+02  0.25286115843E+04  0.25294461314E+04  0.41800000000E+01 0. -1.
        -11    1    1    2    0    0  0.50563922793E+02  0.22470686952E+02  0.24538024287E+03  0.25154145911E+03  0.00000000000E+00 0.  1.
         11    1    1    2    0    0 -0.21767177366E+02 -0.33281499464E+02  0.20755353437E+03  0.21132898014E+03  0.00000000000E+00 0. -1.
</event>
<event>
 7    1  0.2810263E-009  0.9100071E+02  0.7561462E-02  0.1300446E+00
          1   -1    0    0  501    0  0.00000000000E+00  0.00000000000E+00  0.27086568594E+03  0.27086568594E+03  0.00000000000E+00 0. -1.
         -1   -1    0    0    0  501 -0.00000000000E+00 -0.00000000000E+00 -0.46487923581E+02  0.46487923581E+02  0.00000000000E+00 0.  1.
         25    2    1    2    0    0  0.26010561539E+02  0.11547217642E+01  0.14811129934E+03  0.19560737565E+03  0.12508959079E+03 0.  0.
          5    1    3    3  502    0  0.13947735338E+02  0.51169994584E+02  0.18886271242E+02  0.56454152267E+02  0.41800000000E+01 0. -1.
         -5    1    3    3    0  502  0.12062826201E+02 -0.50015272820E+02  0.12922502810E+03  0.13915322338E+03  0.41800000000E+01 0. -1.
        -11    1    1    2    0    0  0.19088884876E+02  0.19754513060E+02 -0.35667448951E+01  0.27701046572E+02  0.00000000000E+00 0.  1.
         11    1    1    2    0    0 -0.45099446415E+02 -0.20909234824E+02  0.79833207916E+02  0.94045187299E+02  0.00000000000E+00 0. -1.
</event>
<event>
 7    1  0.2810263E-009  0.1726195E+03  0.7561462E-02  0.1175143E+00
          1   -1    0    0  501    0  0.00000000000E+00  0.00000000000E+00  0.95966694921E+02  0.95966694921E+02  0.00000000000E+00 0. -1.
         -1   -1    0    0    0  501 -0.00000000000E+00 -0.00000000000E+00 -0.50403693351E+03  0.50403693351E+03  0.00000000000E+00 0.  1.
         25    2    1    2    0    0 -0.15342491505E+03  0.58129704287E+02 -0.78075145217E+02  0.22059467489E+03  0.12509202697E+03 0.  0.
          5    1    3    3  502    0 -0.17252289309E+02  0.13518899775E+02 -0.73882809963E+02  0.77178650840E+02  0.41800000000E+01 0. -1.
         -5    1    3    3    0  502 -0.13617262574E+03  0.44610804512E+02 -0.41923352546E+01  0.14341602405E+03  0.41800000000E+01 0. -1.
        -11    1    1    2    0    0  0.14369596720E+02 -0.36005252585E+02 -0.12377484283E+03  0.12970379809E+03  0.00000000000E+00 0. -1.
         11    1    1    2    0    0  0.13905531833E+03 -0.22124451702E+02 -0.20622025055E+03  0.24970515544E+03  0.00000000000E+00 0.  1.
</event>
<event>
 7    1  0.3938209E-009  0.1265040E+03  0.7561462E-02  0.1232737E+00
          1   -1    0    0  501    0  0.00000000000E+00  0.00000000000E+00  0.10395423593E+04  0.10395423593E+04  0.00000000000E+00 0. -1.
         -1   -1    0    0    0  501 -0.00000000000E+00 -0.00000000000E+00 -0.19331479505E+02  0.19331479505E+02  0.00000000000E+00 0.  1.
         25    2    1    2    0    0 -0.21400619205E+02 -0.88334109833E+02  0.55614324005E+03  0.57723892837E+03  0.12509426651E+03 0.  0.
          5    1    3    3  502    0 -0.70028936125E+02 -0.63597653149E+02  0.41935217171E+03  0.42990979251E+03  0.41800000000E+01 0. -1.
         -5    1    3    3    0  502  0.48628316920E+02 -0.24736456684E+02  0.13679106834E+03  0.14732913586E+03  0.41800000000E+01 0. -1.
        -11    1    1    2    0    0  0.18270500667E+02  0.33706683345E+01  0.13124947532E+02  0.22747238236E+02  0.00000000000E+00 0.  1.
         11    1    1    2    0    0  0.31301185387E+01  0.84963441499E+02  0.45094269218E+03  0.45888767217E+03  0.00000000000E+00 0. -1.
</event>
<event>
 7    1  0.2810263E-009  0.1071092E+03  0.7561462E-02  0.1266019E+00
         -3   -1    0    0    0  501 -0.00000000000E+00  0.00000000000E+00  0.37360608387E+02  0.37360608387E+02  0.00000000000E+00 0.  1.
          3   -1    0    0  501    0  0.00000000000E+00 -0.00000000000E+00 -0.39624468036E+03  0.39624468036E+03  0.00000000000E+00 0. -1.
         25    2    1    2    0    0  0.25587180568E+02 -0.32294299219E+02 -0.13117916856E+03  0.18588176150E+03  0.12508568831E+03 0.  0.
          5    1    3    3  502    0  0.69308984975E+02 -0.48379948943E+02 -0.78443252352E+02  0.11539138225E+03  0.41800000000E+01 0. -1.
         -5    1    3    3    0  502 -0.43721804408E+02  0.16085649724E+02 -0.52735916211E+02  0.70490379247E+02  0.41800000000E+01 0. -1.
        -11    1    1    2    0    0  0.21764705655E+02 -0.52474574446E+01 -0.15881340707E+02  0.27449138502E+02  0.00000000000E+00 0.  1.
         11    1    1    2    0    0 -0.47351886222E+02  0.37541756664E+02 -0.21182356270E+03  0.22027438875E+03  0.00000000000E+00 0. -1.
</event>
<event>
 7    1  0.2810263E-009  0.2551352E+03  0.7561462E-02  0.1110102E+00
         -2   -1    0    0    0  501 -0.00000000000E+00  0.00000000000E+00  0.15996458498E+03  0.15996458498E+03  0.00000000000E+00 0.  1.
          2   -1    0    0  501    0  0.00000000000E+00 -0.00000000000E+00 -0.44356370093E+03  0.44356370093E+03  0.00000000000E+00 0. -1.
         25    2    1    2    0    0  0.18611198626E+03 -0.15077641451E+03 -0.19038693977E+03  0.33055354844E+03  0.12508902010E+03 0.  0.
          5    1    3    3  502    0  0.19101732340E+03 -0.16632290247E+03 -0.18036493701E+03  0.31096608919E+03  0.41800000000E+01 0. -1.
         -5    1    3    3    0  502 -0.49053371398E+01  0.15546487961E+02 -0.10022002761E+02  0.19587459247E+02  0.41800000000E+01 0. -1.
        -11    1    1    2    0    0 -0.10915663207E+03  0.77558993359E+02 -0.35205537388E+01  0.13395134219E+03  0.00000000000E+00 0.  1.
         11    1    1    2    0    0 -0.76955354193E+02  0.73217421151E+02 -0.89691622442E+02  0.13902339528E+03  0.00000000000E+00 0. -1.
</event>
<event>
 7    1  0.2810263E-009  0.1155277E+03  0.7561462E-02  0.1250663E+00
         -1   -1    0    0    0  501 -0.00000000000E+00  0.00000000000E+00  0.26322816444E+03  0.26322816444E+03  0.00000000000E+00 0.  1.
          1   -1    0    0  501    0  0.00000000000E+00 -0.00000000000E+00 -0.10477932483E+03  0.10477932483E+03  0.00000000000E+00 0. -1.
         25    2    1    2    0    0  0.77041199707E+02 -0.45913732651E+02  0.18237274373E+03  0.23863990713E+03  0.12508305370E+03 0.  0.
          5    1    3    3  502    0  0.41475354276E+02  0.12202138870E+02 -0.50450676147E+00  0.43437588934E+02  0.41800000000E+01 0.  1.
         -5    1    3    3    0  502  0.35565845431E+02 -0.58115871521E+02  0.18287725049E+03  0.19520231820E+03  0.41800000000E+01 0.  1.
        -11    1    1    2    0    0 -0.66915351492E+02  0.67789011632E+02 -0.36709642492E+02  0.10208139995E+03  0.00000000000E+00 0. -1.
         11    1    1    2    0    0 -0.10125848215E+02 -0.21875278982E+02  0.12785738371E+02  0.27286182186E+02  0.00000000000E+00 0.  1.
</event>
<event>
 7    1  0.2810263E-009  0.1066233E+03  0.7561462E-02  0.1266954E+00
         -1   -1    0    0    0  501 -0.00000000000E+00  0.00000000000E+00  0.52754622230E+02  0.52754622230E+02  0.00000000000E+00 0.  1.
          1   -1    0    0  501    0  0.00000000000E+00 -0.00000000000E+00 -0.25949680307E+03  0.25949680307E+03  0.00000000000E+00 0. -1.
         25    2    1    2    0    0 -0.11622923948E+02  0.40641795414E+02 -0.94130478714E+02  0.16215803247E+03  0.12509129697E+03 0.  0.
          5    1    3    3  502    0 -0.62762105880E+01  0.84325106919E+02 -0.77952710006E+02  0.11508349957E+03  0.41800000000E+01 0. -1.
         -5    1    3    3    0  502 -0.53467133601E+01 -0.43683311505E+02 -0.16177768708E+02  0.47074532904E+02  0.41800000000E+01 0. -1.
        -11    1    1    2    0    0 -0.19680542549E+02 -0.48295952925E+02 -0.10461002133E+03  0.11688917566E+03  0.00000000000E+00 0. -1.
         11    1    1    2    0    0  0.31303466497E+02  0.76541575109E+01 -0.80016807967E+01  0.33204217165E+02  0.00000000000E+00 0.  1.
</event>
<event>
 7    1  0.2810263E-009  0.1143768E+03  0.7561462E-02  0.1252673E+00
         -3   -1    0    0    0  501 -0.00000000000E+00  0.00000000000E+00  0.49792114767E+03  0.49792114767E+03  0.00000000000E+00 0.  1.
          3   -1    0    0  501    0  0.00000000000E+00 -0.00000000000E+00 -0.31010890442E+02  0.31010890442E+02  0.00000000000E+00 0. -1.
         25    2    1    2    0    0 -0.44997498583E+02  0.33537078694E+02  0.30569288556E+03  0.33502912436E+03  0.12508742288E+03 0.  0.
          5    1    3    3  502    0  0.73523450705E+01 -0.42896001969E+02  0.11357943403E+03  0.12170408455E+03  0.41800000000E+01 0. -1.
         -5    1    3    3    0  502 -0.52349843654E+02  0.76433080663E+02  0.19211345153E+03  0.21332503981E+03  0.41800000000E+01 0. -1.
        -11    1    1    2    0    0  0.45233397304E+02  0.11968048287E+02  0.13144143390E+03  0.13952112728E+03  0.00000000000E+00 0.  1.
         11    1    1    2    0    0 -0.23589872141E+00 -0.45505126981E+02  0.29775937768E+02  0.54381786471E+02  0.00000000000E+00 0. -1.
</event>
<event>
 7    1  0.2810263E-009  0.1719144E+03  0.7561462E-02  0.1175866E+00
          4   -1    0    0  501    0  0.00000000000E+00  0.00000000000E+00  0.19396754172E+03  0.19396754172E+03  0.00000000000E+00 0. -1.
         -4   -1    0    0    0  501 -0.00000000000E+00 -0.00000000000E+00 -0.20556295409E+03  0.20556295409E+03  0.00000000000E+00 0.  1.
         25    2    1    2    0    0  0.83478473994E+02  0.12188087325E+03  0.73663318610E+02  0.20711516433E+03  0.12508718521E+03 0.  0.
          5    1    3    3  502    0 -0.24249286329E+01  0.77990983344E+02  0.78070588035E+02  0.11045796883E+03  0.41800000000E+01 0.  1.
         -5    1    3    3    0  502  0.85903402627E+02  0.43889889908E+02 -0.44072694251E+01  0.96657195504E+02  0.41800000000E+01 0.  1.
        -11    1    1    2    0    0  0.14581752311E+02 -0.35774700316E+02 -0.43666346164E+01  0.38878325337E+02  0.00000000000E+00 0. -1.
         11    1    1    2    0    0 -0.98060226304E+02 -0.86106172936E+02 -0.80892096359E+02  0.15353700614E+03  0.00000000000E+00 0.  1.
</event>
<event>
 7    1  0.2810263E-009  0.1547779E+03  0.7561462E-02  0.1194722E+00
         -2   -1    0    0    0  501 -0.00000000000E+00  0.00000000000E+00  0.22877981667E+03  0.22877981667E+03  0.00000000000E+00 0.  1.
          2   -1    0    0  501    0  0.00000000000E+00 -0.00000000000E+00 -0.11126260887E+03  0.11126260887E+03  0.00000000000E+00 0. -1.
         25    2    1    2    0    0  0.55622130955E+02 -0.10010878673E+03  0.39097169139E+02  0.17405042664E+03  0.12509744899E+03 0.  0.
          5    1    3    3  502    0  0.88765952185E+02 -0.34847782898E+02  0.30640311968E+02  0.10025000428E+03  0.41800000000E+01 0.  1.
         -5    1    3    3    0  502 -0.33143821229E+02 -0.65261003836E+02  0.84568571708E+01  0.73800422360E+02  0.41800000000E+01 0.  1.
        -11    1    1    2    0    0 -0.30412046903E+02 -0.66189154032E+01  0.37991044242E+02  0.49112341429E+02  0.00000000000E+00 0. -1.
         11    1    1    2    0    0 -0.25210084052E+02  0.10672770214E+03  0.40428994419E+02  0.11687965747E+03  0.00000000000E+00 0.  1.
</event>
<event>
 7    1  0.2810263E-009  0.1019348E+03  0.7561462E-02  0.1276279E+00
         -3   -1    0    0    0  501 -0.00000000000E+00  0.00000000000E+00  0.22072167116E+03  0.22072167116E+03  0.00000000000E+00 0.  1.
          3   -1    0    0  501    0  0.00000000000E+00 -0.00000000000E+00 -0.55455063371E+02  0.55455063371E+02  0.00000000000E+00 0. -1.
         25    2    1    2    0    0 -0.19778099835E+02 -0.18674376979E+01  0.77805402071E+02  0.14864221401E+03  0.12508463789E+03 0.  0.
          5    1    3    3  502    0  0.30730113494E+02  0.42017343765E+02  0.97752012159E+01  0.53130255140E+02  0.41800000000E+01 0.  1.
         -5    1    3    3    0  502 -0.50508213330E+02 -0.43884781463E+02  0.68030200855E+02  0.95511958865E+02  0.41800000000E+01 0.  1.
        -11    1    1    2    0    0  0.42235352641E+02  0.27598538304E+02  0.24910945783E+02  0.56267748747E+02  0.00000000000E+00 0. -1.
         11    1    1    2    0    0 -0.22457252805E+02 -0.25731100606E+02  0.62550259936E+02  0.71266771781E+02  0.00000000000E+00 0.  1.
</event>
<event>
 7    1  0.2810263E-009  0.8074089E+02  0.7561462E-02  0.1326962E+00
         -1   -1    0    0    0  501 -0.00000000000E+00  0.00000000000E+00  0.73584329888E+02  0.73584329888E+02  0.00000000000E+00 0.  1.
          1   -1    0    0  501    0  0.00000000000E+00 -0.00000000000E+00 -0.31273766303E+03  0.31273766303E+03  0.00000000000E+00 0. -1.
         25    2    1    2    0    0 -0.40848050787E+00 -0.24044229518E+02 -0.26028938793E+03  0.28978692657E+03  0.12509038937E+03 0.  0.
          5    1    3    3  502    0  0.26734040670E+02  0.17917910039E+02 -0.22764853797E+03  0.22995018955E+03  0.41800000000E+01 0. -1.
         -5    1    3    3    0  502 -0.27142521178E+02 -0.41962139557E+02 -0.32640849956E+02  0.59836737026E+02  0.41800000000E+01 0. -1.
        -11    1    1    2    0    0 -0.15456538953E+02 -0.23852415344E+02 -0.17151733709E+02  0.33196751097E+02  0.00000000000E+00 0. -1.
         11    1    1    2    0    0  0.15865019461E+02  0.47896644862E+02  0.38287788492E+02  0.63338315254E+02  0.00000000000E+00 0.  1.
</event>
<event>
 7    1  0.2810263E-009  0.1033963E+03  0.7561462E-02  0.1273312E+00
         -2   -1    0    0    0  501 -0.00000000000E+00  0.00000000000E+00  0.18082689230E+02  0.18082689230E+02  0.00000000000E+00 0.  1.
          2   -1    0    0  501    0  0.00000000000E+00 -0.00000000000E+00 -0.75331459226E+03  0.75331459226E+03  0.00000000000E+00 0. -1.
         25    2    1    2    0    0  0.19172079903E+02  0.30565523833E+02 -0.34141942439E+03  0.36540306257E+03  0.12510137847E+03 0.  0.
          5    1    3    3  502    0  0.44385507607E+02 -0.22136915844E+02 -0.60028898282E+02  0.77981134626E+02  0.41800000000E+01 0.  1.
         -5    1    3    3    0  502 -0.25213427704E+02  0.52702439677E+02 -0.28139052610E+03  0.28742192795E+03  0.41800000000E+01 0.  1.
        -11    1    1    2    0    0  0.66130410710E+01 -0.59397500278E+02 -0.22441090511E+03  0.23223274895E+03  0.00000000000E+00 0.  1.
         11    1    1    2    0    0 -0.25785120974E+02  0.28831976445E+02 -0.16940157354E+03  0.17376146997E+03  0.00000000000E+00 0. -1.
</event>
<event>
 7    1  0.2810263E-009  0.9025157E+02  0.7561462E-02  0.1302244E+00
          3   -1    0    0  501    0  0.00000000000E+00  0.00000000000E+00  0.24668615126E+03  0.24668615126E+03  0.00000000000E+00 0. -1.
         -3   -1    0    0    0  501 -0.00000000000E+00 -0.00000000000E+00 -0.59831277131E+02  0.59831277131E+02  0.00000000000E+00 0.  1.
         25    2    1    2    0    0 -0.42993432882E+02  0.31715809773E+02  0.11933770874E+03  0.18095375523E+03  0.12509374463E+03 0.  0.
          5    1    3    3  502    0  0.11598012727E+02  0.27569857231E+02 -0.16517190976E+02  0.34422389875E+02  0.41800000000E+01 0.  1.
         -5    1    3    3    0  502 -0.54591445608E+02  0.41459525417E+01  0.13585489972E+03  0.14653136536E+03  0.41800000000E+01 0.  1.
        -11    1    1    2    0    0  0.41493104809E+02  0.18304796825E+02  0.59608683497E+02  0.74899522574E+02  0.00000000000E+00 0.  1.
         11    1    1    2    0    0  0.15003280726E+01 -0.50020606598E+02  0.79084818906E+01  0.50664150586E+02  0.00000000000E+00 0. -1.
</event>
<event>
 7    1  0.2810263E-009  0.1765891E+03  0.7561462E-02  0.1171146E+00
          1   -1    0    0  501    0  0.00000000000E+00  0.00000000000E+00  0.44503567532E+02  0.44503567532E+02  0.00000000000E+00 0. -1.
         -1   -1    0    0    0  501 -0.00000000000E+00 -0.00000000000E+00 -0.99215561850E+03  0.99215561850E+03  0.00000000000E+00 0.  1.
         25    2    1    2    0    0  0.69850499120E+02  0.15971651095E+03 -0.38844375628E+03  0.44376061867E+03  0.12508588564E+03 0.  0.
          5    1    3    3  502    0  0.33404852387E+02  0.11589856308E+03 -0.12332994354E+03  0.17255755115E+03  0.41800000000E+01 0.  1.
         -5    1    3    3    0  502  0.36445646733E+02  0.43817947879E+02 -0.26511381275E+03  0.27120306752E+03  0.41800000000E+01 0.  1.
        -11    1    1    2    0    0 -0.31774721643E+02 -0.95935136865E+02 -0.17951052134E+03  0.20600293855E+03  0.00000000000E+00 0. -1.
         11    1    1    2    0    0 -0.38075777478E+02 -0.63781374090E+02 -0.37969777334E+03  0.38689562881E+03  0.00000000000E+00 0.  1.
</event>
<event>
 7    1  0.2810263E-009  0.1624247E+03  0.7561462E-02  0.1185986E+00
         -3   -1    0    0    0  501 -0.00000000000E+00  0.00000000000E+00  0.91894592614E+02  0.91894592614E+02  0.00000000000E+00 0.  1.
          3   -1    0    0  501    0  0.00000000000E+00 -0.00000000000E+00 -0.31722902997E+03  0.31722902997E+03  0.00000000000E+00 0. -1.
         25    2    1    2    0    0  0.98431186152E+02 -0.91995267670E+02 -0.13678374789E+03  0.22914795638E+03  0.12508862676E+03 0.  0.
          5    1    3    3  502    0  0.10708865095E+03 -0.17344153181E+02 -0.79447178149E+02  0.13452927312E+03  0.41800000000E+01 0. -1.
         -5    1    3    3    0  502 -0.86574647962E+01 -0.74651114489E+02 -0.57336569741E+02  0.94618683255E+02  0.41800000000E+01 0. -1.
        -11    1    1    2    0    0 -0.35672582933E+02  0.86868619575E+01 -0.62473137748E+02  0.72463009072E+02  0.00000000000E+00 0. -1.
         11    1    1    2    0    0 -0.62758603219E+02  0.83308405713E+02 -0.26077551719E+02  0.10751265713E+03  0.00000000000E+00 0.  1.
</event>
<event>
 7    1  0.2810263E-009  0.1290708E+03  0.7561462E-02  0.1228841E+00
          4   -1    0    0  501    0  0.00000000000E+00  0.00000000000E+00  0.10712319794E+04  0.10712319794E+04  0.00000000000E+00 0. -1.
         -4   -1    0    0    0  501 -0.00000000000E+00 -0.00000000000E+00 -0.15878629291E+02  0.15878629291E+02  0.00000000000E+00 0.  1.
         25    2    1    2    0    0 -0.34558111701E+02 -0.63226613298E+02  0.61005449155E+03  0.62690075780E+03  0.12508481025E+03 0.  0.
          5    1    3    3  502    0 -0.66674121578E+02  0.68496190767E+01  0.28451656755E+03  0.29233457780E+03  0.41800000000E+01 0. -1.
         -5    1    3    3    0  502  0.32116009877E+02 -0.70076232375E+02  0.32553792400E+03  0.33456618000E+03  0.41800000000E+01 0. -1.
        -11    1    1    2    0    0  0.63522660982E+02  0.31759326186E+02  0.32088416457E+03  0.32864940336E+03  0.00000000000E+00 0. -1.
         11    1    1    2    0    0 -0.28964549282E+02  0.31467287112E+02  0.12441469396E+03  0.13156044750E+03  0.00000000000E+00 0.  1.
</event>
<event>
 7    1  0.2810263E-009  0.1060543E+03  0.7561462E-02  0.1268056E+00
          3   -1    0    0  501    0  0.00000000000E+00  0.00000000000E+00  0.10308702623E+03  0.10308702623E+03  0.00000000000E+00 0. -1.
         -3   -1    0    0    0  501 -0.00000000000E+00 -0.00000000000E+00 -0.17743763107E+03  0.17743763107E+03  0.00000000000E+00 0.  1.
         25    2    1    2    0    0 -0.90085746085E+00  0.31671430731E+02 -0.11827203353E+03  0.17503887939E+03  0.12508574784E+03 0.  0.
          5    1    3    3  502    0  0.11980312726E+02 -0.43539944035E+02 -0.73797456882E+02  0.86618656546E+02  0.41800000000E+01 0.  1.
         -5    1    3    3    0  502 -0.12881170187E+02  0.75211374765E+02 -0.44474576644E+02  0.88420222841E+02  0.41800000000E+01 0.  1.
        -11    1    1    2    0    0  0.39318176719E+02 -0.33815388505E+02  0.73069118528E+01  0.52371657231E+02  0.00000000000E+00 0. -1.
         11    1    1    2    0    0 -0.38417319258E+02  0.21439577744E+01  0.36614516832E+02  0.53114120691E+02  0.00000000000E+00 0.  1.
</event>
<event>
 7    1  0.2810263E-009  0.1210075E+03  0.7561462E-02  0.1241444E+00
         -1   -1    0    0    0  501 -0.00000000000E+00  0.00000000000E+00  0.55907250265E+02  0.55907250265E+02  0.00000000000E+00 0. -1.
          1   -1    0    0  501    0  0.00000000000E+00 -0.00000000000E+00 -0.34740692279E+03  0.34740692279E+03  0.00000000000E+00 0.  1.
         25    2    1    2    0    0 -0.57546969693E+02 -0.58499536181E+02 -0.20398613548E+03  0.25296455325E+03  0.12508745851E+03 0.  0.
          5    1    3    3  502    0  0.22644616110E+02 -0.56530202521E+02 -0.13061463324E+03  0.14417384386E+03  0.41800000000E+01 0. -1.
         -5    1    3    3    0  502 -0.80191585802E+02 -0.19693336600E+01 -0.73371502237E+02  0.10879070939E+03  0.41800000000E+01 0. -1.
        -11    1    1    2    0    0  0.64355870185E+02  0.29379684059E+02 -0.96011424794E+02  0.11926037713E+03  0.00000000000E+00 0.  1.
         11    1    1    2    0    0 -0.68089004919E+01  0.29119852122E+02  0.84978877562E+01  0.31089242670E+02  0.00000000000E+00 0. -1.
</event>
<event>
 7    1  0.2810263E-009  0.1348717E+03  0.7561462E-02  0.1220401E+00
         -2   -1    0    0    0  501 -0.00000000000E+00  0.00000000000E+00  0.79125483625E+02  0.79125483625E+02  0.00000000000E+00 0.  1.
          2   -1    0    0  501    0  0.00000000000E+00 -0.00000000000E+00 -0.26470814174E+03  0.26470814174E+03  0.00000000000E+00 0. -1.
         25    2    1    2    0    0 -0.19190466695E+02 -0.93925265873E+02 -0.10441526871E+03  0.18905059486E+03  0.12508936603E+03 0.  0.
          5    1    3    3  502    0  0.29132773362E+02  0.49521585642E+01 -0.65957951020E+02  0.72395898095E+02  0.41800000000E+01 0.  1.
         -5    1    3    3    0  502 -0.48323240057E+02 -0.98877424437E+02 -0.38457317692E+02  0.11665469676E+03  0.41800000000E+01 0.  1.
        -11    1    1    2    0    0 -0.31016552046E+02  0.64501789690E+02 -0.58096764637E+02  0.92183194973E+02  0.00000000000E+00 0. -1.
         11    1    1    2    0    0  0.50207018741E+02  0.29423476182E+02 -0.23070624761E+02  0.62599835530E+02  0.00000000000E+00 0.  1.
</event>
<event>
 7    1  0.2810263E-009  0.1012435E+03  0.7561462E-02  0.1277703E+00
          4   -1    0    0  501    0  0.00000000000E+00  0.00000000000E+00  0.17945719960E+03  0.17945719960E+03  0.00000000000E+00 0. -1.
         -4   -1    0    0    0  501 -0.00000000000E+00 -0.00000000000E+00 -0.82035036935E+02  0.82035036935E+02  0.00000000000E+00 0.  1.
         25    2    1    2    0    0 -0.31739506652E+02 -0.44812630045E+02  0.62549064567E+02  0.15025270501E+03  0.12509165356E+03 0.  0.
          5    1    3    3  502    0  0.33522179983E+01 -0.58809583965E+02 -0.17538562721E+02  0.61602582040E+02  0.41800000000E+01 0. -1.
         -5    1    3    3    0  502 -0.35091724651E+02  0.13996953920E+02  0.80087627288E+02  0.88650122970E+02  0.41800000000E+01 0. -1.
        -11    1    1    2    0    0  0.43816671800E+02 -0.13518634310E+02  0.11711481392E+02  0.47326662651E+02  0.00000000000E+00 0. -1.
         11    1    1    2    0    0 -0.12077165148E+02  0.58331264355E+02  0.23161616707E+02  0.63912868874E+02  0.00000000000E+00 0.  1.
</event>
<event>
 7    1  0.2810263E-009  0.7451117E+02  0.7561462E-02  0.1345391E+00
         -2   -1    0    0    0  501 -0.00000000000E+00  0.00000000000E+00  0.57492431360E+02  0.57492431360E+02  0.00000000000E+00 0.  1.
          2   -1    0    0  501    0  0.00000000000E+00 -0.00000000000E+00 -0.27222814387E+03  0.27222814387E+03  0.00000000000E+00 0. -1.
         25    2    1    2    0    0  0.29350181227E+02 -0.41104200071E+02 -0.71803358239E+02  0.15282056136E+03  0.12508962114E+03 0.  0.
          5    1    3    3  502    0  0.33923937700E+02 -0.59011241743E+02  0.99342415515E+01  0.68915323088E+02  0.41800000000E+01 0. -1.
         -5    1    3    3    0  502 -0.45737564726E+01  0.17907041672E+02 -0.81737599790E+02  0.83905238270E+02  0.41800000000E+01 0. -1.
        -11    1    1    2    0    0 -0.29791043642E+02  0.10979090115E+02 -0.14329424569E+03  0.14676950483E+03  0.00000000000E+00 0. -1.
         11    1    1    2    0    0  0.44086241464E+00  0.30125109956E+02  0.36189141804E+00  0.30130509038E+02  0.00000000000E+00 0.  1.
</event>
<event>
 7    1  0.2810263E-009  0.9824041E+02  0.7561462E-02  0.1284040E+00
         -2   -1    0    0    0  501 -0.00000000000E+00  0.00000000000E+00  0.29077794536E+03  0.29077794536E+03  0.00000000000E+00 0.  1.
          2   -1    0    0  501    0  0.00000000000E+00 -0.00000000000E+00 -0.49204695181E+02  0.49204695181E+02  0.00000000000E+00 0. -1.
         25    2    1    2    0    0  0.33851419483E+02 -0.20495329876E+02  0.89629964208E+02  0.15889199225E+03  0.12508859888E+03 0.  0.
          5    1    3    3  502    0 -0.41327365416E+02 -0.91055768580E+01  0.16834565763E+01  0.42557832278E+02  0.41800000000E+01 0. -1.
         -5    1    3    3    0  502  0.75178784899E+02 -0.11389753018E+02  0.87946507632E+02  0.11633415998E+03  0.41800000000E+01 0. -1.
        -11    1    1    2    0    0  0.20345878805E+02  0.97127044465E+01  0.36535978797E+01  0.22839443721E+02  0.00000000000E+00 0. -1.
         11    1    1    2    0    0 -0.54197298287E+02  0.10782625429E+02  0.14828968809E+03  0.15825120457E+03  0.00000000000E+00 0.  1.
</event>
<event>
 7    1  0.2810263E-009  0.1096164E+03  0.7561462E-02  0.1261282E+00
         -2   -1    0    0    0  501 -0.00000000000E+00  0.00000000000E+00  0.47460229239E+03  0.47460229239E+03  0.00000000000E+00 0.  1.
          2   -1    0    0  501    0  0.00000000000E+00 -0.00000000000E+00 -0.28831997664E+02  0.28831997664E+02  0.00000000000E+00 0. -1.
         25    2    1    2    0    0 -0.81717902868E+01 -0.45002135468E+02  0.30610384651E+03  0.33383093494E+03  0.12510618657E+03 0.  0.
          5    1    3    3  502    0  0.27715541144E+02  0.34392198519E+02  0.12888887391E+03  0.13631136695E+03  0.41800000000E+01 0. -1.
         -5    1    3    3    0  502 -0.35887331430E+02 -0.79394333986E+02  0.17721497260E+03  0.19751956799E+03  0.41800000000E+01 0. -1.
        -11    1    1    2    0    0 -0.28875010898E+02  0.41317544678E+02  0.11322719319E+03  0.12394072385E+03  0.00000000000E+00 0.  1.
         11    1    1    2    0    0  0.37046801185E+02  0.36845907893E+01  0.26439255022E+02  0.45662631258E+02  0.00000000000E+00 0. -1.
</event>
<event>
 7    1  0.2810263E-009  0.9958607E+02  0.7561462E-02  0.1281169E+00
         -2   -1    0    0    0  501 -0.00000000000E+00  0.00000000000E+00  0.22269528711E+02  0.22269528711E+02  0.00000000000E+00 0. -1.
          2   -1    0    0  501    0  0.00000000000E+00 -0.00000000000E+00 -0.67237502538E+03  0.67237502538E+03  0.00000000000E+00 0.  1.
         25    2    1    2    0    0 -0.23276695336E+02 -0.39601020205E+02 -0.45620478483E+03  0.47526782000E+03  0.12508656871E+03 0.  0.
          5    1    3    3  502    0 -0.55906930705E+02 -0.28722325431E+02 -0.10564288056E+03  0.12299775401E+03  0.41800000000E+01 0.  1.
         -5    1    3    3    0  502  0.32630235369E+02 -0.10878694774E+02 -0.35056190428E+03  0.35227006599E+03  0.41800000000E+01 0.  1.
        -11    1    1    2    0    0  0.56838002297E+02  0.37103925054E+02 -0.11399303327E+03  0.13267129077E+03  0.00000000000E+00 0. -1.
         11    1    1    2    0    0 -0.33561306961E+02  0.24970951511E+01 -0.79907678566E+02  0.86705443330E+02  0.00000000000E+00 0.  1.
</event>
<event>
 7    1  0.3012600E-009  0.1480840E+03  0.7561462E-02  0.1202847E+00
          1   -1    0    0  501    0  0.00000000000E+00  0.00000000000E+00  0.14123796515E+03  0.14123796515E+03  0.00000000000E+00 0. -1.
         -1   -1    0    0    0  501 -0.00000000000E+00 -0.00000000000E+00 -0.16994778981E+03  0.16994778981E+03  0.00000000000E+00 0.  1.
         25    2    1    2    0    0  0.10806226862E+03 -0.22763690250E+02 -0.16046972330E+02  0.16763281867E+03  0.12509043562E+03 0.  0.
          5    1    3    3  502    0  0.72357464844E+01 -0.50941754784E+02 -0.33324540450E+02  0.61444412308E+02  0.41800000000E+01 0.  1.
         -5    1    3    3    0  502  0.10082652213E+03  0.28178064535E+02  0.17277568120E+02  0.10618840636E+03  0.41800000000E+01 0.  1.
        -11    1    1    2    0    0 -0.69906769167E+02 -0.28816469050E+02  0.82737465415E+01  0.76064447318E+02  0.00000000000E+00 0.  1.
         11    1    1    2    0    0 -0.38155499449E+02  0.51580159300E+02 -0.20936598871E+02  0.67488488973E+02  0.00000000000E+00 0. -1.
</event>
<event>
 7    1  0.2810263E-009  0.1352039E+03  0.7561462E-02  0.1219932E+00
          2   -1    0    0  501    0  0.00000000000E+00  0.00000000000E+00  0.13361626400E+04  0.13361626400E+04  0.00000000000E+00 0.  1.
         -2   -1    0    0    0  501 -0.00000000000E+00 -0.00000000000E+00 -0.16638363585E+02  0.16638363585E+02  0.00000000000E+00 0. -1.
         25    2    1    2    0    0  0.73275489756E+02 -0.61133172948E+02  0.75445372606E+03  0.77068450662E+03  0.12509045424E+03 0.  0.
          5    1    3    3  502    0  0.99407035567E+02 -0.53826164589E+02  0.41559103652E+03  0.43071150060E+03  0.41800000000E+01 0.  1.
         -5    1    3    3    0  502 -0.26131545811E+02 -0.73070083596E+01  0.33886268954E+03  0.33997300602E+03  0.41800000000E+01 0.  1.
        -11    1    1    2    0    0 -0.81565574580E+01  0.64127853561E+02  0.17339566676E+03  0.18505396046E+03  0.00000000000E+00 0. -1.
         11    1    1    2    0    0 -0.65118932298E+02 -0.29946806130E+01  0.39167488358E+03  0.39706253649E+03  0.00000000000E+00 0.  1.
</event>
<event>
 7    1  0.2810263E-009  0.2094887E+03  0.7561462E-02  0.1141971E+00
          2   -1    0    0  501    0  0.00000000000E+00  0.00000000000E+00  0.59129481427E+03  0.59129481427E+03  0.00000000000E+00 0. -1.
         -2   -1    0    0    0  501 -0.00000000000E+00 -0.00000000000E+00 -0.93126007104E+02  0.93126007104E+02  0.00000000000E+00 0.  1.
         25    2    1    2    0    0 -0.83308040677E+02 -0.15834930096E+03  0.10384658931E+03  0.24175126485E+03  0.12507929162E+03 0.  0.
          5    1    3    3  502    0 -0.14184925043E+02  0.21096498195E+02  0.89697680366E+01  0.27280092984E+02  0.41800000000E+01 0.  1.
         -5    1    3    3    0  502 -0.69123115634E+02 -0.17944579915E+03  0.94876821276E+02  0.21447117187E+03  0.41800000000E+01 0.  1.
        -11    1    1    2    0    0 -0.60230118593E+01  0.85194735547E+02  0.15595102093E+03  0.17780646941E+03  0.00000000000E+00 0.  1.
         11    1    1    2    0    0  0.89331052537E+02  0.73154565411E+02  0.23837119693E+03  0.26486308711E+03  0.00000000000E+00 0. -1.
</event>
<event>
 7    1  0.2810263E-009  0.1143253E+03  0.7561462E-02  0.1252764E+00
          1   -1    0    0  501    0  0.00000000000E+00  0.00000000000E+00  0.81441988182E+03  0.81441988182E+03  0.00000000000E+00 0. -1.
         -1   -1    0    0    0  501 -0.00000000000E+00 -0.00000000000E+00 -0.22518138256E+02  0.22518138256E+02  0.00000000000E+00 0.  1.
         25    2    1    2    0    0 -0.54507888441E+02  0.81402267400E+01  0.62103554960E+03  0.63590152051E+03  0.12509283248E+03 0.  0.
          5    1    3    3  502    0  0.18870501304E+02  0.40268600089E+02  0.36161245592E+03  0.36436066836E+03  0.41800000000E+01 0. -1.
         -5    1    3    3    0  502 -0.73378389746E+02 -0.32128373349E+02  0.25942309368E+03  0.27154085215E+03  0.41800000000E+01 0. -1.
        -11    1    1    2    0    0  0.40706817823E+02  0.37953525406E+02  0.11151473217E+03  0.12463165970E+03  0.00000000000E+00 0. -1.
         11    1    1    2    0    0  0.13801070619E+02 -0.46093752146E+02  0.59351461799E+02  0.76404839865E+02  0.00000000000E+00 0.  1.
</event>
<event>
 7    1  0.2810263E-009  0.1512976E+03  0.7561462E-02  0.1198887E+00
         -2   -1    0    0    0  501 -0.00000000000E+00  0.00000000000E+00  0.35651260488E+02  0.35651260488E+02  0.00000000000E+00 0.  1.
          2   -1    0    0  501    0  0.00000000000E+00 -0.00000000000E+00 -0.82225941319E+03  0.82225941319E+03  0.00000000000E+00 0. -1.
         25    2    1    2    0    0 -0.94122315913E+02  0.81954693145E+02 -0.52116671789E+03  0.55030764352E+03  0.12509265607E+03 0.  0.
          5    1    3    3  502    0 -0.77546134337E+02 -0.10974861612E+02 -0.18101112444E+03  0.19727227405E+03  0.41800000000E+01 0. -1.
         -5    1    3    3    0  502 -0.16576181575E+02  0.92929554757E+02 -0.34015559345E+03  0.35303536948E+03  0.41800000000E+01 0. -1.
        -11    1    1    2    0    0  0.18321280981E+02 -0.38769754059E+00  0.14817509029E+01  0.18385190559E+02  0.00000000000E+00 0.  1.
         11    1    1    2    0    0  0.75801034932E+02 -0.81566995605E+02 -0.26692318571E+03  0.28921783960E+03  0.00000000000E+00 0. -1.
</event>
<event>
 7    1  0.2810263E-009  0.1040026E+03  0.7561462E-02  0.1272097E+00
         -1   -1    0    0    0  501 -0.00000000000E+00  0.00000000000E+00  0.37616960756E+02  0.37616960756E+02  0.00000000000E+00 0.  1.
          1   -1    0    0  501    0  0.00000000000E+00 -0.00000000000E+00 -0.36316144282E+03  0.36316144282E+03  0.00000000000E+00 0. -1.
         25    2    1    2    0    0 -0.38243603745E+01  0.41148705225E+01 -0.11082759106E+03  0.16721251216E+03  0.12508281814E+03 0.  0.
          5    1    3    3  502    0 -0.41292059926E+01  0.61610645111E+02 -0.32345016387E+02  0.69832617151E+02  0.41800000000E+01 0. -1.
         -5    1    3    3    0  502  0.30484561812E+00 -0.57495774588E+02 -0.78482574668E+02  0.97379895014E+02  0.41800000000E+01 0. -1.
        -11    1    1    2    0    0 -0.29657217892E+02 -0.32913164130E+02 -0.13923581536E+03  0.14611447302E+03  0.00000000000E+00 0. -1.
         11    1    1    2    0    0  0.33481578266E+02  0.28798293607E+02 -0.75481075648E+02  0.87451418393E+02  0.00000000000E+00 0.  1.
</event>
<event>
 7    1  0.2810263E-009  0.9845083E+02  0.7561462E-02  0.1283588E+00
          2   -1    0    0  501    0  0.00000000000E+00  0.00000000000E+00  0.11179426865E+02  0.11179426865E+02  0.00000000000E+00 0. -1.
         -2   -1    0    0    0  501 -0.00000000000E+00 -0.00000000000E+00 -0.12545145196E+04  0.12545145196E+04  0.00000000000E+00 0.  1.
         25    2    1    2    0    0  0.14940991930E+02  0.90383796899E+01 -0.94103225331E+03  0.94947022586E+03  0.12508829874E+03 0.  0.
          5    1    3    3  502    0 -0.15361302266E+02 -0.48614206308E+02 -0.23913167092E+03  0.24454189640E+03  0.41800000000E+01 0.  1.
         -5    1    3    3    0  502  0.30302294196E+02  0.57652585998E+02 -0.70190058240E+03  0.70492832946E+03  0.41800000000E+01 0.  1.
        -11    1    1    2    0    0 -0.36129793210E+01 -0.43785902191E+02 -0.24003469715E+03  0.24402236513E+03  0.00000000000E+00 0.  1.
         11    1    1    2    0    0 -0.11328012609E+02  0.34747522501E+02 -0.62268142300E+02  0.72201355493E+02  0.00000000000E+00 0. -1.
</event>
<event>
 7    1  0.2810263E-009  0.1058441E+03  0.7561462E-02  0.1268465E+00
          2   -1    0    0  501    0  0.00000000000E+00  0.00000000000E+00  0.85485641631E+03  0.85485641631E+03  0.00000000000E+00 0. -1.
         -2   -1    0    0    0  501 -0.00000000000E+00 -0.00000000000E+00 -0.14155729054E+02  0.14155729054E+02  0.00000000000E+00 0.  1.
         25    2    1    2    0    0 -0.71322240472E+01  0.16055089273E+02  0.50211598276E+03  0.51776131877E+03  0.12509072134E+03 0.  0.
          5    1    3    3  502    0  0.52509744951E+02  0.32051626007E+02  0.19672839996E+03  0.20616526331E+03  0.41800000000E+01 0.  1.
         -5    1    3    3    0  502 -0.59641968998E+02 -0.15996536734E+02  0.30538758280E+03  0.31159605547E+03  0.41800000000E+01 0.  1.
        -11    1    1    2    0    0  0.12342943344E+01 -0.51846955376E+02  0.13822596874E+03  0.14763484920E+03  0.00000000000E+00 0. -1.
         11    1    1    2    0    0  0.58979297128E+01  0.35791866104E+02  0.20035873575E+03  0.20361597738E+03  0.00000000000E+00 0.  1.
</event>
<event>
 7    1  0.2810263E-009  0.1026725E+03  0.7561462E-02  0.1274774E+00
          2   -1    0    0  501    0  0.00000000000E+00  0.00000000000E+00  0.44016154613E+02  0.44016154613E+02  0.00000000000E+00 0. -1.
         -2   -1    0    0    0  501 -0.00000000000E+00 -0.00000000000E+00 -0.41996637897E+03  0.41996637897E+03  0.00000000000E+00 0.  1.
         25    2    1    2    0    0  0.74992066688E+02  0.23497505866E+02 -0.16740926297E+03  0.22326961252E+03  0.12509003037E+03 0.  0.
          5    1    3    3  502    0  0.18709583455E+02  0.37541938461E+02  0.39227739374E+01  0.42335637610E+02  0.41800000000E+01 0. -1.
         -5    1    3    3    0  502  0.56282483233E+02 -0.14044432595E+02 -0.17133203691E+03  0.18093397491E+03  0.41800000000E+01 0. -1.
        -11    1    1    2    0    0 -0.29631286952E+02 -0.45750132975E+02 -0.16581507215E+03  0.17454433817E+03  0.00000000000E+00 0.  1.
         11    1    1    2    0    0 -0.45360779736E+02  0.22252627109E+02 -0.42725889235E+02  0.66168582896E+02  0.00000000000E+00 0. -1.
</event>
<event>
 7    1  0.2810263E-009  0.1135081E+03  0.7561462E-02  0.1254208E+00
         -1   -1    0    0    0  501 -0.00000000000E+00  0.00000000000E+00  0.31712151158E+03  0.31712151158E+03  0.00000000000E+00 0.  1.
          1   -1    0    0  501    0  0.00000000000E+00 -0.00000000000E+00 -0.48429695327E+02  0.48429695327E+02  0.00000000000E+00 0. -1.
         25    2    1    2    0    0 -0.62356807781E+01  0.54258711859E+02  0.18611426818E+03  0.23080110011E+03  0.12509090881E+03 0.  0.
          5    1    3    3  502    0  0.14940581262E+02  0.86435990217E+02  0.16440082547E+03  0.18638536742E+03  0.41800000000E+01 0. -1.
         -5    1    3    3    0  502 -0.21176262041E+02 -0.32177278358E+02  0.21713442706E+02  0.44415732693E+02  0.41800000000E+01 0. -1.
        -11    1    1    2    0    0 -0.39142883616E+02 -0.24135494195E+02  0.15906275919E+02  0.48658987160E+02  0.00000000000E+00 0.  1.
         11    1    1    2    0    0  0.45378564394E+02 -0.30123217664E+02  0.66671272160E+02  0.86091119637E+02  0.00000000000E+00 0. -1.
</event>
<event>
 7    1  0.2876051E-009  0.1173797E+03  0.7561462E-02  0.1247483E+00
         -2   -1    0    0    0  501 -0.00000000000E+00  0.00000000000E+00  0.65867505205E+02  0.65867505205E+02  0.00000000000E+00 0.  1.
          2   -1    0    0  501    0  0.00000000000E+00 -0.00000000000E+00 -0.37809743942E+03  0.37809743942E+03  0.00000000000E+00 0. -1.
         25    2    1    2    0    0  0.91675088338E+02 -0.48952686679E+02 -0.23406832644E+03  0.28501851619E+03  0.12508751248E+03 0.  0.
          5    1    3    3  502    0  0.16215661206E+02  0.16212091649E+02 -0.15755954829E+03  0.15927417632E+03  0.41800000000E+01 0. -1.
         -5    1    3    3    0  502  0.75459427132E+02 -0.65164778328E+02 -0.76508778145E+02  0.12574433988E+03  0.41800000000E+01 0. -1.
        -11    1    1    2    0    0 -0.91307923450E+02  0.35127911401E+02 -0.20901488719E+02  0.10003988842E+03  0.00000000000E+00 0.  1.
         11    1    1    2    0    0 -0.36716488804E+00  0.13824775278E+02 -0.57260119062E+02  0.58906540015E+02  0.00000000000E+00 0. -1.
</event>
<event>
 7    1  0.2810263E-009  0.1162331E+03  0.7561462E-02  0.1249444E+00
          1   -1    0    0  501    0  0.00000000000E+00  0.00000000000E+00  0.19312619582E+02  0.19312619582E+02  0.00000000000E+00 0. -1.
         -1   -1    0    0    0  501 -0.00000000000E+00 -0.00000000000E+00 -0.87501251672E+03  0.87501251672E+03  0.00000000000E+00 0.  1.
         25    2    1    2    0    0  0.66592827991E+02  0.22551579725E+02 -0.42804358636E+03  0.45145563206E+03  0.12509075668E+03 0.  0.
          5    1    3    3  502    0  0.90587202667E+02  0.22665509636E+01 -0.18173950346E+03  0.20312040286E+03  0.41800000000E+01 0. -1.
         -5    1    3    3    0  502 -0.23994374677E+02  0.20285028761E+02 -0.24630408290E+03  0.24833522920E+03  0.41800000000E+01 0. -1.
        -11    1    1    2    0    0 -0.23457832035E+02 -0.52528958287E+02 -0.28735734046E+03  0.29305938384E+03  0.00000000000E+00 0.  1.
         11    1    1    2    0    0 -0.43134995956E+02  0.29977378563E+02 -0.14029897031E+03  0.14981012040E+03  0.00000000000E+00 0. -1.
</event>
<event>
 7    1  0.2810263E-009  0.1104742E+03  0.7561462E-02  0.1259694E+00
         -1   -1    0    0    0  501 -0.00000000000E+00  0.00000000000E+00  0.24686615810E+02  0.24686615810E+02  0.00000000000E+00 0.  1.
          1   -1    0    0  501    0  0.00000000000E+00 -0.00000000000E+00 -0.53064957476E+03  0.53064957476E+03  0.00000000000E+00 0. -1.
         25    2    1    2    0    0  0.22445773713E+02  0.22663337372E+02 -0.33804371156E+03  0.36185212453E+03  0.12508384983E+03 0.  0.
          5    1    3    3  502    0  0.22272763119E+01 -0.51461541755E+02 -0.15104253440E+03  0.15963887570E+03  0.41800000000E+01 0.  1.
         -5    1    3    3    0  502  0.20218497401E+02  0.74124879127E+02 -0.18700117716E+03  0.20221324883E+03  0.41800000000E+01 0.  1.
        -11    1    1    2    0    0 -0.53615750010E+02  0.28488636539E+00 -0.12306795420E+03  0.13424027399E+03  0.00000000000E+00 0.  1.
         11    1    1    2    0    0  0.31169976297E+02 -0.22948223737E+02 -0.44851293189E+02  0.59243792044E+02  0.00000000000E+00 0. -1.
</event>
<event>
 7    1  0.2810263E-009  0.9968490E+02  0.7561462E-02  0.1280960E+00
         -1   -1    0    0    0  501 -0.00000000000E+00  0.00000000000E+00  0.22807187867E+02  0.22807187867E+02  0.00000000000E+00 0.  1.
          1   -1    0    0  501    0  0.00000000000E+00 -0.00000000000E+00 -0.11558007070E+04  0.11558007070E+04  0.00000000000E+00 0. -1.
         25    2    1    2    0    0  0.50070725871E+02 -0.69748999491E+02 -0.91183139707E+03  0.92436810784E+03  0.12509157280E+03 0.  0.
          5    1    3    3  502    0  0.60163410795E+02 -0.43904029027E+02 -0.87445839983E+03  0.87763441432E+03  0.41800000000E+01 0. -1.
         -5    1    3    3    0  502 -0.10092684923E+02 -0.25844970464E+02 -0.37372997241E+02  0.46733693520E+02  0.41800000000E+01 0. -1.
        -11    1    1    2    0    0 -0.22797217018E+02  0.10748337906E+01 -0.19461855259E+01  0.22905370757E+02  0.00000000000E+00 0.  1.
         11    1    1    2    0    0 -0.27273508854E+02  0.68674165701E+02 -0.21921593653E+03  0.23133441626E+03  0.00000000000E+00 0. -1.
</event>
<event>
 7    1  0.2810263E-009  0.1113387E+03  0.7561462E-02  0.1258111E+00
          1   -1    0    0  501    0  0.00000000000E+00  0.00000000000E+00  0.26789896334E+03  0.26789896334E+03  0.00000000000E+00 0. -1.
         -1   -1    0    0    0  501 -0.00000000000E+00 -0.00000000000E+00 -0.69647186121E+02  0.69647186121E+02  0.00000000000E+00 0.  1.
         25    2    1    2    0    0 -0.46453084988E+01  0.63754101644E+02  0.17353666656E+03  0.22326693607E+03  0.12508791202E+03 0.  0.
          5    1    3    3  502    0 -0.32857578019E+02  0.89788736543E+02  0.90621971174E+02  0.13180080312E+03  0.41800000000E+01 0. -1.
         -5    1    3    3    0  502  0.28212269520E+02 -0.26034634899E+02  0.82914695388E+02  0.91466132952E+02  0.41800000000E+01 0. -1.
        -11    1    1    2    0    0 -0.62002852527E+01  0.11104250548E+02  0.35652148452E+02  0.37852656534E+02  0.00000000000E+00 0. -1.
         11    1    1    2    0    0  0.10845593751E+02 -0.74858352192E+02 -0.10937037799E+02  0.76426556854E+02  0.00000000000E+00 0.  1.
</event>
<event>
 7    1  0.2810263E-009  0.2206481E+03  0.7561462E-02  0.1133401E+00
          1   -1    0    0  501    0  0.00000000000E+00  0.00000000000E+00  0.29327608391E+03  0.29327608391E+03  0.00000000000E+00 0. -1.
         -1   -1    0    0    0  501 -0.00000000000E+00 -0.00000000000E+00 -0.18393843702E+03  0.18393843702E+03  0.00000000000E+00 0.  1.
         25    2    1    2    0    0 -0.55822264795E+02 -0.19550861212E+03  0.27283585937E+02  0.24027397484E+03  0.12508975284E+03 0.  0.
          5    1    3    3  502    0 -0.36392272865E+02 -0.21012137346E+03  0.30261059021E+02  0.21542653783E+03  0.41800000000E+01 0.  1.
         -5    1    3    3    0  502 -0.19429991930E+02  0.14612761337E+02 -0.29774730840E+01  0.24847437016E+02  0.41800000000E+01 0.  1.
        -11    1    1    2    0    0  0.34564205428E+02  0.12542904414E+03  0.96892074083E+02  0.16221961482E+03  0.00000000000E+00 0. -1.
         11    1    1    2    0    0  0.21258059367E+02  0.70079567977E+02 -0.14838013126E+02  0.74720931267E+02  0.00000000000E+00 0.  1.
</event>
<event>
 7    1  0.2810263E-009  0.1388048E+03  0.7561462E-02  0.1214946E+00
         -2   -1    0    0    0  501 -0.00000000000E+00  0.00000000000E+00  0.78546892179E+02  0.78546892179E+02  0.00000000000E+00 0.  1.
          2   -1    0    0  501    0  0.00000000000E+00 -0.00000000000E+00 -0.28286670011E+03  0.28286670011E+03  0.00000000000E+00 0. -1.
         25    2    1    2    0    0 -0.84651284489E+02  0.22221922243E+02 -0.48498405558E+02  0.16018644713E+03  0.12509176115E+03 0.  0.
          5    1    3    3  502    0 -0.22545842687E+02 -0.49997873340E+02 -0.45233188424E+01  0.55190897567E+02  0.41800000000E+01 0. -1.
         -5    1    3    3    0  502 -0.62105441802E+02  0.72219795582E+02 -0.43975086715E+02  0.10499554956E+03  0.41800000000E+01 0. -1.
        -11    1    1    2    0    0  0.73582149631E+02 -0.55515992043E+02 -0.11569849629E+03  0.14792734757E+03  0.00000000000E+00 0.  1.
         11    1    1    2    0    0  0.11069134857E+02  0.33294069800E+02 -0.40122906083E+02  0.53299797588E+02  0.00000000000E+00 0. -1.
</event>
<event>
 7    1  0.2810263E-009  0.8223480E+02  0.7561462E-02  0.1322826E+00
          1   -1    0    0  501    0  0.00000000000E+00  0.00000000000E+00  0.14259357823E+04  0.14259357823E+04  0.00000000000E+00 0. -1.
         -1   -1    0    0    0  501 -0.00000000000E+00 -0.00000000000E+00 -0.20424322403E+02  0.20424322403E+02  0.00000000000E+00 0.  1.
         25    2    1    2    0    0 -0.11489912366E+02  0.62296078281E+02  0.12359218463E+04  0.12438510815E+04  0.12509949415E+03 0.  0.
          5    1    3    3  502    0  0.12428210464E+02  0.18077966847E+02  0.10744635414E+04  0.10746956069E+04  0.41800000000E+01 0. -1.
         -5    1    3    3    0  502 -0.23918122830E+02  0.44218111434E+02  0.16145830488E+03  0.16915547462E+03  0.41800000000E+01 0. -1.
        -11    1    1    2    0    0 -0.68758412330E+01 -0.71024612716E+02  0.66858005489E+02  0.97784281467E+02  0.00000000000E+00 0.  1.
         11    1    1    2    0    0  0.18365753599E+02  0.87285344349E+01  0.10273160814E+03  0.10472474173E+03  0.00000000000E+00 0. -1.
</event>
<event>
 7    1  0.2810263E-009  0.2170537E+03  0.7561462E-02  0.1136099E+00
          2   -1    0    0  501    0  0.00000000000E+00  0.00000000000E+00  0.13889574523E+03  0.13889574523E+03  0.00000000000E+00 0.  1.
         -2   -1    0    0    0  501 -0.00000000000E+00 -0.00000000000E+00 -0.39895103405E+03  0.39895103405E+03  0.00000000000E+00 0. -1.
         25    2    1    2    0    0 -0.94332926800E+02 -0.18602075667E+03 -0.13275526672E+03  0.27708115114E+03  0.12509028933E+03 0.  0.
          5    1    3    3  502    0 -0.52352413806E+02 -0.14136015020E+03 -0.15058285850E+03  0.21311062144E+03  0.41800000000E+01 0.  1.
         -5    1    3    3    0  502 -0.41980512993E+02 -0.44660606468E+02  0.17827591779E+02  0.63970529698E+02  0.41800000000E+01 0.  1.
        -11    1    1    2    0    0  0.72658565670E+02  0.60665823534E+02 -0.26043934740E+02  0.98172785674E+02  0.00000000000E+00 0.  1.
         11    1    1    2    0    0  0.21674361130E+02  0.12535493314E+03 -0.10125608736E+03  0.16259284246E+03  0.00000000000E+00 0. -1.
</event>
<event>
 7    1  0.2810263E-009  0.7976767E+02  0.7561462E-02  0.1329712E+00
          1   -1    0    0  501    0  0.00000000000E+00  0.00000000000E+00  0.26523050779E+03  0.26523050779E+03  0.00000000000E+00 0. -1.
         -1   -1    0    0    0  501 -0.00000000000E+00 -0.00000000000E+00 -0.54483676748E+02  0.54483676748E+02  0.00000000000E+00 0.  1.
         25    2    1    2    0    0  0.39991595052E+02  0.62438335691E+01  0.60652766499E+02  0.14479160134E+03  0.12509011393E+03 0.  0.
          5    1    3    3  502    0  0.68764219019E+01 -0.28887020924E+02 -0.29736948180E+02  0.42231547960E+02  0.41800000000E+01 0. -1.
         -5    1    3    3    0  502  0.33115173150E+02  0.35130854493E+02  0.90389714679E+02  0.10256005338E+03  0.41800000000E+01 0. -1.
        -11    1    1    2    0    0 -0.66078607142E+01 -0.35859106566E+02  0.31411569880E+02  0.48127186384E+02  0.00000000000E+00 0.  1.
         11    1    1    2    0    0 -0.33383734338E+02  0.29615272996E+02  0.11868249467E+03  0.12679539681E+03  0.00000000000E+00 0. -1.
</event>
<event>
 7    1  0.2810263E-009  0.1202592E+03  0.7561462E-02  0.1242670E+00
         -1   -1    0    0    0  501 -0.00000000000E+00  0.00000000000E+00  0.32432583879E+02  0.32432583879E+02  0.00000000000E+00 0.  1.
          1   -1    0    0  501    0  0.00000000000E+00 -0.00000000000E+00 -0.52742923715E+03  0.52742923715E+03  0.00000000000E+00 0. -1.
         25    2    1    2    0    0 -0.20692621074E+02 -0.70375525197E+02 -0.25924541538E+03  0.29704654013E+03  0.12509021741E+03 0.  0.
          5    1    3    3  502    0  0.43417153061E+02 -0.65935433259E+02 -0.16417132418E+03  0.18221478157E+03  0.41800000000E+01 0.  1.
         -5    1    3    3    0  502 -0.64109774135E+02 -0.44400919377E+01 -0.95074091203E+02  0.11483175856E+03  0.41800000000E+01 0.  1.
        -11    1    1    2    0    0 -0.23011720953E+02  0.21442974796E+02 -0.15791358163E+03  0.16101565059E+03  0.00000000000E+00 0.  1.
         11    1    1    2    0    0  0.43704342027E+02  0.48932550401E+02 -0.77837656255E+02  0.10179963031E+03  0.00000000000E+00 0. -1.
</event>
<event>
 7    1  0.2810263E-009  0.1742733E+03  0.7561462E-02  0.1173463E+00
         -2   -1    0    0    0  501 -0.00000000000E+00  0.00000000000E+00  0.96506350130E+02  0.96506350130E+02  0.00000000000E+00 0.  1.
          2   -1    0    0  501    0  0.00000000000E+00 -0.00000000000E+00 -0.35761083270E+03  0.35761083270E+03  0.00000000000E+00 0. -1.
         25    2    1    2    0    0 -0.14364319299E+03  0.50687579962E+02 -0.15452949822E+03  0.25045134081E+03  0.12507561968E+03 0.  0.
          5    1    3    3  502    0 -0.14321655441E+03  0.80372119205E+02 -0.14464284535E+03  0.21888280909E+03  0.41800000000E+01 0.  1.
         -5    1    3    3    0  502 -0.42663858515E+00 -0.29684539243E+02 -0.98866528707E+01  0.31568531729E+02  0.41800000000E+01 0.  1.
        -11    1    1    2    0    0  0.10960097578E+03 -0.27196495729E+02 -0.30333545363E+02  0.11692795751E+03  0.00000000000E+00 0.  1.
         11    1    1    2    0    0  0.34042217210E+02 -0.23491084233E+02 -0.76241438988E+02  0.86737884514E+02  0.00000000000E+00 0. -1.
</event>
<event>
 7    1  0.2810263E-009  0.1064501E+03  0.7561462E-02  0.1267289E+00
          1   -1    0    0  501    0  0.00000000000E+00  0.00000000000E+00  0.16860754950E+04  0.16860754950E+04  0.00000000000E+00 0. -1.
         -1   -1    0    0    0  501 -0.00000000000E+00 -0.00000000000E+00 -0.10251654392E+02  0.10251654392E+02  0.00000000000E+00 0.  1.
         25    2    1    2    0    0 -0.10603618320E+02 -0.19323120374E+02  0.13727168325E+04  0.13785806854E+04  0.12508950465E+03 0.  0.
          5    1    3    3  502    0 -0.10940738791E+02 -0.67851584041E+02  0.10447432922E+04  0.10470098167E+04  0.41800000000E+01 0. -1.
         -5    1    3    3    0  502  0.33712047132E+00  0.48528463666E+02  0.32797354029E+03  0.33157086870E+03  0.41800000000E+01 0. -1.
        -11    1    1    2    0    0  0.33407204762E+02 -0.27490351705E+02  0.13737331432E+03  0.14402495705E+03  0.00000000000E+00 0.  1.
         11    1    1    2    0    0 -0.22803586443E+02  0.46813472079E+02  0.16573369378E+03  0.17372150695E+03  0.00000000000E+00 0. -1.
</event>
<event>
 7    1  0.2810263E-009  0.2683672E+03  0.7561462E-02  0.1102218E+00
          2   -1    0    0  501    0  0.00000000000E+00  0.00000000000E+00  0.49623256554E+03  0.49623256554E+03  0.00000000000E+00 0.  1.
         -2   -1    0    0    0  501 -0.00000000000E+00 -0.00000000000E+00 -0.15884571995E+03  0.15884571995E+03  0.00000000000E+00 0. -1.
         25    2    1    2    0    0  0.25398076056E+03  0.25735770064E+02  0.11931799379E+03  0.30830851454E+03  0.12509516335E+03 0.  0.
          5    1    3    3  502    0  0.24095825890E+03  0.44117172610E+02  0.13576834150E+03  0.28010305675E+03  0.41800000000E+01 0.  1.
         -5    1    3    3    0  502  0.13022501666E+02 -0.18381402546E+02 -0.16450347701E+02  0.28205457782E+02  0.41800000000E+01 0.  1.
        -11    1    1    2    0    0 -0.17510476883E+03  0.22226857291E+02  0.13032743189E+03  0.21941046637E+03  0.00000000000E+00 0.  1.
         11    1    1    2    0    0 -0.78875991732E+02 -0.47962627355E+02  0.87741419909E+02  0.12735930458E+03  0.00000000000E+00 0. -1.
</event>
<event>
 7    1  0.2810263E-009  0.1992245E+03  0.7561462E-02  0.1150395E+00
         -2   -1    0    0    0  501 -0.00000000000E+00  0.00000000000E+00  0.79743221921E+03  0.79743221921E+03  0.00000000000E+00 0.  1.
          2   -1    0    0  501    0  0.00000000000E+00 -0.00000000000E+00 -0.52201723945E+02  0.52201723945E+02  0.00000000000E+00 0. -1.
         25    2    1    2    0    0 -0.72303762325E+02  0.14037948355E+03  0.42575661864E+03  0.47100988967E+03  0.12508950556E+03 0.  0.
          5    1    3    3  502    0 -0.71143031941E+02  0.16097025591E+03  0.34197324525E+03  0.38462439750E+03  0.41800000000E+01 0.  1.
         -5    1    3    3    0  502 -0.11607303834E+01 -0.20590772360E+02  0.83783373387E+02  0.86385492171E+02  0.41800000000E+01 0.  1.
        -11    1    1    2    0    0  0.84070423639E+02 -0.28352649175E+02  0.16634614098E+03  0.18852784268E+03  0.00000000000E+00 0.  1.
         11    1    1    2    0    0 -0.11766661314E+02 -0.11202683438E+03  0.15312773565E+03  0.19009621081E+03  0.00000000000E+00 0. -1.
</event>
<event>
 7    1  0.2810263E-009  0.1101958E+03  0.7561462E-02  0.1260208E+00
          1   -1    0    0  501    0  0.00000000000E+00  0.00000000000E+00  0.23174532579E+02  0.23174532579E+02  0.00000000000E+00 0. -1.
         -1   -1    0    0    0  501 -0.00000000000E+00 -0.00000000000E+00 -0.63329222337E+03  0.63329222337E+03  0.00000000000E+00 0.  1.
         25    2    1    2    0    0  0.76938727132E+01 -0.30965707399E+02 -0.46917555913E+03  0.48661215535E+03  0.12509042224E+03 0.  0.
          5    1    3    3  502    0 -0.19109515592E+02  0.42826937388E+02 -0.12505589840E+03  0.13362548514E+03  0.41800000000E+01 0.  1.
         -5    1    3    3    0  502  0.26803388305E+02 -0.73792644788E+02 -0.34411966073E+03  0.35298667021E+03  0.41800000000E+01 0.  1.
        -11    1    1    2    0    0 -0.41839947657E+02  0.41523038042E+02 -0.91598940515E+02  0.10892708484E+03  0.00000000000E+00 0.  1.
         11    1    1    2    0    0  0.34146074944E+02 -0.10557330643E+02 -0.49343191150E+02  0.60927515765E+02  0.00000000000E+00 0. -1.
</event>
<event>
 7    1  0.2810263E-009  0.1052554E+03  0.7561462E-02  0.1269617E+00
         -1   -1    0    0    0  501 -0.00000000000E+00  0.00000000000E+00  0.95381273795E+02  0.95381273795E+02  0.00000000000E+00 0.  1.
          1   -1    0    0  501    0  0.00000000000E+00 -0.00000000000E+00 -0.13034135246E+03  0.13034135246E+03  0.00000000000E+00 0. -1.
         25    2    1    2    0    0 -0.77957563169E+01  0.14451221530E+02 -0.10838111532E+02  0.12662698646E+03  0.12508923782E+03 0.  0.
          5    1    3    3  502    0 -0.45866502252E+02  0.49428897632E+02 -0.26306694977E+02  0.72501493436E+02  0.41800000000E+01 0. -1.
         -5    1    3    3    0  502  0.38070745935E+02 -0.34977676102E+02  0.15468583445E+02  0.54125493026E+02  0.41800000000E+01 0. -1.
        -11    1    1    2    0    0  0.66225350302E+01 -0.52549865930E+02  0.18061149300E+01  0.52996305821E+02  0.00000000000E+00 0. -1.
         11    1    1    2    0    0  0.11732212867E+01  0.38098644400E+02 -0.25928082065E+02  0.46099333975E+02  0.00000000000E+00 0.  1.
</event>
<event>
 7    1  0.2810263E-009  0.9330656E+02  0.7561462E-02  0.1295036E+00
         -2   -1    0    0    0  501 -0.00000000000E+00  0.00000000000E+00  0.67283507303E+02  0.67283507303E+02  0.00000000000E+00 0.  1.
          2   -1    0    0  501    0  0.00000000000E+00 -0.00000000000E+00 -0.22211283421E+03  0.22211283421E+03  0.00000000000E+00 0. -1.
         25    2    1    2    0    0  0.44781820216E+02 -0.23178620873E+02 -0.56248936306E+02  0.14613807703E+03  0.12509890021E+03 0.  0.
          5    1    3    3  502    0  0.69669938717E+02 -0.45826863048E+02 -0.36736247327E+01  0.83576130901E+02  0.41800000000E+01 0.  1.
         -5    1    3    3    0  502 -0.24888118502E+02  0.22648242175E+02 -0.52575311573E+02  0.62561946127E+02  0.41800000000E+01 0.  1.
        -11    1    1    2    0    0 -0.33996154488E+02  0.37929506785E+02 -0.88650263518E+01  0.51700819115E+02  0.00000000000E+00 0.  1.
         11    1    1    2    0    0 -0.10785665728E+02 -0.14750885912E+02 -0.89715364248E+02  0.91557445369E+02  0.00000000000E+00 0. -1.
</event>
<event>
 7    1  0.2810263E-009  0.1255481E+03  0.7561462E-02  0.1234215E+00
          1   -1    0    0  501    0  0.00000000000E+00  0.00000000000E+00  0.11014032702E+04  0.11014032702E+04  0.00000000000E+00 0. -1.
         -1   -1    0    0    0  501 -0.00000000000E+00 -0.00000000000E+00 -0.16554476003E+02  0.16554476003E+02  0.00000000000E+00 0.  1.
         25    2    1    2    0    0 -0.19544745104E+02 -0.71106221051E+02  0.73209001480E+03  0.74635202919E+03  0.12508984759E+03 0.  0.
          5    1    3    3  502    0 -0.71623234307E+02 -0.27902307767E+02  0.36037532710E+03  0.36850546163E+03  0.41800000000E+01 0. -1.
         -5    1    3    3    0  502  0.52078489202E+02 -0.43203913284E+02  0.37171468770E+03  0.37784656755E+03  0.41800000000E+01 0. -1.
        -11    1    1    2    0    0  0.23299577886E+02 -0.98367877071E+01  0.32093964387E+02  0.40861415445E+02  0.00000000000E+00 0.  1.
         11    1    1    2    0    0 -0.37548327812E+01  0.80943008758E+02  0.32066481501E+03  0.33074430157E+03  0.00000000000E+00 0. -1.
</event>
<event>
 7    1  0.2810263E-009  0.1373139E+03  0.7561462E-02  0.1216990E+00
          1   -1    0    0  501    0  0.00000000000E+00  0.00000000000E+00  0.87131174880E+03  0.87131174880E+03  0.00000000000E+00 0. -1.
         -1   -1    0    0    0  501 -0.00000000000E+00 -0.00000000000E+00 -0.40273597854E+02  0.40273597854E+02  0.00000000000E+00 0.  1.
         25    2    1    2    0    0 -0.91273824573E+02  0.37061907852E+02  0.71919951830E+03  0.73661301178E+03  0.12508511472E+03 0.  0.
          5    1    3    3  502    0 -0.11200426534E+03  0.56920037245E+02  0.64090761919E+03  0.65311935726E+03  0.41800000000E+01 0.  1.
         -5    1    3    3    0  502  0.20730440769E+02 -0.19858129393E+02  0.78291899116E+02  0.83493654518E+02  0.41800000000E+01 0.  1.
        -11    1    1    2    0    0 -0.39626204876E+01 -0.23359877028E+02  0.62504762900E+02  0.66844832269E+02  0.00000000000E+00 0. -1.
         11    1    1    2    0    0  0.95236445060E+02 -0.13702030825E+02  0.49333869741E+02  0.10812750261E+03  0.00000000000E+00 0.  1.
</event>
<event>
 7    1  0.2892556E-009  0.1062129E+03  0.7561462E-02  0.1267748E+00
          2   -1    0    0  501    0  0.00000000000E+00  0.00000000000E+00  0.75790152077E+03  0.75790152077E+03  0.00000000000E+00 0.  1.
         -2   -1    0    0    0  501 -0.00000000000E+00 -0.00000000000E+00 -0.29541327672E+02  0.29541327672E+02  0.00000000000E+00 0. -1.
         25    2    1    2    0    0 -0.22688151259E+02  0.37047669332E+02  0.63879244691E+03  0.65237247539E+03  0.12508706733E+03 0.  0.
          5    1    3    3  502    0  0.39702378161E+02  0.53938447451E+02  0.29559184717E+03  0.30311325847E+03  0.41800000000E+01 0.  1.
         -5    1    3    3    0  502 -0.62390529420E+02 -0.16890778119E+02  0.34320059974E+03  0.34925921693E+03  0.41800000000E+01 0.  1.
        -11    1    1    2    0    0 -0.71517819532E+01  0.17204702532E+02  0.66393741484E+02  0.68958528715E+02  0.00000000000E+00 0.  1.
         11    1    1    2    0    0  0.29839933213E+02 -0.54252371864E+02  0.23174004705E+02  0.66111844333E+02  0.00000000000E+00 0. -1.
</event>
<event>
 7    1  0.2810263E-009  0.1088743E+03  0.7561462E-02  0.1262669E+00
          2   -1    0    0  501    0  0.00000000000E+00  0.00000000000E+00  0.10222183923E+04  0.10222183923E+04  0.00000000000E+00 0. -1.
         -2   -1    0    0    0  501 -0.00000000000E+00 -0.00000000000E+00 -0.15654409927E+02  0.15654409927E+02  0.00000000000E+00 0.  1.
         25    2    1    2    0    0  0.15927540488E+02 -0.43050932099E+01  0.81568424936E+03  0.82538474583E+03  0.12508782368E+03 0.  0.
          5    1    3    3  502    0  0.29518533501E+02 -0.60073334382E+02  0.50260843733E+03  0.50706297735E+03  0.41800000000E+01 0. -1.
         -5    1    3    3    0  502 -0.13590993013E+02  0.55768241172E+02  0.31307581203E+03  0.31832176848E+03  0.41800000000E+01 0. -1.
        -11    1    1    2    0    0 -0.53829533186E+02 -0.51294261886E+01  0.10342553174E+03  0.11670805573E+03  0.00000000000E+00 0.  1.
         11    1    1    2    0    0  0.37901992698E+02  0.94345193985E+01  0.87454201287E+02  0.95780000677E+02  0.00000000000E+00 0. -1.
</event>
<event>
 7    1  0.2810263E-009  0.1729317E+03  0.7561462E-02  0.1174825E+00
         -2   -1    0    0    0  501 -0.00000000000E+00  0.00000000000E+00  0.23998112215E+02  0.23998112215E+02  0.00000000000E+00 0.  1.
          2   -1    0    0  501    0  0.00000000000E+00 -0.00000000000E+00 -0.21156855715E+04  0.21156855715E+04  0.00000000000E+00 0. -1.
         25    2    1    2    0    0  0.10244915414E+03  0.10915982228E+03 -0.16901881956E+04  0.17014098876E+04  0.12509105909E+03 0.  0.
          5    1    3    3  502    0  0.45442276655E+02  0.12535050795E+03 -0.12818760540E+04  0.12887984484E+04  0.41800000000E+01 0. -1.
         -5    1    3    3    0  502  0.57006877484E+02 -0.16190685669E+02 -0.40831214157E+03  0.41261143917E+03  0.41800000000E+01 0. -1.
        -11    1    1    2    0    0 -0.43426105061E+02 -0.69480430209E+02 -0.10403736950E+03  0.13242783331E+03  0.00000000000E+00 0.  1.
         11    1    1    2    0    0 -0.59023049078E+02 -0.39679392069E+02 -0.29746189419E+03  0.30584596282E+03  0.00000000000E+00 0. -1.
</event>
<event>
 7    1  0.2810263E-009  0.2089736E+03  0.7561462E-02  0.1142381E+00
          1   -1    0    0  501    0  0.00000000000E+00  0.00000000000E+00  0.11480167560E+04  0.11480167560E+04  0.00000000000E+00 0. -1.
         -1   -1    0    0    0  501 -0.00000000000E+00 -0.00000000000E+00 -0.44721472712E+02  0.44721472712E+02  0.00000000000E+00 0.  1.
         25    2    1    2    0    0  0.19657168075E+03  0.68706825066E+01  0.65014412871E+03  0.69066832344E+03  0.12509081882E+03 0.  0.
          5    1    3    3  502    0  0.74121738805E+02 -0.46294182495E+02  0.37158052721E+03  0.38174172434E+03  0.41800000000E+01 0. -1.
         -5    1    3    3    0  502  0.12244994195E+03  0.53164865002E+02  0.27856360150E+03  0.30892659910E+03  0.41800000000E+01 0. -1.
        -11    1    1    2    0    0 -0.64022725363E+02  0.19797340578E+01  0.62678726579E+02  0.89618365726E+02  0.00000000000E+00 0.  1.
         11    1    1    2    0    0 -0.13254895539E+03 -0.88504165644E+01  0.39047242803E+03  0.41245153958E+03  0.00000000000E+00 0. -1.
</event>
<event>
 7    1  0.2810263E-009  0.1444008E+03  0.7561462E-02  0.1207527E+00
          2   -1    0    0  501    0  0.00000000000E+00  0.00000000000E+00  0.11526177106E+03  0.11526177106E+03  0.00000000000E+00 0. -1.
         -2   -1    0    0    0  501 -0.00000000000E+00 -0.00000000000E+00 -0.30932418954E+03  0.30932418954E+03  0.00000000000E+00 0.  1.
         25    2    1    2    0    0  0.10089203960E+03 -0.10084113697E+03 -0.16386414480E+03  0.25069457260E+03  0.12509265455E+03 0.  0.
          5    1    3    3  502    0  0.26043872932E+02 -0.37414943931E+02  0.13702156885E+02  0.47784755414E+02  0.41800000000E+01 0. -1.
         -5    1    3    3    0  502  0.74848166670E+02 -0.63426193036E+02 -0.17756630169E+03  0.20290981719E+03  0.41800000000E+01 0. -1.
        -11    1    1    2    0    0 -0.34946077475E+02  0.52471755124E+02 -0.59821401151E+02  0.86908650043E+02  0.00000000000E+00 0.  1.
         11    1    1    2    0    0 -0.65945962127E+02  0.48369381843E+02  0.29623127477E+02  0.86982737955E+02  0.00000000000E+00 0. -1.
</event>
<event>
 7    1  0.2810263E-009  0.1029568E+03  0.7561462E-02  0.1274198E+00
          3   -1    0    0  501    0  0.00000000000E+00  0.00000000000E+00  0.24910778332E+03  0.24910778332E+03  0.00000000000E+00 0.  1.
         -3   -1    0    0    0  501 -0.00000000000E+00 -0.00000000000E+00 -0.63807329063E+02  0.63807329063E+02  0.00000000000E+00 0. -1.
         25    2    1    2    0    0 -0.59645411190E+02  0.58502169738E+01  0.92393984882E+02  0.16666653672E+03  0.12509710590E+03 0.  0.
          5    1    3    3  502    0  0.38615023604E+02  0.22609512098E+01  0.37210986361E+02  0.53836436122E+02  0.41800000000E+01 0.  1.
         -5    1    3    3    0  502 -0.98260434794E+02  0.35892657640E+01  0.55182998521E+02  0.11283010060E+03  0.41800000000E+01 0.  1.
        -11    1    1    2    0    0  0.36748999457E+02 -0.19837791892E+02  0.10776802552E+03  0.11557670299E+03  0.00000000000E+00 0.  1.
         11    1    1    2    0    0  0.22896411733E+02  0.13987574919E+02 -0.14861556149E+02  0.30671872677E+02  0.00000000000E+00 0. -1.
</event>
<event>
 7    1  0.2810263E-009  0.9672570E+02  0.7561462E-02  0.1287336E+00
          2   -1    0    0  501    0  0.00000000000E+00  0.00000000000E+00  0.28747679664E+03  0.28747679664E+03  0.00000000000E+00 0. -1.
         -2   -1    0    0    0  501 -0.00000000000E+00 -0.00000000000E+00 -0.48743428968E+02  0.48743428968E+02  0.00000000000E+00 0.  1.
         25    2    1    2    0    0  0.42703182122E+02 -0.40454644113E+01  0.10528648542E+03  0.16903776438E+03  0.12509434132E+03 0.  0.
          5    1    3    3  502    0  0.12435160997E+02 -0.54014925690E+02  0.94273280159E+02  0.10944025392E+03  0.41800000000E+01 0.  1.
         -5    1    3    3    0  502  0.30268021125E+02  0.49969461279E+02  0.11013205258E+02  0.59597510463E+02  0.41800000000E+01 0.  1.
        -11    1    1    2    0    0  0.61901645200E+01 -0.22724760689E+02  0.98758407858E+02  0.10152810452E+03  0.00000000000E+00 0. -1.
         11    1    1    2    0    0 -0.48893346642E+02  0.26770225100E+02  0.34688474395E+02  0.65654356700E+02  0.00000000000E+00 0.  1.
</event>
<event>
 7    1  0.2810263E-009  0.7116691E+02  0.7561462E-02  0.1356169E+00
         -3   -1    0    0    0  501 -0.00000000000E+00  0.00000000000E+00  0.29380938597E+03  0.29380938597E+03  0.00000000000E+00 0.  1.
          3   -1    0    0  501    0  0.00000000000E+00 -0.00000000000E+00 -0.42169654374E+02  0.42169654374E+02  0.00000000000E+00 0. -1.
         25    2    1    2    0    0 -0.32099051684E+00  0.23658684746E+02  0.16265002317E+03  0.20655153686E+03  0.12509464793E+03 0.  0.
          5    1    3    3  502    0  0.10893080258E+02  0.34593486701E+02 -0.61090002694E+01  0.37015683216E+02  0.41800000000E+01 0. -1.
         -5    1    3    3    0  502 -0.11214070775E+02 -0.10934801955E+02  0.16875902344E+03  0.16953585364E+03  0.41800000000E+01 0. -1.
        -11    1    1    2    0    0  0.42005503518E+02 -0.23074810416E+02  0.27859089265E+02  0.55434989458E+02  0.00000000000E+00 0.  1.
         11    1    1    2    0    0 -0.41684513002E+02 -0.58387433038E+00  0.61130619162E+02  0.73992514030E+02  0.00000000000E+00 0. -1.
</event>
<event>
 7    1  0.2810263E-009  0.1258473E+03  0.7561462E-02  0.1233751E+00
         -1   -1    0    0    0  501 -0.00000000000E+00  0.00000000000E+00  0.17645752112E+03  0.17645752112E+03  0.00000000000E+00 0.  1.
          1   -1    0    0  501    0  0.00000000000E+00 -0.00000000000E+00 -0.23358385598E+03  0.23358385598E+03  0.00000000000E+00 0. -1.
         25    2    1    2    0    0 -0.71577562310E+02 -0.84604285748E+02  0.10220101252E+03  0.19587954579E+03  0.12507004799E+03 0.  0.
          5    1    3    3  502    0 -0.50551884420E+01 -0.23706560621E+02  0.10268922069E+03  0.10559405472E+03  0.41800000000E+01 0. -1.
         -5    1    3    3    0  502 -0.66522373868E+02 -0.60897725127E+02 -0.48820816388E+00  0.90285491071E+02  0.41800000000E+01 0. -1.
        -11    1    1    2    0    0  0.88479629867E+02  0.80027391356E+02 -0.11175585911E+03  0.16346987586E+03  0.00000000000E+00 0.  1.
         11    1    1    2    0    0 -0.16902067557E+02  0.45768943917E+01 -0.47571488279E+02  0.50691955447E+02  0.00000000000E+00 0. -1.
</event>
<event>
 7    1  0.2810263E-009  0.1170210E+03  0.7561462E-02  0.1248094E+00
          2   -1    0    0  501    0  0.00000000000E+00  0.00000000000E+00  0.94378292838E+02  0.94378292838E+02  0.00000000000E+00 0.  1.
         -2   -1    0    0    0  501 -0.00000000000E+00 -0.00000000000E+00 -0.20059867156E+03  0.20059867156E+03  0.00000000000E+00 0. -1.
         25    2    1    2    0    0 -0.61295890811E+02 -0.38533212680E+02 -0.11696953246E+02  0.14500373934E+03  0.12508905227E+03 0.  0.
          5    1    3    3  502    0 -0.85575671439E+02 -0.58434133077E+01  0.25615655949E+02  0.89615708729E+02  0.41800000000E+01 0. -1.
         -5    1    3    3    0  502  0.24279780627E+02 -0.32689799372E+02 -0.37312609194E+02  0.55388030613E+02  0.41800000000E+01 0. -1.
        -11    1    1    2    0    0  0.41183471579E+02 -0.19678070115E+02 -0.12355128678E+02  0.47285875052E+02  0.00000000000E+00 0.  1.
         11    1    1    2    0    0  0.20112419232E+02  0.58211282795E+02 -0.82168296795E+02  0.10268735000E+03  0.00000000000E+00 0. -1.
</event>
<event>
 7    1  0.2810263E-009  0.1257163E+03  0.7561462E-02  0.1233954E+00
          2   -1    0    0  501    0  0.00000000000E+00  0.00000000000E+00  0.23155399214E+02  0.23155399214E+02  0.00000000000E+00 0. -1.
         -2   -1    0    0    0  501 -0.00000000000E+00 -0.00000000000E+00 -0.71414469663E+03  0.71414469663E+03  0.00000000000E+00 0.  1.
         25    2    1    2    0    0  0.56174236449E+02  0.38319506180E+02 -0.36890906885E+03  0.39542814671E+03  0.12508232782E+03 0.  0.
          5    1    3    3  502    0 -0.34344376727E+02  0.30540323407E+02 -0.17916881222E+03  0.18501671070E+03  0.41800000000E+01 0. -1.
         -5    1    3    3    0  502  0.90518613176E+02  0.77791827734E+01 -0.18974025663E+03  0.21041143601E+03  0.41800000000E+01 0. -1.
        -11    1    1    2    0    0 -0.74422892372E+02 -0.28860607695E+01 -0.19781436240E+03  0.21137080742E+03  0.00000000000E+00 0.  1.
         11    1    1    2    0    0  0.18248655923E+02 -0.35433445411E+02 -0.12426586616E+03  0.13050114172E+03  0.00000000000E+00 0. -1.
</event>
<event>
 7    1  0.2810263E-009  0.1166726E+03  0.7561462E-02  0.1248689E+00
          1   -1    0    0  501    0  0.00000000000E+00  0.00000000000E+00  0.12037102218E+04  0.12037102218E+04  0.00000000000E+00 0. -1.
         -1   -1    0    0    0  501 -0.00000000000E+00 -0.00000000000E+00 -0.13872549006E+02  0.13872549006E+02  0.00000000000E+00 0.  1.
         25    2    1    2    0    0 -0.50802026921E+02  0.16763478621E+02  0.90566947122E+03  0.91583111391E+03  0.12509027923E+03 0.  0.
          5    1    3    3  502    0 -0.70352922627E+02  0.55475149240E+02  0.51642387462E+03  0.52415466857E+03  0.41800000000E+01 0. -1.
         -5    1    3    3    0  502  0.19550895706E+02 -0.38711670619E+02  0.38924559660E+03  0.39167644534E+03  0.41800000000E+01 0. -1.
        -11    1    1    2    0    0  0.57484717572E+02 -0.43777549209E+02  0.22599223173E+03  0.23726241880E+03  0.00000000000E+00 0.  1.
         11    1    1    2    0    0 -0.66826906510E+01  0.27014070588E+02  0.58175969884E+02  0.64489238141E+02  0.00000000000E+00 0. -1.
</event>
<event>
 7    1  0.2810263E-009  0.9577238E+02  0.7561462E-02  0.1289446E+00
         -3   -1    0    0    0  501 -0.00000000000E+00  0.00000000000E+00  0.46862204124E+02  0.46862204124E+02  0.00000000000E+00 0.  1.
          3   -1    0    0  501    0  0.00000000000E+00 -0.00000000000E+00 -0.34020133732E+03  0.34020133732E+03  0.00000000000E+00 0. -1.
         25    2    1    2    0    0 -0.51513128948E+02 -0.22189337578E+02 -0.20926440511E+03  0.25017246186E+03  0.12509476517E+03 0.  0.
          5    1    3    3  502    0 -0.61690508442E+02 -0.65554567151E+02 -0.15994830139E+03  0.18358663247E+03  0.41800000000E+01 0. -1.
         -5    1    3    3    0  502  0.10177379493E+02  0.43365229573E+02 -0.49316103720E+02  0.66585829389E+02  0.41800000000E+01 0. -1.
        -11    1    1    2    0    0  0.23767986087E+02  0.14724662030E+02  0.16382691130E+02  0.32405638447E+02  0.00000000000E+00 0.  1.
         11    1    1    2    0    0  0.27745142861E+02  0.74646755481E+01 -0.10045741922E+03  0.10448544114E+03  0.00000000000E+00 0. -1.
</event>
<event>
 7    1  0.2810263E-009  0.9875394E+02  0.7561462E-02  0.1282938E+00
          2   -1    0    0  501    0  0.00000000000E+00  0.00000000000E+00  0.16252052755E+04  0.16252052755E+04  0.00000000000E+00 0.  1.
         -2   -1    0    0    0  501 -0.00000000000E+00 -0.00000000000E+00 -0.96190001031E+01  0.96190001031E+01  0.00000000000E+00 0. -1.
         25    2    1    2    0    0 -0.61128469145E-01 -0.29274976858E+02  0.12584035526E+04  0.12649444700E+04  0.12509189881E+03 0.  0.
          5    1    3    3  502    0 -0.18855297101E+02 -0.61650286286E+02  0.11084922891E+04  0.11103733189E+04  0.41800000000E+01 0.  1.
         -5    1    3    3    0  502  0.18794168631E+02  0.32375309429E+02  0.14991126349E+03  0.15457115111E+03  0.41800000000E+01 0.  1.
        -11    1    1    2    0    0 -0.15669958693E+02 -0.30033878013E+02  0.10449819966E+03  0.10985196933E+03  0.00000000000E+00 0. -1.
         11    1    1    2    0    0  0.15731087162E+02  0.59308854871E+02  0.25268452322E+03  0.26002783629E+03  0.00000000000E+00 0.  1.
</event>
<event>
 7    1  0.3515004E-009  0.2099687E+03  0.7561462E-02  0.1141591E+00
          2   -1    0    0  501    0  0.00000000000E+00  0.00000000000E+00  0.46726117166E+03  0.46726117166E+03  0.00000000000E+00 0. -1.
         -2   -1    0    0    0  501 -0.00000000000E+00 -0.00000000000E+00 -0.11829050139E+03  0.11829050139E+03  0.00000000000E+00 0.  1.
         25    2    1    2    0    0  0.20185356097E+03 -0.32598724200E+02  0.22927939944E+03  0.33169889775E+03  0.12509028285E+03 0.  0.
          5    1    3    3  502    0  0.16697608854E+02 -0.24675297806E+02  0.10324451543E+03  0.10753875036E+03  0.41800000000E+01 0. -1.
         -5    1    3    3    0  502  0.18515595211E+03 -0.79234263942E+01  0.12603488402E+03  0.22416014739E+03  0.41800000000E+01 0. -1.
        -11    1    1    2    0    0 -0.79849208196E+02  0.13909504467E+02  0.10022935154E+03  0.12890032302E+03  0.00000000000E+00 0. -1.
         11    1    1    2    0    0 -0.12200435277E+03  0.18689219732E+02  0.19461919276E+02  0.12495245228E+03  0.00000000000E+00 0.  1.
</event>
<event>
 7    1  0.2810263E-009  0.1026478E+03  0.7561462E-02  0.1274824E+00
         -2   -1    0    0    0  501 -0.00000000000E+00  0.00000000000E+00  0.34936610964E+02  0.34936610964E+02  0.00000000000E+00 0.  1.
          2   -1    0    0  501    0  0.00000000000E+00 -0.00000000000E+00 -0.40213435885E+03  0.40213435885E+03  0.00000000000E+00 0. -1.
         25    2    1    2    0    0  0.49741713002E+02 -0.53965442442E+01 -0.23560134408E+03  0.27139934481E+03  0.12508497243E+03 0.  0.
          5    1    3    3  502    0  0.61237090824E+02  0.31369892895E+02 -0.59418524351E+02  0.91005960842E+02  0.41800000000E+01 0.  1.
         -5    1    3    3    0  502 -0.11495377822E+02 -0.36766437139E+02 -0.17618281973E+03  0.18039338397E+03  0.41800000000E+01 0.  1.
        -11    1    1    2    0    0 -0.53687016399E+02  0.37362349383E+02 -0.67810485224E+02  0.94215194038E+02  0.00000000000E+00 0.  1.
         11    1    1    2    0    0  0.39453033976E+01 -0.31965805139E+02 -0.63785918577E+02  0.71456430962E+02  0.00000000000E+00 0. -1.
</event>
<event>
 7    1  0.2810263E-009  0.1138978E+03  0.7561462E-02  0.1253517E+00
         -1   -1    0    0    0  501 -0.00000000000E+00  0.00000000000E+00  0.86182311010E+02  0.86182311010E+02  0.00000000000E+00 0.  1.
          1   -1    0    0  501    0  0.00000000000E+00 -0.00000000000E+00 -0.48269602575E+03  0.48269602575E+03  0.00000000000E+00 0. -1.
         25    2    1    2    0    0 -0.57227980421E+02  0.61266366330E+02 -0.41684553506E+03  0.44320875489E+03  0.12508073760E+03 0.  0.
          5    1    3    3  502    0 -0.58931774375E+02  0.76142355138E+02 -0.41666128548E+03  0.42766191261E+03  0.41800000000E+01 0.  1.
         -5    1    3    3    0  502  0.17037939548E+01 -0.14875988808E+02 -0.18424957994E+00  0.15546842276E+02  0.41800000000E+01 0.  1.
        -11    1    1    2    0    0  0.43393844565E+02  0.89513902504E+01  0.29918498993E+02  0.53462788138E+02  0.00000000000E+00 0.  1.
         11    1    1    2    0    0  0.13834135856E+02 -0.70217756580E+02 -0.95866786745E+01  0.72206793739E+02  0.00000000000E+00 0. -1.
</event>
<event>
 7    1  0.2810263E-009  0.9143378E+02  0.7561462E-02  0.1299416E+00
          2   -1    0    0  501    0  0.00000000000E+00  0.00000000000E+00  0.43760695819E+02  0.43760695819E+02  0.00000000000E+00 0. -1.
         -2   -1    0    0    0  501 -0.00000000000E+00 -0.00000000000E+00 -0.34259462941E+03  0.34259462941E+03  0.00000000000E+00 0.  1.
         25    2    1    2    0    0 -0.16142095016E+02  0.55964579796E+02 -0.17098878949E+03  0.21972101006E+03  0.12509018629E+03 0.  0.
          5    1    3    3  502    0  0.14668266699E+01 -0.11811375644E+02 -0.14400976830E+03  0.14456121866E+03  0.41800000000E+01 0.  1.
         -5    1    3    3    0  502 -0.17608921685E+02  0.67775955440E+02 -0.26979021194E+02  0.75159791400E+02  0.41800000000E+01 0.  1.
        -11    1    1    2    0    0 -0.26529053979E+02  0.36611193686E+01 -0.11572636243E+02  0.29173968014E+02  0.00000000000E+00 0. -1.
         11    1    1    2    0    0  0.42671148994E+02 -0.59625699164E+02 -0.11627250786E+03  0.13746034716E+03  0.00000000000E+00 0.  1.
</event>
<event>
 7    1  0.2810263E-009  0.8938923E+02  0.7561462E-02  0.1304338E+00
          1   -1    0    0  501    0  0.00000000000E+00  0.00000000000E+00  0.14915406427E+04  0.14915406427E+04  0.00000000000E+00 0. -1.
         -1   -1    0    0    0  501 -0.00000000000E+00 -0.00000000000E+00 -0.11315100488E+02  0.11315100488E+02  0.00000000000E+00 0.  1.
         25    2    1    2    0    0  0.11911388562E+02 -0.92484496663E+01  0.12089838141E+04  0.12155319342E+04  0.12509438548E+03 0.  0.
          5    1    3    3  502    0  0.24394892659E+02 -0.41978792543E+02  0.10978928686E+04  0.10989738637E+04  0.41800000000E+01 0. -1.
         -5    1    3    3    0  502 -0.12483504097E+02  0.32730342877E+02  0.11109094545E+03  0.11655807043E+03  0.41800000000E+01 0. -1.
        -11    1    1    2    0    0 -0.34682597874E+02 -0.32296592873E+02  0.13352352287E+03  0.14168445104E+03  0.00000000000E+00 0. -1.
         11    1    1    2    0    0  0.22771209313E+02  0.41545042539E+02  0.13771820529E+03  0.14563935801E+03  0.00000000000E+00 0.  1.
</event>
<event>
 7    1  0.2846161E-009  0.1232318E+03  0.7561462E-02  0.1237859E+00
         -1   -1    0    0    0  501 -0.00000000000E+00  0.00000000000E+00  0.46587790849E+02  0.46587790849E+02  0.00000000000E+00 0.  1.
          1   -1    0    0  501    0  0.00000000000E+00 -0.00000000000E+00 -0.43463508631E+03  0.43463508631E+03  0.00000000000E+00 0. -1.
         25    2    1    2    0    0 -0.21978440625E+02 -0.89391502920E+02 -0.21888379052E+03  0.26838698505E+03  0.12509023681E+03 0.  0.
          5    1    3    3  502    0 -0.59432020127E+02 -0.86077673571E+02 -0.10452917882E+03  0.14793698837E+03  0.41800000000E+01 0.  1.
         -5    1    3    3    0  502  0.37453579502E+02 -0.33138293494E+01 -0.11435461171E+03  0.12044999669E+03  0.41800000000E+01 0.  1.
        -11    1    1    2    0    0 -0.15065162557E+02  0.35366971002E+02 -0.13208441039E+03  0.13756479647E+03  0.00000000000E+00 0. -1.
         11    1    1    2    0    0  0.37043603182E+02  0.54024531919E+02 -0.37079094553E+02  0.75271095638E+02  0.00000000000E+00 0.  1.
</event>
<event>
 7    1  0.2810263E-009  0.1093935E+03  0.7561462E-02  0.1261697E+00
          2   -1    0    0  501    0  0.00000000000E+00  0.00000000000E+00  0.15117868499E+04  0.15117868499E+04  0.00000000000E+00 0.  1.
         -2   -1    0    0    0  501 -0.00000000000E+00 -0.00000000000E+00 -0.86750894269E+01  0.86750894269E+01  0.00000000000E+00 0. -1.
         25    2    1    2    0    0 -0.14066923598E+02 -0.27129981399E+02  0.98034170929E+03  0.98876246628E+03  0.12508970190E+03 0.  0.
          5    1    3    3  502    0 -0.46129277676E+02 -0.60198725341E+02  0.74910726752E+03  0.75294818377E+03  0.41800000000E+01 0.  1.
         -5    1    3    3    0  502  0.32062354078E+02  0.33068743943E+02  0.23123444178E+03  0.23581428252E+03  0.41800000000E+01 0.  1.
        -11    1    1    2    0    0  0.47148135952E+02  0.39252961526E+02  0.35612359477E+03  0.36136927991E+03  0.00000000000E+00 0.  1.
         11    1    1    2    0    0 -0.33081212354E+02 -0.12122980127E+02  0.16664645637E+03  0.17033019309E+03  0.00000000000E+00 0. -1.
</event>
<event>
 7    1  0.2810263E-009  0.7065710E+02  0.7561462E-02  0.1357873E+00
          4   -1    0    0  501    0  0.00000000000E+00  0.00000000000E+00  0.21186821836E+02  0.21186821836E+02  0.00000000000E+00 0. -1.
         -4   -1    0    0    0  501 -0.00000000000E+00 -0.00000000000E+00 -0.74490547163E+03  0.74490547163E+03  0.00000000000E+00 0.  1.
         25    2    1    2    0    0  0.55586579137E+02 -0.19836248917E+02 -0.45611744149E+03  0.47662703209E+03  0.12508742038E+03 0.  0.
          5    1    3    3  502    0 -0.79134399916E+01  0.78453814642E+01  0.30167107329E+01  0.12277845351E+02  0.41800000000E+01 0. -1.
         -5    1    3    3    0  502  0.63500019128E+02 -0.27681630381E+02 -0.45913415222E+03  0.46434918674E+03  0.41800000000E+01 0. -1.
        -11    1    1    2    0    0 -0.41186539227E+02  0.19602317569E+02 -0.27088102488E+03  0.27469457859E+03  0.00000000000E+00 0.  1.
         11    1    1    2    0    0 -0.14400039910E+02  0.23393134810E+00  0.32798165699E+01  0.14770682788E+02  0.00000000000E+00 0. -1.
</event>
<event>
 7    1  0.2810263E-009  0.6139964E+02  0.7561462E-02  0.1392050E+00
          2   -1    0    0  501    0  0.00000000000E+00  0.00000000000E+00  0.84815118567E+02  0.84815118567E+02  0.00000000000E+00 0. -1.
         -2   -1    0    0    0  501 -0.00000000000E+00 -0.00000000000E+00 -0.16736828512E+03  0.16736828512E+03  0.00000000000E+00 0.  1.
         25    2    1    2    0    0  0.82123598909E+01  0.11053006307E+02 -0.98406524824E+02  0.15975341245E+03  0.12509075449E+03 0.  0.
          5    1    3    3  502    0  0.46232036136E+02  0.27315338748E+02 -0.10220821318E+01  0.53870640873E+02  0.41800000000E+01 0. -1.
         -5    1    3    3    0  502 -0.38019676245E+02 -0.16262332441E+02 -0.97384442692E+02  0.10588277158E+03  0.41800000000E+01 0. -1.
        -11    1    1    2    0    0  0.50361020605E+01 -0.13040580026E+02 -0.36134222435E+02  0.38744045766E+02  0.00000000000E+00 0.  1.
         11    1    1    2    0    0 -0.13248461951E+02  0.19875737195E+01  0.51987580706E+02  0.53685945471E+02  0.00000000000E+00 0. -1.
</event>
<event>
 7    1  0.2810263E-009  0.9955851E+02  0.7561462E-02  0.1281227E+00
         -2   -1    0    0    0  501 -0.00000000000E+00  0.00000000000E+00  0.50722735090E+02  0.50722735090E+02  0.00000000000E+00 0.  1.
          2   -1    0    0  501    0  0.00000000000E+00 -0.00000000000E+00 -0.26424737579E+03  0.26424737579E+03  0.00000000000E+00 0. -1.
         25    2    1    2    0    0 -0.34483925724E+02  0.50667022650E+01 -0.12886448443E+03  0.18293885281E+03  0.12508299610E+03 0.  0.
          5    1    3    3  502    0  0.42182236698E+02  0.24246107917E+02 -0.34547947164E+02  0.59818457814E+02  0.41800000000E+01 0. -1.
         -5    1    3    3    0  502 -0.76666162422E+02 -0.19179405652E+02 -0.94316537268E+02  0.12312039500E+03  0.41800000000E+01 0. -1.
        -11    1    1    2    0    0 -0.31079228617E+01 -0.27295748361E+02  0.88195449107E+01  0.28853100969E+02  0.00000000000E+00 0.  1.
         11    1    1    2    0    0  0.37591848586E+02  0.22229046096E+02 -0.93479701179E+02  0.10317815710E+03  0.00000000000E+00 0. -1.
</event>
<event>
 7    1  0.2810263E-009  0.1319125E+03  0.7561462E-02  0.1224645E+00
         -2   -1    0    0    0  501 -0.00000000000E+00  0.00000000000E+00  0.51509739624E+03  0.51509739624E+03  0.00000000000E+00 0.  1.
          2   -1    0    0  501    0  0.00000000000E+00 -0.00000000000E+00 -0.70755827371E+02  0.70755827371E+02  0.00000000000E+00 0. -1.
         25    2    1    2    0    0 -0.11642599992E+02  0.10743937761E+03  0.39779190715E+03  0.43076862472E+03  0.12507772244E+03 0.  0.
          5    1    3    3  502    0 -0.57139012970E+02  0.37513840567E+02  0.97987038613E+02  0.11954533522E+03  0.41800000000E+01 0. -1.
         -5    1    3    3    0  502  0.45496412978E+02  0.69925537045E+02  0.29980486854E+03  0.31122328950E+03  0.41800000000E+01 0. -1.
        -11    1    1    2    0    0 -0.80276508099E+01 -0.58864541097E+02  0.74821012610E+02  0.95538794760E+02  0.00000000000E+00 0.  1.
         11    1    1    2    0    0  0.19670250801E+02 -0.48574836514E+02 -0.28271350891E+02  0.59545804136E+02  0.00000000000E+00 0. -1.
</event>
<event>
 7    1  0.2810263E-009  0.1986596E+03  0.7561462E-02  0.1150875E+00
         -2   -1    0    0    0  501 -0.00000000000E+00  0.00000000000E+00  0.92871704770E+02  0.92871704770E+02  0.00000000000E+00 0. -1.
          2   -1    0    0  501    0  0.00000000000E+00 -0.00000000000E+00 -0.48889656091E+03  0.48889656091E+03  0.00000000000E+00 0.  1.
         25    2    1    2    0    0 -0.73354728183E+02  0.15350198933E+03 -0.11474001683E+03  0.24032716049E+03  0.12509234882E+03 0.  0.
          5    1    3    3  502    0 -0.31638446369E+02  0.16466678063E+03 -0.89013932907E+02  0.18988705217E+03  0.41800000000E+01 0. -1.
         -5    1    3    3    0  502 -0.41716281815E+02 -0.11164791298E+02 -0.25726083922E+02  0.50440108318E+02  0.41800000000E+01 0. -1.
        -11    1    1    2    0    0 -0.10658895432E+02 -0.58147778342E+02 -0.13674778051E+03  0.14897896379E+03  0.00000000000E+00 0.  1.
         11    1    1    2    0    0  0.84013623615E+02 -0.95354210987E+02 -0.14453705881E+03  0.19246214141E+03  0.00000000000E+00 0. -1.
</event>
<event>
 7    1  0.2810263E-009  0.8956813E+02  0.7561462E-02  0.1303901E+00
         -2   -1    0    0    0  501 -0.00000000000E+00  0.00000000000E+00  0.83996892388E+02  0.83996892388E+02  0.00000000000E+00 0.  1.
          2   -1    0    0  501    0  0.00000000000E+00 -0.00000000000E+00 -0.24324274121E+03  0.24324274121E+03  0.00000000000E+00 0. -1.
         25    2    1    2    0    0  0.37105565135E+02 -0.30145659306E+02 -0.17779472567E+03  0.22258468763E+03  0.12508954774E+03 0.  0.
          5    1    3    3  502    0  0.25418897517E+02  0.24462700277E+02  0.67887183064E+00  0.35531356894E+02  0.41800000000E+01 0. -1.
         -5    1    3    3    0  502  0.11686667619E+02 -0.54608359583E+02 -0.17847359750E+03  0.18705333074E+03  0.41800000000E+01 0. -1.
        -11    1    1    2    0    0 -0.57001313326E+02  0.75425953517E+01  0.37895935806E+02  0.68863215262E+02  0.00000000000E+00 0.  1.
         11    1    1    2    0    0  0.19895748191E+02  0.22603063954E+02 -0.19347058955E+02  0.35791730699E+02  0.00000000000E+00 0. -1.
</event>
<event>
 7    1  0.2810263E-009  0.9871020E+02  0.7561462E-02  0.1283032E+00
          1   -1    0    0  501    0  0.00000000000E+00  0.00000000000E+00  0.97179746325E+02  0.97179746325E+02  0.00000000000E+00 0. -1.
         -1   -1    0    0    0  501 -0.00000000000E+00 -0.00000000000E+00 -0.17014670276E+03  0.17014670276E+03  0.00000000000E+00 0.  1.
         25    2    1    2    0    0 -0.45108622534E+01 -0.32590818609E+02  0.21421676348E+02  0.13112195245E+03  0.12510623030E+03 0.  0.
          5    1    3    3  502    0  0.55589148197E+02 -0.38639912327E+02  0.32511297552E+01  0.67906100364E+02  0.41800000000E+01 0. -1.
         -5    1    3    3    0  502 -0.60100010450E+02  0.60490937179E+01  0.18170546593E+02  0.63215852082E+02  0.41800000000E+01 0. -1.
        -11    1    1    2    0    0  0.17160591246E+02 -0.13128789581E+02  0.82544141946E+01  0.23129772188E+02  0.00000000000E+00 0. -1.
         11    1    1    2    0    0 -0.12649728993E+02  0.45719608191E+02 -0.10264304698E+03  0.11307472445E+03  0.00000000000E+00 0.  1.
</event>
<event>
 7    1  0.2810263E-009  0.1022319E+03  0.7561462E-02  0.1275671E+00
          1   -1    0    0  501    0  0.00000000000E+00  0.00000000000E+00  0.24193406141E+03  0.24193406141E+03  0.00000000000E+00 0. -1.
         -1   -1    0    0    0  501 -0.00000000000E+00 -0.00000000000E+00 -0.10920812283E+03  0.10920812283E+03  0.00000000000E+00 0.  1.
         25    2    1    2    0    0 -0.51596962955E+02 -0.81237036186E+02  0.15518621073E+03  0.22134107168E+03  0.12508959740E+03 0.  0.
          5    1    3    3  502    0 -0.51988217374E+02 -0.37441764170E+02  0.16431052821E+03  0.17640885049E+03  0.41800000000E+01 0.  1.
         -5    1    3    3    0  502  0.39125441945E+00 -0.43795272016E+02 -0.91243174881E+01  0.44932221185E+02  0.41800000000E+01 0.  1.
        -11    1    1    2    0    0  0.36622551364E+02  0.55729487059E+02  0.27183833314E+02  0.72013525048E+02  0.00000000000E+00 0. -1.
         11    1    1    2    0    0  0.14974411591E+02  0.25507549128E+02 -0.49644105460E+02  0.57787587524E+02  0.00000000000E+00 0.  1.
</event>
<event>
 7    1  0.2810263E-009  0.1043952E+03  0.7561462E-02  0.1271316E+00
         -2   -1    0    0    0  501 -0.00000000000E+00  0.00000000000E+00  0.10102162715E+03  0.10102162715E+03  0.00000000000E+00 0.  1.
          2   -1    0    0  501    0  0.00000000000E+00 -0.00000000000E+00 -0.17143250646E+03  0.17143250646E+03  0.00000000000E+00 0. -1.
         25    2    1    2    0    0  0.66138985396E+02  0.21212116088E+02 -0.16655748676E+02  0.14404786047E+03  0.12509217755E+03 0.  0.
          5    1    3    3  502    0 -0.21224798144E+02  0.37199931334E+02  0.20521596521E+02  0.47675310919E+02  0.41800000000E+01 0. -1.
         -5    1    3    3    0  502  0.87363783540E+02 -0.15987815245E+02 -0.37177345197E+02  0.96372549549E+02  0.41800000000E+01 0. -1.
        -11    1    1    2    0    0 -0.33925510969E+02 -0.27923935207E+02  0.19521218566E+02  0.48080811414E+02  0.00000000000E+00 0.  1.
         11    1    1    2    0    0 -0.32213474427E+02  0.67118191182E+01 -0.73276349193E+02  0.80325461726E+02  0.00000000000E+00 0. -1.
</event>
<event>
 7    1  0.2810263E-009  0.1613103E+03  0.7561462E-02  0.1187225E+00
          2   -1    0    0  501    0  0.00000000000E+00  0.00000000000E+00  0.11486114334E+04  0.11486114334E+04  0.00000000000E+00 0. -1.
         -2   -1    0    0    0  501 -0.00000000000E+00 -0.00000000000E+00 -0.40366332120E+02  0.40366332120E+02  0.00000000000E+00 0.  1.
         25    2    1    2    0    0  0.67304793054E+01  0.14196201073E+03  0.90528639376E+03  0.92487277467E+03  0.12509069814E+03 0.  0.
          5    1    3    3  502    0  0.27642359977E+02  0.15191609416E+03  0.86075406147E+03  0.87450421753E+03  0.41800000000E+01 0. -1.
         -5    1    3    3    0  502 -0.20911880671E+02 -0.99540834277E+01  0.44532332287E+02  0.50368557146E+02  0.41800000000E+01 0. -1.
        -11    1    1    2    0    0 -0.16743830871E+02 -0.10492440549E+03  0.19892907665E+03  0.22552663762E+03  0.00000000000E+00 0. -1.
         11    1    1    2    0    0  0.10013351566E+02 -0.37037605243E+02  0.40296308567E+01  0.38578353212E+02  0.00000000000E+00 0.  1.
</event>
<event>
 7    1  0.2810263E-009  0.1177069E+03  0.7561462E-02  0.1246929E+00
         -2   -1    0    0    0  501 -0.00000000000E+00  0.00000000000E+00  0.30186261221E+02  0.30186261221E+02  0.00000000000E+00 0.  1.
          2   -1    0    0  501    0  0.00000000000E+00 -0.00000000000E+00 -0.85778170906E+03  0.85778170906E+03  0.00000000000E+00 0. -1.
         25    2    1    2    0    0  0.75669075212E+02 -0.52574464011E+02 -0.65043965174E+03  0.66873740905E+03  0.12509235987E+03 0.  0.
          5    1    3    3  502    0  0.37712678843E+02  0.14952503233E+02 -0.47698514388E+03  0.47872551988E+03  0.41800000000E+01 0. -1.
         -5    1    3    3    0  502  0.37956396369E+02 -0.67526967244E+02 -0.17345450786E+03  0.19001188918E+03  0.41800000000E+01 0. -1.
        -11    1    1    2    0    0 -0.71146209798E+02  0.72611470310E+01 -0.59368998747E+02  0.92947218554E+02  0.00000000000E+00 0.  1.
         11    1    1    2    0    0 -0.45228654144E+01  0.45313316980E+02 -0.11778679735E+03  0.12628334268E+03  0.00000000000E+00 0. -1.
</event>
<event>
 7    1  0.2810263E-009  0.1832350E+03  0.7561462E-02  0.1164708E+00
          2   -1    0    0  501    0  0.00000000000E+00  0.00000000000E+00  0.17967579365E+03  0.17967579365E+03  0.00000000000E+00 0. -1.
         -2   -1    0    0    0  501 -0.00000000000E+00 -0.00000000000E+00 -0.18981428118E+03  0.18981428118E+03  0.00000000000E+00 0.  1.
         25    2    1    2    0    0 -0.12261182473E+03  0.83088156559E+02 -0.20649419024E+02  0.19496270145E+03  0.12508699023E+03 0.  0.
          5    1    3    3  502    0 -0.32330562462E+02 -0.33116393666E+02 -0.13431687555E+01  0.46489109487E+02  0.41800000000E+01 0.  1.
         -5    1    3    3    0  502 -0.90281262269E+02  0.11620455022E+03 -0.19306250268E+02  0.14847359196E+03  0.41800000000E+01 0.  1.
        -11    1    1    2    0    0 -0.24046602828E+01  0.14183675526E+02 -0.53174141979E+01  0.15337337978E+02  0.00000000000E+00 0.  1.
         11    1    1    2    0    0  0.12501648501E+03 -0.97271832084E+02  0.15828345692E+02  0.15919003540E+03  0.00000000000E+00 0. -1.
</event>
<event>
 7    1  0.2810263E-009  0.1144734E+03  0.7561462E-02  0.1252503E+00
          1   -1    0    0  501    0  0.00000000000E+00  0.00000000000E+00  0.76657535654E+03  0.76657535654E+03  0.00000000000E+00 0. -1.
         -1   -1    0    0    0  501 -0.00000000000E+00 -0.00000000000E+00 -0.25404494600E+02  0.25404494600E+02  0.00000000000E+00 0.  1.
         25    2    1    2    0    0  0.74916275893E+02 -0.53468205424E+02  0.46822646748E+03  0.49330848383E+03  0.12508372393E+03 0.  0.
          5    1    3    3  502    0 -0.22048740927E+02 -0.96467376461E+01  0.17184643148E+02  0.29866216429E+02  0.41800000000E+01 0.  1.
         -5    1    3    3    0  502  0.96965016819E+02 -0.43821467778E+02  0.45104182433E+03  0.46344226741E+03  0.41800000000E+01 0.  1.
        -11    1    1    2    0    0 -0.60649085670E+02  0.23878413070E+02  0.25061135196E+03  0.25894891376E+03  0.00000000000E+00 0. -1.
         11    1    1    2    0    0 -0.14267190223E+02  0.29589792354E+02  0.22333042497E+02  0.39722453544E+02  0.00000000000E+00 0.  1.
</event>
<event>
 7    1  0.2810263E-009  0.1120348E+03  0.7561462E-02  0.1256848E+00
         -2   -1    0    0    0  501 -0.00000000000E+00  0.00000000000E+00  0.22564320844E+02  0.22564320844E+02  0.00000000000E+00 0.  1.
          2   -1    0    0  501    0  0.00000000000E+00 -0.00000000000E+00 -0.13110648852E+04  0.13110648852E+04  0.00000000000E+00 0. -1.
         25    2    1    2    0    0  0.88438842046E+02 -0.35596148262E+02 -0.10399291148E+04  0.10517546355E+04  0.12508690921E+03 0.  0.
          5    1    3    3  502    0  0.94948763324E+02 -0.25472224607E+02 -0.10321431369E+04  0.10368225640E+04  0.41800000000E+01 0. -1.
         -5    1    3    3    0  502 -0.65099212785E+01 -0.10123923656E+02 -0.77859779400E+01  0.14932071448E+02  0.41800000000E+01 0. -1.
        -11    1    1    2    0    0 -0.53735033018E+02  0.51796062276E+02 -0.81671980241E+02  0.11063723694E+03  0.00000000000E+00 0.  1.
         11    1    1    2    0    0 -0.34703809028E+02 -0.16199914014E+02 -0.16689946927E+03  0.17123733360E+03  0.00000000000E+00 0. -1.
</event>
<event>
 7    1  0.2810263E-009  0.1555477E+03  0.7561462E-02  0.1193817E+00
          1   -1    0    0  501    0  0.00000000000E+00  0.00000000000E+00  0.14034006629E+03  0.14034006629E+03  0.00000000000E+00 0. -1.
         -1   -1    0    0    0  501 -0.00000000000E+00 -0.00000000000E+00 -0.22988426059E+03  0.22988426059E+03  0.00000000000E+00 0.  1.
         25    2    1    2    0    0 -0.13986135135E+03 -0.20485743813E+02 -0.21937224595E+02  0.19002623341E+03  0.12509142360E+03 0.  0.
          5    1    3    3  502    0 -0.17480078038E+02  0.27261289160E+02 -0.45998420945E+02  0.56409734482E+02  0.41800000000E+01 0. -1.
         -5    1    3    3    0  502 -0.12238127331E+03 -0.47747032974E+02  0.24061196350E+02  0.13361649893E+03  0.41800000000E+01 0. -1.
        -11    1    1    2    0    0  0.57419132467E+02  0.28640896271E+02 -0.72983198375E+02  0.97179241392E+02  0.00000000000E+00 0.  1.
         11    1    1    2    0    0  0.82442218883E+02 -0.81551524573E+01  0.53762286682E+01  0.83018852080E+02  0.00000000000E+00 0. -1.
</event>
<event>
 7    1  0.2810263E-009  0.1194693E+03  0.7561462E-02  0.1243975E+00
         -2   -1    0    0    0  501 -0.00000000000E+00  0.00000000000E+00  0.49105308716E+03  0.49105308716E+03  0.00000000000E+00 0.  1.
          2   -1    0    0  501    0  0.00000000000E+00 -0.00000000000E+00 -0.40256118208E+02  0.40256118208E+02  0.00000000000E+00 0. -1.
         25    2    1    2    0    0 -0.73462080062E+02 -0.49065605937E+02  0.24045769811E+03  0.28508026690E+03  0.12508694219E+03 0.  0.
          5    1    3    3  502    0  0.94688550980E+01 -0.47982707813E+02  0.26964678576E+02  0.56005051171E+02  0.41800000000E+01 0.  1.
         -5    1    3    3    0  502 -0.82930935160E+02 -0.10828981236E+01  0.21349301953E+03  0.22907521573E+03  0.41800000000E+01 0.  1.
        -11    1    1    2    0    0  0.25433430728E+02  0.52829644658E+02  0.44707812418E+02  0.73733433695E+02  0.00000000000E+00 0. -1.
         11    1    1    2    0    0  0.48028649334E+02 -0.37640387210E+01  0.16563145843E+03  0.17249550477E+03  0.00000000000E+00 0.  1.
</event>
<event>
 7    1  0.2810263E-009  0.9999299E+02  0.7561462E-02  0.1280311E+00
          1   -1    0    0  501    0  0.00000000000E+00  0.00000000000E+00  0.49509355085E+03  0.49509355085E+03  0.00000000000E+00 0. -1.
         -1   -1    0    0    0  501 -0.00000000000E+00 -0.00000000000E+00 -0.25171527861E+02  0.25171527861E+02  0.00000000000E+00 0.  1.
         25    2    1    2    0    0  0.38819604659E+01 -0.44949946365E+00  0.20286906288E+03  0.23836466406E+03  0.12508630912E+03 0.  0.
          5    1    3    3  502    0  0.34326245039E+02 -0.44860102225E+02  0.15899700265E+03  0.16878459385E+03  0.41800000000E+01 0.  1.
         -5    1    3    3    0  502 -0.30444284573E+02  0.44410602761E+02  0.43872060236E+02  0.69580070208E+02  0.41800000000E+01 0.  1.
        -11    1    1    2    0    0  0.96723668799E+01 -0.42870595059E+02  0.15171166448E+03  0.15794895296E+03  0.00000000000E+00 0.  1.
         11    1    1    2    0    0 -0.13554327346E+02  0.43320094523E+02  0.11534129563E+03  0.12395146169E+03  0.00000000000E+00 0. -1.
</event>
<event>
 7    1  0.2810263E-009  0.1061170E+03  0.7561462E-02  0.1267934E+00
         -2   -1    0    0    0  501 -0.00000000000E+00  0.00000000000E+00  0.70732846812E+02  0.70732846812E+02  0.00000000000E+00 0.  1.
          2   -1    0    0  501    0  0.00000000000E+00 -0.00000000000E+00 -0.24340642555E+03  0.24340642555E+03  0.00000000000E+00 0. -1.
         25    2    1    2    0    0  0.60413411689E+02  0.30937522581E+02 -0.46787284831E+02  0.14981033116E+03  0.12508866729E+03 0.  0.
          5    1    3    3  502    0 -0.38382462686E+02  0.45742159676E+01 -0.21359747925E+02  0.44360434229E+02  0.41800000000E+01 0.  1.
         -5    1    3    3    0  502  0.98795874375E+02  0.26363306614E+02 -0.25427536906E+02  0.10544989693E+03  0.41800000000E+01 0.  1.
        -11    1    1    2    0    0 -0.48828039980E+02 -0.14554831373E+02 -0.17154870767E+02  0.53761605218E+02  0.00000000000E+00 0.  1.
         11    1    1    2    0    0 -0.11585371709E+02 -0.16382691208E+02 -0.10873142314E+03  0.11056733599E+03  0.00000000000E+00 0. -1.
</event>
<event>
 7    1  0.2810263E-009  0.1057546E+03  0.7561462E-02  0.1268640E+00
         -2   -1    0    0    0  501 -0.00000000000E+00  0.00000000000E+00  0.12924400830E+03  0.12924400830E+03  0.00000000000E+00 0.  1.
          2   -1    0    0  501    0  0.00000000000E+00 -0.00000000000E+00 -0.14967579699E+03  0.14967579699E+03  0.00000000000E+00 0. -1.
         25    2    1    2    0    0  0.68030195434E+02 -0.13525023359E+02  0.39267424697E+02  0.14832752606E+03  0.12509232829E+03 0.  0.
          5    1    3    3  502    0  0.34690147808E+02 -0.41882716565E+02 -0.32989728657E+02  0.63744512695E+02  0.41800000000E+01 0. -1.
         -5    1    3    3    0  502  0.33340047626E+02  0.28357693206E+02  0.72257153354E+02  0.84583013369E+02  0.41800000000E+01 0. -1.
        -11    1    1    2    0    0 -0.57237296418E+02 -0.32433818770E+02 -0.19583496284E+02  0.68640906375E+02  0.00000000000E+00 0. -1.
         11    1    1    2    0    0 -0.10792899016E+02  0.45958842130E+02 -0.40115717101E+02  0.61951372847E+02  0.00000000000E+00 0.  1.
</event>
<event>
 7    1  0.2810263E-009  0.1037304E+03  0.7561462E-02  0.1272641E+00
          2   -1    0    0  501    0  0.00000000000E+00  0.00000000000E+00  0.36739797879E+03  0.36739797879E+03  0.00000000000E+00 0. -1.
         -2   -1    0    0    0  501 -0.00000000000E+00 -0.00000000000E+00 -0.54165456392E+02  0.54165456392E+02  0.00000000000E+00 0.  1.
         25    2    1    2    0    0  0.18267034086E+02  0.36384773001E+02  0.29278113719E+03  0.32097679773E+03  0.12509106342E+03 0.  0.
          5    1    3    3  502    0  0.40761054113E+01  0.77987233661E+02  0.23855854043E+03  0.25105033930E+03  0.41800000000E+01 0.  1.
         -5    1    3    3    0  502  0.14190928675E+02 -0.41602460660E+02  0.54222596754E+02  0.69926458429E+02  0.41800000000E+01 0.  1.
        -11    1    1    2    0    0 -0.17848184852E+02 -0.59429758685E+02 -0.95194131996E+01  0.62777967055E+02  0.00000000000E+00 0.  1.
         11    1    1    2    0    0 -0.41884923447E+00  0.23044985684E+02  0.29970798408E+02  0.37808670395E+02  0.00000000000E+00 0. -1.
</event>
<event>
 7    1  0.2810263E-009  0.1286876E+03  0.7561462E-02  0.1229416E+00
         -1   -1    0    0    0  501 -0.00000000000E+00  0.00000000000E+00  0.27356568462E+03  0.27356568462E+03  0.00000000000E+00 0.  1.
          1   -1    0    0  501    0  0.00000000000E+00 -0.00000000000E+00 -0.99292137630E+02  0.99292137630E+02  0.00000000000E+00 0. -1.
         25    2    1    2    0    0 -0.68691163685E+02  0.42278659664E+02 -0.13008019522E+02  0.14940771773E+03  0.12508995369E+03 0.  0.
          5    1    3    3  502    0 -0.10056726782E+03  0.42524376900E+02 -0.29630862419E+02  0.11321465627E+03  0.41800000000E+01 0. -1.
         -5    1    3    3    0  502  0.31876104136E+02 -0.24571723565E+00  0.16622842896E+02  0.36193061460E+02  0.41800000000E+01 0. -1.
        -11    1    1    2    0    0 -0.12662628875E+02  0.12568673450E+02  0.60862880749E+02  0.63424001572E+02  0.00000000000E+00 0.  1.
         11    1    1    2    0    0  0.81353792560E+02 -0.54847333114E+02  0.12641868576E+03  0.16002610294E+03  0.00000000000E+00 0. -1.
</event>
<event>
 7    1  0.2810263E-009  0.1033923E+03  0.7561462E-02  0.1273320E+00
          2   -1    0    0  501    0  0.00000000000E+00  0.00000000000E+00  0.83015137844E+03  0.83015137844E+03  0.00000000000E+00 0. -1.
         -2   -1    0    0    0  501 -0.00000000000E+00 -0.00000000000E+00 -0.16550334847E+02  0.16550334847E+02  0.00000000000E+00 0.  1.
         25    2    1    2    0    0 -0.53539091443E+02 -0.14348637475E+02  0.45631177637E+03  0.47638235086E+03  0.12508952491E+03 0.  0.
          5    1    3    3  502    0 -0.33796368697E+02 -0.68941966129E+02  0.22160809907E+03  0.23456941660E+03  0.41800000000E+01 0.  1.
         -5    1    3    3    0  502 -0.19742722746E+02  0.54593328654E+02  0.23470367730E+03  0.24181293425E+03  0.41800000000E+01 0.  1.
        -11    1    1    2    0    0  0.19869255476E+01 -0.13122534237E+02  0.66450343740E+01  0.14842683711E+02  0.00000000000E+00 0.  1.
         11    1    1    2    0    0  0.51552165895E+02  0.27471171712E+02  0.35064423285E+03  0.35547667872E+03  0.00000000000E+00 0. -1.
</event>
<event>
 7    1  0.2810263E-009  0.1311561E+03  0.7561462E-02  0.1225750E+00
          2   -1    0    0  501    0  0.00000000000E+00  0.00000000000E+00  0.46567406813E+03  0.46567406813E+03  0.00000000000E+00 0.  1.
         -2   -1    0    0    0  501 -0.00000000000E+00 -0.00000000000E+00 -0.51773673720E+02  0.51773673720E+02  0.00000000000E+00 0. -1.
         25    2    1    2    0    0 -0.73495537965E+02 -0.57022229810E+02  0.12295800408E+03  0.19854980443E+03  0.12510086042E+03 0.  0.
          5    1    3    3  502    0 -0.54042488309E+02  0.19418153883E+02  0.66552746731E+01  0.57960506587E+02  0.41800000000E+01 0. -1.
         -5    1    3    3    0  502 -0.19453049656E+02 -0.76440383692E+02  0.11630272941E+03  0.14058929784E+03  0.41800000000E+01 0. -1.
        -11    1    1    2    0    0  0.75550728482E+02  0.75703910426E+02  0.20839544900E+03  0.23423846352E+03  0.00000000000E+00 0. -1.
         11    1    1    2    0    0 -0.20551905168E+01 -0.18681680616E+02  0.82546941323E+02  0.84659473897E+02  0.00000000000E+00 0.  1.
</event>
<event>
 7    1  0.2810263E-009  0.1527218E+03  0.7561462E-02  0.1197168E+00
          2   -1    0    0  501    0  0.00000000000E+00  0.00000000000E+00  0.40533505215E+03  0.40533505215E+03  0.00000000000E+00 0. -1.
         -2   -1    0    0    0  501 -0.00000000000E+00 -0.00000000000E+00 -0.10099418185E+03  0.10099418185E+03  0.00000000000E+00 0.  1.
         25    2    1    2    0    0  0.12650380962E+03 -0.94897010889E+00  0.30208507323E+03  0.35058095536E+03  0.12508996921E+03 0.  0.
          5    1    3    3  502    0 -0.62212431310E+01 -0.23603941685E+02  0.12846194239E+03  0.13082734030E+03  0.41800000000E+01 0.  1.
         -5    1    3    3    0  502  0.13272505275E+03  0.22654971576E+02  0.17362313084E+03  0.21975361505E+03  0.41800000000E+01 0.  1.
        -11    1    1    2    0    0 -0.36587939596E+01 -0.20880983170E+02  0.20692383440E+02  0.29623925530E+02  0.00000000000E+00 0.  1.
         11    1    1    2    0    0 -0.12284501566E+03  0.21829953278E+02 -0.18436586366E+02  0.12612435312E+03  0.00000000000E+00 0. -1.
</event>
<event>
 7    1  0.2810263E-009  0.7314236E+02  0.7561462E-02  0.1349722E+00
          1   -1    0    0  501    0  0.00000000000E+00  0.00000000000E+00  0.20768926138E+03  0.20768926138E+03  0.00000000000E+00 0. -1.
         -1   -1    0    0    0  501 -0.00000000000E+00 -0.00000000000E+00 -0.71168816306E+02  0.71168816306E+02  0.00000000000E+00 0.  1.
         25    2    1    2    0    0  0.36999418659E+02  0.28476384171E+02  0.43125213974E+02  0.14031065040E+03  0.12508970021E+03 0.  0.
          5    1    3    3  502    0  0.42528939814E+02  0.40835690407E+02  0.80769733441E+02  0.10008739468E+03  0.41800000000E+01 0.  1.
         -5    1    3    3    0  502 -0.55295211549E+01 -0.12359306237E+02 -0.37644519467E+02  0.40223255720E+02  0.41800000000E+01 0.  1.
        -11    1    1    2    0    0 -0.18085356353E+02 -0.44616067182E+02  0.10154707348E+03  0.11238096679E+03  0.00000000000E+00 0. -1.
         11    1    1    2    0    0 -0.18914062306E+02  0.16139683011E+02 -0.81518423813E+01  0.26166460495E+02  0.00000000000E+00 0.  1.
</event>
<event>
 7    1  0.2810263E-009  0.8771709E+02  0.7561462E-02  0.1308476E+00
         -1   -1    0    0    0  501 -0.00000000000E+00  0.00000000000E+00  0.11762676583E+03  0.11762676583E+03  0.00000000000E+00 0.  1.
          1   -1    0    0  501    0  0.00000000000E+00 -0.00000000000E+00 -0.15301631021E+03  0.15301631021E+03  0.00000000000E+00 0. -1.
         25    2    1    2    0    0 -0.65412867783E+02  0.15250594410E+01 -0.58610267258E+02  0.15286623577E+03  0.12510696837E+03 0.  0.
          5    1    3    3  502    0 -0.42898667588E+02  0.35501076036E+02 -0.86745200538E+02  0.10316406495E+03  0.41800000000E+01 0. -1.
         -5    1    3    3    0  502 -0.22514200196E+02 -0.33976016595E+02  0.28134933280E+02  0.49702170826E+02  0.41800000000E+01 0. -1.
        -11    1    1    2    0    0  0.19683499991E+01  0.13319326085E+02 -0.30493009768E+02  0.33333204073E+02  0.00000000000E+00 0. -1.
         11    1    1    2    0    0  0.63444517784E+02 -0.14844385526E+02  0.53713732646E+02  0.84443636191E+02  0.00000000000E+00 0.  1.
</event>
<event>
 7    1  0.2810263E-009  0.3355004E+03  0.7561462E-02  0.1068729E+00
         -2   -1    0    0    0  501 -0.00000000000E+00  0.00000000000E+00  0.72102851384E+02  0.72102851384E+02  0.00000000000E+00 0. -1.
          2   -1    0    0  501    0  0.00000000000E+00 -0.00000000000E+00 -0.16239512752E+04  0.16239512752E+04  0.00000000000E+00 0.  1.
         25    2    1    2    0    0  0.18870324382E+03 -0.26170074770E+03 -0.87037387637E+03  0.93664044083E+03  0.12509370546E+03 0.  0.
          5    1    3    3  502    0  0.19760907238E+03 -0.19232899141E+03 -0.70625967429E+03  0.75819521652E+03  0.41800000000E+01 0.  1.
         -5    1    3    3    0  502 -0.89058285599E+01 -0.69371756296E+02 -0.16411420208E+03  0.17844522431E+03  0.41800000000E+01 0.  1.
        -11    1    1    2    0    0 -0.15179659038E+03  0.23433615053E+03 -0.50487442642E+03  0.57693485138E+03  0.00000000000E+00 0. -1.
         11    1    1    2    0    0 -0.36906653443E+02  0.27364597175E+02 -0.17660012102E+03  0.18247883437E+03  0.00000000000E+00 0.  1.
</event>
<event>
 7    1  0.2810263E-009  0.1445111E+03  0.7561462E-02  0.1207385E+00
          1   -1    0    0  501    0  0.00000000000E+00  0.00000000000E+00  0.75434563628E+03  0.75434563628E+03  0.00000000000E+00 0. -1.
         -1   -1    0    0    0  501 -0.00000000000E+00 -0.00000000000E+00 -0.44378237354E+02  0.44378237354E+02  0.00000000000E+00 0.  1.
         25    2    1    2    0    0  0.60564642572E+02  0.11535799620E+03  0.21268433957E+03  0.27902707292E+03  0.12508371559E+03 0.  0.
          5    1    3    3  502    0 -0.15709281901E+02  0.23522597336E+02 -0.65756888878E+01  0.29339499103E+02  0.41800000000E+01 0. -1.
         -5    1    3    3    0  502  0.76273924473E+02  0.91835398865E+02  0.21926002846E+03  0.24968757382E+03  0.41800000000E+01 0. -1.
        -11    1    1    2    0    0  0.46256150956E+01 -0.44316571707E+02  0.25623293475E+03  0.26007820303E+03  0.00000000000E+00 0.  1.
         11    1    1    2    0    0 -0.65190257668E+02 -0.71041424493E+02  0.24105012461E+03  0.25961859768E+03  0.00000000000E+00 0. -1.
</event>
<event>
 7    1  0.2810263E-009  0.1015054E+03  0.7561462E-02  0.1277162E+00
         -1   -1    0    0    0  501 -0.00000000000E+00  0.00000000000E+00  0.37132585175E+02  0.37132585175E+02  0.00000000000E+00 0.  1.
          1   -1    0    0  501    0  0.00000000000E+00 -0.00000000000E+00 -0.73644219476E+03  0.73644219476E+03  0.00000000000E+00 0. -1.
         25    2    1    2    0    0  0.57389709977E+01  0.82343710533E+00 -0.66589654292E+03  0.67756972012E+03  0.12509558715E+03 0.  0.
          5    1    3    3  502    0 -0.40909446523E+02  0.44918047411E+02 -0.32096086118E+03  0.32668725198E+03  0.41800000000E+01 0. -1.
         -5    1    3    3    0  502  0.46648417521E+02 -0.44094610305E+02 -0.34493568173E+03  0.35088246814E+03  0.41800000000E+01 0. -1.
        -11    1    1    2    0    0 -0.29610380129E+01 -0.39198373432E+02  0.73065055639E+01  0.39983312136E+02  0.00000000000E+00 0.  1.
         11    1    1    2    0    0 -0.27779329848E+01  0.38374936327E+02 -0.40719572238E+02  0.56021747679E+02  0.00000000000E+00 0. -1.
</event>
<event>
 7    1  0.2810263E-009  0.6393528E+02  0.7561462E-02  0.1382022E+00
         -1   -1    0    0    0  501 -0.00000000000E+00  0.00000000000E+00  0.13095799010E+03  0.13095799010E+03  0.00000000000E+00 0.  1.
          1   -1    0    0  501    0  0.00000000000E+00 -0.00000000000E+00 -0.13759581884E+03  0.13759581884E+03  0.00000000000E+00 0. -1.
         25    2    1    2    0    0 -0.14643244754E+02  0.60192209415E+02  0.40217813099E+02  0.14526770342E+03  0.12509079292E+03 0.  0.
          5    1    3    3  502    0  0.16400356735E+01  0.19355864143E+02  0.82060331269E+02  0.84431685768E+02  0.41800000000E+01 0. -1.
         -5    1    3    3    0  502 -0.16283280427E+02  0.40836345272E+02 -0.41842518170E+02  0.60836017649E+02  0.41800000000E+01 0. -1.
        -11    1    1    2    0    0 -0.20544428799E+01 -0.22750471913E+02 -0.71766869848E+02  0.75314595635E+02  0.00000000000E+00 0. -1.
         11    1    1    2    0    0  0.16697687634E+02 -0.37441737502E+02  0.24911228007E+02  0.47971509881E+02  0.00000000000E+00 0.  1.
</event>
<event>
 7    1  0.2810263E-009  0.1976895E+03  0.7561462E-02  0.1151703E+00
         -1   -1    0    0    0  501 -0.00000000000E+00  0.00000000000E+00  0.79648707764E+02  0.79648707764E+02  0.00000000000E+00 0.  1.
          1   -1    0    0  501    0  0.00000000000E+00 -0.00000000000E+00 -0.62365814820E+03  0.62365814820E+03  0.00000000000E+00 0. -1.
         25    2    1    2    0    0  0.10834826941E+03 -0.15978085024E+03 -0.24881901165E+03  0.33886392170E+03  0.12509432153E+03 0.  0.
          5    1    3    3  502    0  0.40417057644E+02 -0.30728973129E+02 -0.16032642066E+03  0.16822556850E+03  0.41800000000E+01 0. -1.
         -5    1    3    3    0  502  0.67931211771E+02 -0.12905187711E+03 -0.88492590998E+02  0.17063835319E+03  0.41800000000E+01 0. -1.
        -11    1    1    2    0    0 -0.55504033410E+02  0.42523097936E+02 -0.17483113644E+03  0.18829455077E+03  0.00000000000E+00 0.  1.
         11    1    1    2    0    0 -0.52844236005E+02  0.11725775230E+03 -0.12035929234E+03  0.17614838349E+03  0.00000000000E+00 0. -1.
</event>
<event>
 7    1  0.2810263E-009  0.1000107E+03  0.7561462E-02  0.1280273E+00
          4   -1    0    0  501    0  0.00000000000E+00  0.00000000000E+00  0.59293440389E+02  0.59293440389E+02  0.00000000000E+00 0. -1.
         -4   -1    0    0    0  501 -0.00000000000E+00 -0.00000000000E+00 -0.29685644342E+03  0.29685644342E+03  0.00000000000E+00 0.  1.
         25    2    1    2    0    0  0.19616268745E+02  0.17214713575E+02 -0.22534151857E+03  0.25904859298E+03  0.12508488787E+03 0.  0.
          5    1    3    3  502    0  0.60990691781E+02  0.10385246166E+02 -0.20107438087E+03  0.21041886053E+03  0.41800000000E+01 0. -1.
         -5    1    3    3    0  502 -0.41374423036E+02  0.68294674092E+01 -0.24267137693E+02  0.48629732453E+02  0.41800000000E+01 0. -1.
        -11    1    1    2    0    0 -0.31649628524E+02  0.32117294861E+02 -0.10479584159E+02  0.46292994061E+02  0.00000000000E+00 0.  1.
         11    1    1    2    0    0  0.12033359779E+02 -0.49332008436E+02 -0.17419003062E+01  0.50808296769E+02  0.00000000000E+00 0. -1.
</event>
<event>
 7    1  0.2810263E-009  0.1062635E+03  0.7561462E-02  0.1267650E+00
         -3   -1    0    0    0  501 -0.00000000000E+00  0.00000000000E+00  0.21007421147E+03  0.21007421147E+03  0.00000000000E+00 0.  1.
          3   -1    0    0  501    0  0.00000000000E+00 -0.00000000000E+00 -0.79912946570E+02  0.79912946570E+02  0.00000000000E+00 0. -1.
         25    2    1    2    0    0 -0.45987186670E+02  0.11821288213E+02  0.13283721806E+03  0.18854129419E+03  0.12509008322E+03 0.  0.
          5    1    3    3  502    0 -0.21958938948E+02  0.68311797009E+02  0.64348892939E+02  0.96472529939E+02  0.41800000000E+01 0.  1.
         -5    1    3    3    0  502 -0.24028247722E+02 -0.56490508796E+02  0.68488325121E+02  0.92068764250E+02  0.41800000000E+01 0.  1.
        -11    1    1    2    0    0 -0.20841059724E+01 -0.28244398938E+02  0.29832914642E+02  0.41135050323E+02  0.00000000000E+00 0.  1.
         11    1    1    2    0    0  0.48071292642E+02  0.16423110724E+02 -0.32508867804E+02  0.60310813525E+02  0.00000000000E+00 0. -1.
</event>
<event>
 7    1  0.2905398E-009  0.1075622E+03  0.7561462E-02  0.1265152E+00
         -1   -1    0    0    0  501 -0.00000000000E+00  0.00000000000E+00  0.16683532133E+02  0.16683532133E+02  0.00000000000E+00 0.  1.
          1   -1    0    0  501    0  0.00000000000E+00 -0.00000000000E+00 -0.10245399993E+04  0.10245399993E+04  0.00000000000E+00 0. -1.
         25    2    1    2    0    0 -0.41249527487E+02  0.14120348834E+02 -0.78902120140E+03  0.80006371138E+03  0.12508628317E+03 0.  0.
          5    1    3    3  502    0 -0.83215521510E+02  0.10204815763E+02 -0.39804556790E+03  0.40680057499E+03  0.41800000000E+01 0.  1.
         -5    1    3    3    0  502  0.41965994023E+02  0.39155330714E+01 -0.39097563350E+03  0.39326313639E+03  0.41800000000E+01 0.  1.
        -11    1    1    2    0    0  0.60114224775E+01 -0.42906189181E+02 -0.49334029410E+02  0.65657632672E+02  0.00000000000E+00 0.  1.
         11    1    1    2    0    0  0.35238105010E+02  0.28785840348E+02 -0.16950123634E+03  0.17550218737E+03  0.00000000000E+00 0. -1.
</event>
<event>
 7    1  0.2810263E-009  0.8964201E+02  0.7561462E-02  0.1303721E+00
         -2   -1    0    0    0  501 -0.00000000000E+00  0.00000000000E+00  0.18640178784E+03  0.18640178784E+03  0.00000000000E+00 0. -1.
          2   -1    0    0  501    0  0.00000000000E+00 -0.00000000000E+00 -0.92272344200E+02  0.92272344200E+02  0.00000000000E+00 0.  1.
         25    2    1    2    0    0 -0.86220962261E+01  0.49526769536E+02  0.10819602583E+03  0.17286674719E+03  0.12509712561E+03 0.  0.
          5    1    3    3  502    0  0.19221080814E+02  0.55034442606E+02 -0.25158120928E+01  0.58498218188E+02  0.41800000000E+01 0.  1.
         -5    1    3    3    0  502 -0.27843177040E+02 -0.55076730701E+01  0.11071183792E+03  0.11436852900E+03  0.41800000000E+01 0.  1.
        -11    1    1    2    0    0 -0.19903634417E+02  0.12760275271E+02 -0.27213136319E+02  0.36049050977E+02  0.00000000000E+00 0.  1.
         11    1    1    2    0    0  0.28525730643E+02 -0.62287044808E+02  0.13146554134E+02  0.69758333876E+02  0.00000000000E+00 0. -1.
</event>
<event>
 7    1  0.2810263E-009  0.1860504E+03  0.7561462E-02  0.1162073E+00
         -3   -1    0    0    0  501 -0.00000000000E+00  0.00000000000E+00  0.16231760756E+03  0.16231760756E+03  0.00000000000E+00 0.  1.
          3   -1    0    0  501    0  0.00000000000E+00 -0.00000000000E+00 -0.23653863119E+03  0.23653863119E+03  0.00000000000E+00 0. -1.
         25    2    1    2    0    0 -0.11892508049E+03  0.10918454161E+03 -0.53653332480E+02  0.21116315994E+03  0.12508701424E+03 0.  0.
          5    1    3    3  502    0  0.25132847270E+02  0.42398221270E+01 -0.92750386425E+01  0.27443302377E+02  0.41800000000E+01 0. -1.
         -5    1    3    3    0  502 -0.14405792776E+03  0.10494471948E+03 -0.44378293838E+02  0.18371985756E+03  0.41800000000E+01 0. -1.
        -11    1    1    2    0    0  0.36702180117E+02 -0.65010001907E+02  0.31255155797E+02  0.80933522950E+02  0.00000000000E+00 0.  1.
         11    1    1    2    0    0  0.82222900371E+02 -0.44174539704E+02 -0.51822846945E+02  0.10675955587E+03  0.00000000000E+00 0. -1.
</event>
<event>
 7    1  0.2810263E-009  0.1177931E+03  0.7561462E-02  0.1246783E+00
          3   -1    0    0  501    0  0.00000000000E+00  0.00000000000E+00  0.42123241723E+03  0.42123241723E+03  0.00000000000E+00 0. -1.
         -3   -1    0    0    0  501 -0.00000000000E+00 -0.00000000000E+00 -0.36521953404E+02  0.36521953404E+02  0.00000000000E+00 0.  1.
         25    2    1    2    0    0 -0.15891655700E+02  0.62764082620E+02  0.17148161907E+03  0.22191447348E+03  0.12509281782E+03 0.  0.
          5    1    3    3  502    0 -0.63723412501E+02  0.62848950667E+02  0.87862494857E+02  0.12549085346E+03  0.41800000000E+01 0.  1.
         -5    1    3    3    0  502  0.47831756801E+02 -0.84868046849E-01  0.83619124216E+02  0.96423620011E+02  0.41800000000E+01 0.  1.
        -11    1    1    2    0    0 -0.23089504231E+02 -0.52963937135E+02  0.15185720916E+03  0.16247743171E+03  0.00000000000E+00 0. -1.
         11    1    1    2    0    0  0.38981159931E+02 -0.98001454858E+01  0.61371635599E+02  0.73362465452E+02  0.00000000000E+00 0.  1.
</event>
<event>
 7    1  0.2810263E-009  0.1941208E+03  0.7561462E-02  0.1154796E+00
          2   -1    0    0  501    0  0.00000000000E+00  0.00000000000E+00  0.23735668367E+04  0.23735668367E+04  0.00000000000E+00 0. -1.
         -2   -1    0    0    0  501 -0.00000000000E+00 -0.00000000000E+00 -0.16064341044E+02  0.16064341044E+02  0.00000000000E+00 0.  1.
         25    2    1    2    0    0  0.89039654980E+02  0.12843104545E+03  0.13072128465E+04  0.13224506881E+04  0.12509117846E+03 0.  0.
          5    1    3    3  502    0  0.96754401754E+02  0.31289684050E+02  0.60598545448E+03  0.61447237694E+03  0.41800000000E+01 0.  1.
         -5    1    3    3    0  502 -0.77147467743E+01  0.97141361399E+02  0.70122739201E+03  0.70797831119E+03  0.41800000000E+01 0.  1.
        -11    1    1    2    0    0 -0.10056835532E+03 -0.55049442249E+02  0.61390440759E+03  0.62451825982E+03  0.00000000000E+00 0. -1.
         11    1    1    2    0    0  0.11528700337E+02 -0.73381603200E+02  0.43638524153E+03  0.44266222975E+03  0.00000000000E+00 0.  1.
</event>
<event>
 7    1  0.2810263E-009  0.2743835E+03  0.7561462E-02  0.1098797E+00
          2   -1    0    0  501    0  0.00000000000E+00  0.00000000000E+00  0.28437896059E+04  0.28437896059E+04  0.00000000000E+00 0.  1.
         -2   -1    0    0    0  501 -0.00000000000E+00 -0.00000000000E+00 -0.28198590948E+02  0.28198590948E+02  0.00000000000E+00 0. -1.
         25    2    1    2    0    0 -0.25184123994E+03  0.55152740937E+02  0.16570602355E+04  0.16816542699E+04  0.12508646752E+03 0.  0.
          5    1    3    3  502    0 -0.32524270726E+02  0.47197730366E+02  0.55353174198E+03  0.55650724678E+03  0.41800000000E+01 0.  1.
         -5    1    3    3    0  502 -0.21931696922E+03  0.79550105715E+01  0.11035284935E+04  0.11251470231E+04  0.41800000000E+01 0.  1.
        -11    1    1    2    0    0  0.21357332923E+03 -0.11700121647E+02  0.95951424949E+03  0.98306564114E+03  0.00000000000E+00 0.  1.
         11    1    1    2    0    0  0.38267910717E+02 -0.43452619290E+02  0.19901652990E+03  0.20726828578E+03  0.00000000000E+00 0. -1.
</event>
<event>
 7    1  0.2810263E-009  0.1261912E+03  0.7561462E-02  0.1233219E+00
         -2   -1    0    0    0  501 -0.00000000000E+00  0.00000000000E+00  0.18827487072E+02  0.18827487072E+02  0.00000000000E+00 0.  1.
          2   -1    0    0  501    0  0.00000000000E+00 -0.00000000000E+00 -0.19350050489E+04  0.19350050489E+04  0.00000000000E+00 0. -1.
         25    2    1    2    0    0  0.73311191362E+02 -0.68928438742E+02 -0.16179757296E+04  0.16259219189E+04  0.12510381345E+03 0.  0.
          5    1    3    3  502    0 -0.14176094837E+02  0.30347502901E+01 -0.79853359533E+03  0.79867612124E+03  0.41800000000E+01 0.  1.
         -5    1    3    3    0  502  0.87487286199E+02 -0.71963189032E+02 -0.81944213429E+03  0.82724579761E+03  0.41800000000E+01 0.  1.
        -11    1    1    2    0    0  0.74562953501E+01  0.35916504484E+02 -0.16242043460E+03  0.16651122848E+03  0.00000000000E+00 0. -1.
         11    1    1    2    0    0 -0.80767486712E+02  0.33011934258E+02 -0.13578139758E+03  0.16139938861E+03  0.00000000000E+00 0.  1.
</event>
<event>
 7    1  0.2810263E-009  0.9765328E+02  0.7561462E-02  0.1285310E+00
          1   -1    0    0  501    0  0.00000000000E+00  0.00000000000E+00  0.65303374535E+03  0.65303374535E+03  0.00000000000E+00 0. -1.
         -1   -1    0    0    0  501 -0.00000000000E+00 -0.00000000000E+00 -0.18383433933E+02  0.18383433933E+02  0.00000000000E+00 0.  1.
         25    2    1    2    0    0 -0.20043939864E+02  0.42489343454E+01  0.37852083274E+03  0.39918020809E+03  0.12508798800E+03 0.  0.
          5    1    3    3  502    0 -0.61556309292E+02 -0.21439605714E+02  0.12572035944E+03  0.14167539336E+03  0.41800000000E+01 0.  1.
         -5    1    3    3    0  502  0.41512369428E+02  0.25688540060E+02  0.25280047330E+03  0.25750481472E+03  0.41800000000E+01 0.  1.
        -11    1    1    2    0    0  0.17995609425E+02  0.36234910367E+02  0.19313811812E+03  0.19733003664E+03  0.00000000000E+00 0. -1.
         11    1    1    2    0    0  0.20483304387E+01 -0.40483844712E+02  0.62991360553E+02  0.74906934556E+02  0.00000000000E+00 0.  1.
</event>
<event>
 7    1  0.2810263E-009  0.1545289E+03  0.7561462E-02  0.1195016E+00
          3   -1    0    0  501    0  0.00000000000E+00  0.00000000000E+00  0.79190293151E+02  0.79190293151E+02  0.00000000000E+00 0. -1.
         -3   -1    0    0    0  501 -0.00000000000E+00 -0.00000000000E+00 -0.39083436103E+03  0.39083436103E+03  0.00000000000E+00 0.  1.
         25    2    1    2    0    0 -0.12298845890E+03 -0.37090208505E+02 -0.23237714287E+03  0.29350992722E+03  0.12508835382E+03 0.  0.
          5    1    3    3  502    0 -0.10859994039E+03  0.84252663954E+01 -0.84087404954E+02  0.13767024456E+03  0.41800000000E+01 0.  1.
         -5    1    3    3    0  502 -0.14388518509E+02 -0.45515474900E+02 -0.14828973791E+03  0.15583968266E+03  0.41800000000E+01 0.  1.
        -11    1    1    2    0    0  0.91223979177E+02 -0.13680797422E+02 -0.24697593938E+02  0.95493192120E+02  0.00000000000E+00 0. -1.
         11    1    1    2    0    0  0.31764479718E+02  0.50771005926E+02 -0.54569331076E+02  0.81021534845E+02  0.00000000000E+00 0.  1.
</event>
<event>
 7    1  0.2810263E-009  0.1166338E+03  0.7561462E-02  0.1248756E+00
         -1   -1    0    0    0  501 -0.00000000000E+00  0.00000000000E+00  0.25790523578E+02  0.25790523578E+02  0.00000000000E+00 0.  1.
          1   -1    0    0  501    0  0.00000000000E+00 -0.00000000000E+00 -0.56663026079E+03  0.56663026079E+03  0.00000000000E+00 0. -1.
         25    2    1    2    0    0  0.48607242039E+02  0.13145977118E+02 -0.34497127003E+03  0.37038784089E+03  0.12508594982E+03 0.  0.
          5    1    3    3  502    0  0.27860453781E+02  0.66164216239E+02 -0.24422328769E+03  0.25459064211E+03  0.41800000000E+01 0.  1.
         -5    1    3    3    0  502  0.20746788258E+02 -0.53018239120E+02 -0.10074798234E+03  0.11579719879E+03  0.41800000000E+01 0.  1.
        -11    1    1    2    0    0 -0.14718927363E+02 -0.51223011457E+02 -0.10846904019E+03  0.12085518774E+03  0.00000000000E+00 0. -1.
         11    1    1    2    0    0 -0.33888314676E+02  0.38077034339E+02 -0.87399426991E+02  0.10117775573E+03  0.00000000000E+00 0.  1.
</event>
<event>
 7    1  0.2810263E-009  0.6829835E+02  0.7561462E-02  0.1365977E+00
          1   -1    0    0  501    0  0.00000000000E+00  0.00000000000E+00  0.23065292792E+03  0.23065292792E+03  0.00000000000E+00 0. -1.
         -1   -1    0    0    0  501 -0.00000000000E+00 -0.00000000000E+00 -0.62341387680E+02  0.62341387680E+02  0.00000000000E+00 0.  1.
         25    2    1    2    0    0 -0.45702819739E+02  0.62738746472E+00  0.68388306226E+02  0.14971133539E+03  0.12508949663E+03 0.  0.
          5    1    3    3  502    0 -0.36240206707E+02  0.30765595199E+02 -0.22965421367E+02  0.52959960429E+02  0.41800000000E+01 0. -1.
         -5    1    3    3    0  502 -0.94626130316E+01 -0.30138207734E+02  0.91353727592E+02  0.96751374956E+02  0.41800000000E+01 0. -1.
        -11    1    1    2    0    0  0.28993383720E+01 -0.12305959645E+02 -0.15279409257E+02  0.19831872151E+02  0.00000000000E+00 0.  1.
         11    1    1    2    0    0  0.42803481367E+02  0.11678572180E+02  0.11520264327E+03  0.12345110807E+03  0.00000000000E+00 0. -1.
</event>
<event>
 7    1  0.2810263E-009  0.1155215E+03  0.7561462E-02  0.1250674E+00
          4   -1    0    0  501    0  0.00000000000E+00  0.00000000000E+00  0.29297879153E+02  0.29297879153E+02  0.00000000000E+00 0. -1.
         -4   -1    0    0    0  501 -0.00000000000E+00 -0.00000000000E+00 -0.59803170308E+03  0.59803170308E+03  0.00000000000E+00 0.  1.
         25    2    1    2    0    0 -0.74679461728E+02 -0.15744728495E+02 -0.31845411082E+03  0.35055109870E+03  0.12509250026E+03 0.  0.
          5    1    3    3  502    0  0.21054485169E+02  0.21795508361E+02 -0.24787293997E+02  0.39372806277E+02  0.41800000000E+01 0. -1.
         -5    1    3    3    0  502 -0.95733946897E+02 -0.37540236856E+02 -0.29366681682E+03  0.31117829242E+03  0.41800000000E+01 0. -1.
        -11    1    1    2    0    0  0.14711622694E+02 -0.22155669431E+02 -0.15881859686E+03  0.16102997311E+03  0.00000000000E+00 0.  1.
         11    1    1    2    0    0  0.59967839033E+02  0.37900397926E+02 -0.91461116256E+02  0.11574851044E+03  0.00000000000E+00 0. -1.
</event>
<event>
 7    1  0.3012410E-009  0.8871823E+02  0.7561462E-02  0.1305986E+00
          2   -1    0    0  501    0  0.00000000000E+00  0.00000000000E+00  0.13786026943E+03  0.13786026943E+03  0.00000000000E+00 0. -1.
         -2   -1    0    0    0  501 -0.00000000000E+00 -0.00000000000E+00 -0.11219913985E+03  0.11219913985E+03  0.00000000000E+00 0.  1.
         25    2    1    2    0    0 -0.25119010273E+02  0.16497839365E+02  0.66940707206E+02  0.14502080372E+03  0.12508729691E+03 0.  0.
          5    1    3    3  502    0  0.19099083658E+02  0.61920608204E+02  0.29961169178E+02  0.71512801479E+02  0.41800000000E+01 0. -1.
         -5    1    3    3    0  502 -0.44218093931E+02 -0.45422768839E+02  0.36979538028E+02  0.73508002236E+02  0.41800000000E+01 0. -1.
        -11    1    1    2    0    0  0.25856284324E+01  0.12208668966E+02 -0.61883937131E+02  0.63129697823E+02  0.00000000000E+00 0.  1.
         11    1    1    2    0    0  0.22533381841E+02 -0.28706508331E+02  0.20604359507E+02  0.41908907745E+02  0.00000000000E+00 0. -1.
</event>
<event>
 7    1  0.2810263E-009  0.1124112E+03  0.7561462E-02  0.1256169E+00
          1   -1    0    0  501    0  0.00000000000E+00  0.00000000000E+00  0.11153106532E+04  0.11153106532E+04  0.00000000000E+00 0. -1.
         -1   -1    0    0    0  501 -0.00000000000E+00 -0.00000000000E+00 -0.19231262334E+02  0.19231262334E+02  0.00000000000E+00 0.  1.
         25    2    1    2    0    0 -0.89588153176E+02  0.26000190515E+02  0.71982891484E+03  0.73654814938E+03  0.12508981826E+03 0.  0.
          5    1    3    3  502    0 -0.45086750099E+02  0.39606408903E+01  0.62221600707E+02  0.77055186102E+02  0.41800000000E+01 0.  1.
         -5    1    3    3    0  502 -0.44501403077E+02  0.22039549625E+02  0.65760731413E+03  0.65949296328E+03  0.41800000000E+01 0.  1.
        -11    1    1    2    0    0 -0.56227779698E+01  0.22141217522E+02  0.58028248129E+02  0.62362863359E+02  0.00000000000E+00 0.  1.
         11    1    1    2    0    0  0.95210931146E+02 -0.48141408038E+02  0.31822222792E+03  0.33563090281E+03  0.00000000000E+00 0. -1.
</event>
<event>
 7    1  0.2810263E-009  0.3133330E+03  0.7561462E-02  0.1078759E+00
          2   -1    0    0  501    0  0.00000000000E+00  0.00000000000E+00  0.44363736392E+03  0.44363736392E+03  0.00000000000E+00 0. -1.
         -2   -1    0    0    0  501 -0.00000000000E+00 -0.00000000000E+00 -0.23631626071E+03  0.23631626071E+03  0.00000000000E+00 0.  1.
         25    2    1    2    0    0  0.10587351739E+03 -0.28145640719E+03  0.54075546604E+02  0.33015039988E+03  0.12509280943E+03 0.  0.
          5    1    3    3  502    0  0.98030489902E+02 -0.87817887766E+02  0.27116646617E+02  0.13444234186E+03  0.41800000000E+01 0. -1.
         -5    1    3    3    0  502  0.78430274849E+01 -0.19363851943E+03  0.26958899987E+02  0.19570805802E+03  0.41800000000E+01 0. -1.
        -11    1    1    2    0    0 -0.89197619132E+02  0.21821614401E+03  0.15868571299E+03  0.28417539703E+03  0.00000000000E+00 0.  1.
         11    1    1    2    0    0 -0.16675898255E+02  0.63240263179E+02 -0.54401563909E+01  0.65627827719E+02  0.00000000000E+00 0. -1.
</event>
<event>
 7    1  0.2810263E-009  0.1229692E+03  0.7561462E-02  0.1238278E+00
          2   -1    0    0  501    0  0.00000000000E+00  0.00000000000E+00  0.10661822106E+04  0.10661822106E+04  0.00000000000E+00 0. -1.
         -2   -1    0    0    0  501 -0.00000000000E+00 -0.00000000000E+00 -0.14457729908E+02  0.14457729908E+02  0.00000000000E+00 0.  1.
         25    2    1    2    0    0 -0.38919327061E+02  0.53129437161E+02  0.56720821390E+03  0.58455919615E+03  0.12508734856E+03 0.  0.
          5    1    3    3  502    0 -0.51822945019E+02 -0.27378240524E+02  0.27163969541E+03  0.27792225929E+03  0.41800000000E+01 0. -1.
         -5    1    3    3    0  502  0.12903617958E+02  0.80507677685E+02  0.29556851849E+03  0.30663693685E+03  0.41800000000E+01 0. -1.
        -11    1    1    2    0    0  0.36601976974E+02  0.13391940480E+02  0.14807945332E+03  0.15312273927E+03  0.00000000000E+00 0.  1.
         11    1    1    2    0    0  0.23173500872E+01 -0.66521377641E+02  0.33643681352E+03  0.34295800514E+03  0.00000000000E+00 0. -1.
</event>
<event>
 7    1  0.2810263E-009  0.1657424E+03  0.7561462E-02  0.1182362E+00
         -1   -1    0    0    0  501 -0.00000000000E+00  0.00000000000E+00  0.61241959092E+02  0.61241959092E+02  0.00000000000E+00 0.  1.
          1   -1    0    0  501    0  0.00000000000E+00 -0.00000000000E+00 -0.57534275540E+03  0.57534275540E+03  0.00000000000E+00 0. -1.
         25    2    1    2    0    0 -0.96440155276E+02  0.89756978534E+02 -0.40201496636E+03  0.44115917368E+03  0.12509342349E+03 0.  0.
          5    1    3    3  502    0 -0.81289936598E+02  0.33448580271E+00 -0.26139396284E+03  0.27377443613E+03  0.41800000000E+01 0.  1.
         -5    1    3    3    0  502 -0.15150218678E+02  0.89422492731E+02 -0.14062100353E+03  0.16738473755E+03  0.41800000000E+01 0.  1.
        -11    1    1    2    0    0  0.48858341351E+02  0.89919679463E+01 -0.26154180107E+02  0.56142979474E+02  0.00000000000E+00 0.  1.
         11    1    1    2    0    0  0.47581813925E+02 -0.98748946480E+02 -0.85931649835E+02  0.13928256133E+03  0.00000000000E+00 0. -1.
</event>
<event>
 7    1  0.2810263E-009  0.1221105E+03  0.7561462E-02  0.1239655E+00
          3   -1    0    0  501    0  0.00000000000E+00  0.00000000000E+00  0.28711582662E+02  0.28711582662E+02  0.00000000000E+00 0. -1.
         -3   -1    0    0    0  501 -0.00000000000E+00 -0.00000000000E+00 -0.92748560107E+03  0.92748560107E+03  0.00000000000E+00 0.  1.
         25    2    1    2    0    0  0.91220659464E+02  0.52894864885E+01 -0.71665897511E+03  0.73320979691E+03  0.12508929727E+03 0.  0.
          5    1    3    3  502    0  0.85057858856E+02 -0.34260678159E+02 -0.27918065015E+03  0.29388423101E+03  0.41800000000E+01 0. -1.
         -5    1    3    3    0  502  0.61628006085E+01  0.39550164647E+02 -0.43747832497E+03  0.43932556590E+03  0.41800000000E+01 0. -1.
        -11    1    1    2    0    0  0.33842200156E+01 -0.16565494987E+02  0.60645469436E+00  0.16918521111E+02  0.00000000000E+00 0. -1.
         11    1    1    2    0    0 -0.94604879480E+02  0.11276008499E+02 -0.18272149799E+03  0.20606886572E+03  0.00000000000E+00 0.  1.
</event>
<event>
 7    1  0.2810263E-009  0.2043000E+03  0.7561462E-02  0.1146161E+00
          1   -1    0    0  501    0  0.00000000000E+00  0.00000000000E+00  0.16233247391E+03  0.16233247391E+03  0.00000000000E+00 0. -1.
         -1   -1    0    0    0  501 -0.00000000000E+00 -0.00000000000E+00 -0.32703947669E+03  0.32703947669E+03  0.00000000000E+00 0.  1.
         25    2    1    2    0    0  0.11052275262E+03  0.15645058696E+03 -0.15626167065E+03  0.27705185243E+03  0.12509178316E+03 0.  0.
          5    1    3    3  502    0  0.63361074743E+02  0.12318443788E+03 -0.35377034712E+02  0.14303159971E+03  0.41800000000E+01 0. -1.
         -5    1    3    3    0  502  0.47161677876E+02  0.33266149075E+02 -0.12088463593E+03  0.13402025272E+03  0.41800000000E+01 0. -1.
        -11    1    1    2    0    0 -0.10532591795E+03 -0.72106649220E+02 -0.44067440144E+01  0.12771976060E+03  0.00000000000E+00 0.  1.
         11    1    1    2    0    0 -0.51968346669E+01 -0.84343937738E+02 -0.40385881198E+01  0.84600337575E+02  0.00000000000E+00 0. -1.
</event>
<event>
 7    1  0.2810263E-009  0.2221217E+03  0.7561462E-02  0.1132311E+00
          2   -1    0    0  501    0  0.00000000000E+00  0.00000000000E+00  0.30787217975E+02  0.30787217975E+02  0.00000000000E+00 0. -1.
         -2   -1    0    0    0  501 -0.00000000000E+00 -0.00000000000E+00 -0.17978952823E+04  0.17978952823E+04  0.00000000000E+00 0.  1.
         25    2    1    2    0    0  0.74835766885E+02  0.17987352479E+03 -0.62505696477E+03  0.66655772093E+03  0.12509240268E+03 0.  0.
          5    1    3    3  502    0 -0.17801590798E+02 -0.87302036861E+01 -0.38891386873E+02  0.43853454417E+02  0.41800000000E+01 0.  1.
         -5    1    3    3    0  502  0.92637357683E+02  0.18860372847E+03 -0.58616557789E+03  0.62270426652E+03  0.41800000000E+01 0.  1.
        -11    1    1    2    0    0 -0.70275239142E+02 -0.56009593626E+02 -0.41921532855E+03  0.42873905293E+03  0.00000000000E+00 0.  1.
         11    1    1    2    0    0 -0.45605277435E+01 -0.12386393116E+03 -0.72283577102E+03  0.73338572642E+03  0.00000000000E+00 0. -1.
</event>
<event>
 7    1  0.2810263E-009  0.2416272E+03  0.7561462E-02  0.1118714E+00
          2   -1    0    0  501    0  0.00000000000E+00  0.00000000000E+00  0.29944588514E+03  0.29944588514E+03  0.00000000000E+00 0. -1.
         -2   -1    0    0    0  501 -0.00000000000E+00 -0.00000000000E+00 -0.20963953745E+03  0.20963953745E+03  0.00000000000E+00 0.  1.
         25    2    1    2    0    0 -0.20715847001E+03 -0.69109257659E+02  0.96583447652E+02  0.26956509575E+03  0.12508500030E+03 0.  0.
          5    1    3    3  502    0 -0.16728842090E+03 -0.26803330587E+01  0.36158664130E+02  0.17122360043E+03  0.41800000000E+01 0. -1.
         -5    1    3    3    0  502 -0.39870049109E+02 -0.66428924600E+02  0.60424783522E+02  0.98341495327E+02  0.41800000000E+01 0. -1.
        -11    1    1    2    0    0  0.19633613767E+03  0.31099513746E+02  0.30073819307E+01  0.19880669772E+03  0.00000000000E+00 0. -1.
         11    1    1    2    0    0  0.10822332332E+02  0.38009743913E+02 -0.97844818965E+01  0.40713629112E+02  0.00000000000E+00 0.  1.
</event>
<event>
 7    1  0.2810263E-009  0.1127501E+03  0.7561462E-02  0.1255560E+00
         -2   -1    0    0    0  501 -0.00000000000E+00  0.00000000000E+00  0.42778142313E+02  0.42778142313E+02  0.00000000000E+00 0.  1.
          2   -1    0    0  501    0  0.00000000000E+00 -0.00000000000E+00 -0.62450646869E+03  0.62450646869E+03  0.00000000000E+00 0. -1.
         25    2    1    2    0    0 -0.62613358302E+02  0.33552145643E+02 -0.51778560952E+03  0.53739678786E+03  0.12508873274E+03 0.  0.
          5    1    3    3  502    0 -0.65317776633E+02 -0.26742153509E+02 -0.38553976731E+03  0.39196930912E+03  0.41800000000E+01 0. -1.
         -5    1    3    3    0  502  0.27044183311E+01  0.60294299152E+02 -0.13224584221E+03  0.14542747874E+03  0.41800000000E+01 0. -1.
        -11    1    1    2    0    0  0.30964387953E+02 -0.49860791557E+02 -0.23441423639E+01  0.58739993696E+02  0.00000000000E+00 0.  1.
         11    1    1    2    0    0  0.31648970349E+02  0.16308645914E+02 -0.61598574496E+02  0.71147829451E+02  0.00000000000E+00 0. -1.
</event>
<event>
 7    1  0.2810263E-009  0.8663423E+02  0.7561462E-02  0.1311213E+00
          2   -1    0    0  501    0  0.00000000000E+00  0.00000000000E+00  0.95862506619E+02  0.95862506619E+02  0.00000000000E+00 0. -1.
         -2   -1    0    0    0  501 -0.00000000000E+00 -0.00000000000E+00 -0.15298136302E+03  0.15298136302E+03  0.00000000000E+00 0.  1.
         25    2    1    2    0    0 -0.43263968151E+01 -0.48110424324E+02 -0.79775224930E+01  0.13433182395E+03  0.12509223566E+03 0.  0.
          5    1    3    3  502    0  0.30835680182E+02  0.24592537810E+02 -0.30899855098E+02  0.50278280930E+02  0.41800000000E+01 0.  1.
         -5    1    3    3    0  502 -0.35162076997E+02 -0.72702962134E+02  0.22922332605E+02  0.84053543018E+02  0.41800000000E+01 0.  1.
        -11    1    1    2    0    0  0.12894301545E+02  0.31796847826E+02  0.22174890185E+02  0.40853742775E+02  0.00000000000E+00 0. -1.
         11    1    1    2    0    0 -0.85679047298E+01  0.16313576498E+02 -0.71316224098E+02  0.73658302921E+02  0.00000000000E+00 0.  1.
</event>
<event>
 7    1  0.2810263E-009  0.1776474E+03  0.7561462E-02  0.1170100E+00
         -2   -1    0    0    0  501 -0.00000000000E+00  0.00000000000E+00  0.24115003567E+02  0.24115003567E+02  0.00000000000E+00 0. -1.
          2   -1    0    0  501    0  0.00000000000E+00 -0.00000000000E+00 -0.14040031425E+04  0.14040031425E+04  0.00000000000E+00 0.  1.
         25    2    1    2    0    0  0.49971265488E+02 -0.13433486865E+03 -0.87334937041E+03  0.89382883423E+03  0.12509147769E+03 0.  0.
          5    1    3    3  502    0  0.88819773308E+02 -0.63466393231E+02 -0.51348943725E+03  0.52498172327E+03  0.41800000000E+01 0.  1.
         -5    1    3    3    0  502 -0.38848507819E+02 -0.70868475416E+02 -0.35985993316E+03  0.36884711096E+03  0.41800000000E+01 0.  1.
        -11    1    1    2    0    0 -0.18134319693E+02  0.13195831478E+03 -0.34913415068E+03  0.37367968310E+03  0.00000000000E+00 0. -1.
         11    1    1    2    0    0 -0.31836945796E+02  0.23765538676E+01 -0.15740461781E+03  0.16060962871E+03  0.00000000000E+00 0.  1.
</event>
<event>
 7    1  0.2810263E-009  0.1335121E+03  0.7561462E-02  0.1222335E+00
          2   -1    0    0  501    0  0.00000000000E+00  0.00000000000E+00  0.26059125065E+02  0.26059125065E+02  0.00000000000E+00 0. -1.
         -2   -1    0    0    0  501 -0.00000000000E+00 -0.00000000000E+00 -0.81320197413E+03  0.81320197413E+03  0.00000000000E+00 0.  1.
         25    2    1    2    0    0  0.31356745942E+02 -0.90723607174E+02 -0.39558221576E+03  0.42585022851E+03  0.12509639995E+03 0.  0.
          5    1    3    3  502    0  0.32279268457E+02  0.24748946395E+02 -0.81404888195E+02  0.91097144532E+02  0.41800000000E+01 0.  1.
         -5    1    3    3    0  502 -0.92252251573E+00 -0.11547255357E+03 -0.31417732757E+03  0.33475308398E+03  0.41800000000E+01 0.  1.
        -11    1    1    2    0    0  0.80647399390E+01  0.60168488656E+02 -0.32283989969E+03  0.32849792676E+03  0.00000000000E+00 0.  1.
         11    1    1    2    0    0 -0.39421485881E+02  0.30555118518E+02 -0.68720733611E+02  0.84912943918E+02  0.00000000000E+00 0. -1.
</event>
<event>
 7    1  0.2810263E-009  0.9408223E+02  0.7561462E-02  0.1293257E+00
          1   -1    0    0  501    0  0.00000000000E+00  0.00000000000E+00  0.13674641104E+03  0.13674641104E+03  0.00000000000E+00 0. -1.
         -1   -1    0    0    0  501 -0.00000000000E+00 -0.00000000000E+00 -0.10009295367E+03  0.10009295367E+03  0.00000000000E+00 0.  1.
         25    2    1    2    0    0 -0.73610696025E+01  0.38386786708E+02  0.40264135468E+02  0.13709597204E+03  0.12508546760E+03 0.  0.
          5    1    3    3  502    0 -0.48903088431E+02  0.57466948593E+02 -0.69067162064E+00  0.75577190117E+02  0.41800000000E+01 0. -1.
         -5    1    3    3    0  502  0.41542018829E+02 -0.19080161885E+02  0.40954807089E+02  0.61518781925E+02  0.41800000000E+01 0. -1.
        -11    1    1    2    0    0  0.29818000673E+02 -0.12276712584E+02  0.35279617625E+02  0.47796257759E+02  0.00000000000E+00 0. -1.
         11    1    1    2    0    0 -0.22456931071E+02 -0.26110074125E+02 -0.38890295721E+02  0.51947134908E+02  0.00000000000E+00 0.  1.
</event>
<event>
 7    1  0.2810263E-009  0.1654461E+03  0.7561462E-02  0.1182682E+00
         -3   -1    0    0    0  501 -0.00000000000E+00  0.00000000000E+00  0.66189539890E+02  0.66189539890E+02  0.00000000000E+00 0.  1.
          3   -1    0    0  501    0  0.00000000000E+00 -0.00000000000E+00 -0.45984248257E+03  0.45984248257E+03  0.00000000000E+00 0. -1.
         25    2    1    2    0    0  0.13362187838E+03 -0.93460156829E+01 -0.24236707731E+03  0.30386105006E+03  0.12509030014E+03 0.  0.
          5    1    3    3  502    0  0.75145792373E+02 -0.61484266867E+02 -0.17622002892E+03  0.20124158659E+03  0.41800000000E+01 0.  1.
         -5    1    3    3    0  502  0.58476086006E+02  0.52138251184E+02 -0.66147048396E+02  0.10261946347E+03  0.41800000000E+01 0.  1.
        -11    1    1    2    0    0 -0.85520819458E+02 -0.32508617542E+02 -0.12069031403E+03  0.15144891111E+03  0.00000000000E+00 0. -1.
         11    1    1    2    0    0 -0.48101058921E+02  0.41854633224E+02 -0.30595551342E+02  0.70722061294E+02  0.00000000000E+00 0.  1.
</event>
<event>
 7    1  0.2810263E-009  0.1348346E+03  0.7561462E-02  0.1220453E+00
         -2   -1    0    0    0  501 -0.00000000000E+00  0.00000000000E+00  0.26018107151E+03  0.26018107151E+03  0.00000000000E+00 0.  1.
          2   -1    0    0  501    0  0.00000000000E+00 -0.00000000000E+00 -0.83465983046E+02  0.83465983046E+02  0.00000000000E+00 0. -1.
         25    2    1    2    0    0  0.64612379596E+02  0.75809338688E+02  0.95221925125E+02  0.18610977804E+03  0.12509124281E+03 0.  0.
          5    1    3    3  502    0  0.88847120366E+02  0.37994227277E+02  0.20563666866E+02  0.98882298207E+02  0.41800000000E+01 0.  1.
         -5    1    3    3    0  502 -0.24234740770E+02  0.37815111411E+02  0.74658258259E+02  0.87227479830E+02  0.41800000000E+01 0.  1.
        -11    1    1    2    0    0 -0.83726750523E+02 -0.63824046373E+02  0.84207875199E+02  0.13481336690E+03  0.00000000000E+00 0.  1.
         11    1    1    2    0    0  0.19114370927E+02 -0.11985292315E+02 -0.27147118647E+01  0.22723909618E+02  0.00000000000E+00 0. -1.
</event>
<event>
 7    1  0.2810263E-009  0.1332614E+03  0.7561462E-02  0.1222695E+00
         -3   -1    0    0    0  501 -0.00000000000E+00  0.00000000000E+00  0.10949867655E+03  0.10949867655E+03  0.00000000000E+00 0.  1.
          3   -1    0    0  501    0  0.00000000000E+00 -0.00000000000E+00 -0.27257266814E+03  0.27257266814E+03  0.00000000000E+00 0. -1.
         25    2    1    2    0    0  0.10198154902E+03  0.11308462929E+02 -0.17859815377E+03  0.24098391833E+03  0.12509128942E+03 0.  0.
          5    1    3    3  502    0 -0.27340972742E+02  0.12902682724E+02 -0.49811011026E+02  0.58417610627E+02  0.41800000000E+01 0.  1.
         -5    1    3    3    0  502  0.12932252177E+03 -0.15942197954E+01 -0.12878714274E+03  0.18256630770E+03  0.41800000000E+01 0.  1.
        -11    1    1    2    0    0 -0.15027425232E+02  0.87168642496E+01  0.44095698135E+02  0.47394491509E+02  0.00000000000E+00 0.  1.
         11    1    1    2    0    0 -0.86954123792E+02 -0.20025327179E+02 -0.28571535953E+02  0.93692934844E+02  0.00000000000E+00 0. -1.
</event>
<event>
 7    1  0.2810263E-009  0.1178988E+03  0.7561462E-02  0.1246604E+00
          2   -1    0    0  501    0  0.00000000000E+00  0.00000000000E+00  0.33868794101E+02  0.33868794101E+02  0.00000000000E+00 0. -1.
         -2   -1    0    0    0  501 -0.00000000000E+00 -0.00000000000E+00 -0.44929627433E+03  0.44929627433E+03  0.00000000000E+00 0.  1.
         25    2    1    2    0    0 -0.79966910488E+01 -0.53502909922E+02 -0.27298937786E+03  0.30512043070E+03  0.12509503734E+03 0.  0.
          5    1    3    3  502    0 -0.27596973615E+02  0.31779946912E+02 -0.49710565605E+02  0.65269983233E+02  0.41800000000E+01 0.  1.
         -5    1    3    3    0  502  0.19600282566E+02 -0.85282856834E+02 -0.22327881225E+03  0.23985044746E+03  0.41800000000E+01 0.  1.
        -11    1    1    2    0    0  0.50867352284E+01 -0.25922041810E+02 -0.46317664058E+02  0.53321225892E+02  0.00000000000E+00 0.  1.
         11    1    1    2    0    0  0.29099558204E+01  0.79424951732E+02 -0.96120438310E+02  0.12472341184E+03  0.00000000000E+00 0. -1.
</event>
<event>
 7    1  0.3255536E-009  0.1884146E+03  0.7561462E-02  0.1159899E+00
          1   -1    0    0  501    0  0.00000000000E+00  0.00000000000E+00  0.84536750657E+03  0.84536750657E+03  0.00000000000E+00 0. -1.
         -1   -1    0    0    0  501 -0.00000000000E+00 -0.00000000000E+00 -0.45633451999E+02  0.45633451999E+02  0.00000000000E+00 0.  1.
         25    2    1    2    0    0  0.12842850692E+03  0.97541757275E+02  0.47577485982E+03  0.51770422752E+03  0.12509066371E+03 0.  0.
          5    1    3    3  502    0  0.14799342414E+03  0.61255445454E+02  0.40712311851E+03  0.43751684449E+03  0.41800000000E+01 0. -1.
         -5    1    3    3    0  502 -0.19564917219E+02  0.36286311821E+02  0.68651741307E+02  0.80187383021E+02  0.41800000000E+01 0. -1.
        -11    1    1    2    0    0 -0.65917238021E+02 -0.86274331554E+01  0.67423952421E+02  0.94686346594E+02  0.00000000000E+00 0.  1.
         11    1    1    2    0    0 -0.62511268900E+02 -0.88914324120E+02  0.25653524233E+03  0.27861038446E+03  0.00000000000E+00 0. -1.
</event>
<event>
 7    1  0.2810263E-009  0.1374569E+03  0.7561462E-02  0.1216792E+00
         -2   -1    0    0    0  501 -0.00000000000E+00  0.00000000000E+00  0.47759815223E+02  0.47759815223E+02  0.00000000000E+00 0.  1.
          2   -1    0    0  501    0  0.00000000000E+00 -0.00000000000E+00 -0.58676375360E+03  0.58676375360E+03  0.00000000000E+00 0. -1.
         25    2    1    2    0    0 -0.65128839195E+00  0.11411775487E+03 -0.18159834580E+03  0.24828832062E+03  0.12508335144E+03 0.  0.
          5    1    3    3  502    0  0.23079665978E+02  0.12792847819E+03 -0.10611559388E+03  0.16785814898E+03  0.41800000000E+01 0.  1.
         -5    1    3    3    0  502 -0.23730954370E+02 -0.13810723319E+02 -0.75482751914E+02  0.80430171642E+02  0.41800000000E+01 0.  1.
        -11    1    1    2    0    0  0.80325899906E+01 -0.10518669102E+03 -0.35932518395E+03  0.37449078799E+03  0.00000000000E+00 0. -1.
         11    1    1    2    0    0 -0.73813015987E+01 -0.89310638501E+01  0.19195913643E+01  0.11744460217E+02  0.00000000000E+00 0.  1.
</event>
<event>
 7    1  0.2810263E-009  0.9113679E+02  0.7561462E-02  0.1300122E+00
         -1   -1    0    0    0  501 -0.00000000000E+00  0.00000000000E+00  0.35331305182E+03  0.35331305182E+03  0.00000000000E+00 0.  1.
          1   -1    0    0  501    0  0.00000000000E+00 -0.00000000000E+00 -0.53671349707E+02  0.53671349707E+02  0.00000000000E+00 0. -1.
         25    2    1    2    0    0  0.20518434429E+02 -0.67299041276E+02  0.23374284752E+03  0.27428850239E+03  0.12509315196E+03 0.  0.
          5    1    3    3  502    0  0.40838283569E+02 -0.21654627193E+02  0.21626888887E+03  0.22119311241E+03  0.41800000000E+01 0. -1.
         -5    1    3    3    0  502 -0.20319849140E+02 -0.45644414083E+02  0.17473958651E+02  0.53095389979E+02  0.41800000000E+01 0. -1.
        -11    1    1    2    0    0 -0.38796980896E+01  0.68898440735E+02  0.83565058650E+02  0.10837511809E+03  0.00000000000E+00 0.  1.
         11    1    1    2    0    0 -0.16638736339E+02 -0.15993994582E+01 -0.17666204054E+02  0.24320781058E+02  0.00000000000E+00 0. -1.
</event>
<event>
 7    1  0.2810263E-009  0.1919505E+03  0.7561462E-02  0.1156714E+00
          1   -1    0    0  501    0  0.00000000000E+00  0.00000000000E+00  0.11028477658E+03  0.11028477658E+03  0.00000000000E+00 0. -1.
         -1   -1    0    0    0  501 -0.00000000000E+00 -0.00000000000E+00 -0.38419078763E+03  0.38419078763E+03  0.00000000000E+00 0.  1.
         25    2    1    2    0    0 -0.39488758246E+02  0.15896099013E+03 -0.72181579855E+02  0.21836279137E+03  0.12507665559E+03 0.  0.
          5    1    3    3  502    0 -0.73896671465E+02  0.78914391846E+02 -0.50821690842E+01  0.10831204982E+03  0.41800000000E+01 0.  1.
         -5    1    3    3    0  502  0.34407913219E+02  0.80046598284E+02 -0.67099410771E+02  0.11005074155E+03  0.41800000000E+01 0.  1.
        -11    1    1    2    0    0  0.70375307855E+02 -0.10926010701E+03 -0.14217635251E+03  0.19262546600E+03  0.00000000000E+00 0.  1.
         11    1    1    2    0    0 -0.30886549609E+02 -0.49700883115E+02 -0.59548078678E+02  0.83487306840E+02  0.00000000000E+00 0. -1.
</event>
<event>
 7    1  0.2810263E-009  0.8257568E+02  0.7561462E-02  0.1321897E+00
          1   -1    0    0  501    0  0.00000000000E+00  0.00000000000E+00  0.11522393160E+03  0.11522393160E+03  0.00000000000E+00 0. -1.
         -1   -1    0    0    0  501 -0.00000000000E+00 -0.00000000000E+00 -0.15996243364E+03  0.15996243364E+03  0.00000000000E+00 0.  1.
         25    2    1    2    0    0 -0.20445104085E+01  0.11985585985E+02 -0.10674765651E+03  0.16489559391E+03  0.12509060886E+03 0.  0.
          5    1    3    3  502    0  0.47941339920E+02  0.23829111638E+01 -0.18403080813E+01  0.48217315072E+02  0.41800000000E+01 0.  1.
         -5    1    3    3    0  502 -0.49985850328E+02  0.96026748209E+01 -0.10490734843E+03  0.11667827884E+03  0.41800000000E+01 0.  1.
        -11    1    1    2    0    0 -0.31295318409E+02 -0.81433999578E+01 -0.74182223354E+01  0.33177431182E+02  0.00000000000E+00 0.  1.
         11    1    1    2    0    0  0.33339828818E+02 -0.38421860269E+01  0.69427376811E+02  0.77113340155E+02  0.00000000000E+00 0. -1.
</event>
<event>
 7    1  0.2810263E-009  0.9463648E+02  0.7561462E-02  0.1291997E+00
         -2   -1    0    0    0  501 -0.00000000000E+00  0.00000000000E+00  0.88639903410E+01  0.88639903410E+01  0.00000000000E+00 0.  1.
          2   -1    0    0  501    0  0.00000000000E+00 -0.00000000000E+00 -0.30106416147E+04  0.30106416147E+04  0.00000000000E+00 0. -1.
         25    2    1    2    0    0  0.17880344851E+02  0.11191236322E+02 -0.26832288619E+04  0.26862260158E+04  0.12509249522E+03 0.  0.
          5    1    3    3  502    0 -0.32611392840E+02  0.31369353117E+02 -0.44120893042E+03  0.44354293134E+03  0.41800000000E+01 0.  1.
         -5    1    3    3    0  502  0.50491737692E+02 -0.20178116796E+02 -0.22420199314E+04  0.22426830845E+04  0.41800000000E+01 0.  1.
        -11    1    1    2    0    0  0.16120714575E+02 -0.41014303490E+02 -0.22617484719E+03  0.23042810599E+03  0.00000000000E+00 0. -1.
         11    1    1    2    0    0 -0.34001059426E+02  0.29823067169E+02 -0.92373915357E+02  0.10285148329E+03  0.00000000000E+00 0.  1.
</event>
<event>
 7    1  0.2810263E-009  0.1312665E+03  0.7561462E-02  0.1225589E+00
          1   -1    0    0  501    0  0.00000000000E+00  0.00000000000E+00  0.22200069463E+03  0.22200069463E+03  0.00000000000E+00 0. -1.
         -1   -1    0    0    0  501 -0.00000000000E+00 -0.00000000000E+00 -0.12031906531E+03  0.12031906531E+03  0.00000000000E+00 0.  1.
         25    2    1    2    0    0 -0.65013168041E+02 -0.60191160963E+02  0.14602603685E+03  0.21170854073E+03  0.12508882804E+03 0.  0.
          5    1    3    3  502    0 -0.43376048132E+01 -0.86478841276E+02  0.75726729129E+02  0.11510610196E+03  0.41800000000E+01 0. -1.
         -5    1    3    3    0  502 -0.60675563227E+02  0.26287680314E+02  0.70299307723E+02  0.96602438766E+02  0.41800000000E+01 0. -1.
        -11    1    1    2    0    0  0.16342874458E+02 -0.13552000853E+02  0.13356587950E+02  0.25082757311E+02  0.00000000000E+00 0. -1.
         11    1    1    2    0    0  0.48670293582E+02  0.73743161815E+02 -0.57700995479E+02  0.10552846190E+03  0.00000000000E+00 0.  1.
</event>
<event>
 7    1  0.2810263E-009  0.1351219E+03  0.7561462E-02  0.1220048E+00
         -1   -1    0    0    0  501 -0.00000000000E+00  0.00000000000E+00  0.47424073223E+02  0.47424073223E+02  0.00000000000E+00 0.  1.
          1   -1    0    0  501    0  0.00000000000E+00 -0.00000000000E+00 -0.86546824676E+03  0.86546824676E+03  0.00000000000E+00 0. -1.
         25    2    1    2    0    0  0.11712807311E+03  0.55084395054E+02 -0.67837513016E+03  0.70184985790E+03  0.12508848758E+03 0.  0.
          5    1    3    3  502    0  0.29897131259E+02 -0.84983062904E+01 -0.26422799162E+02  0.41008491595E+02  0.41800000000E+01 0. -1.
         -5    1    3    3    0  502  0.87230941847E+02  0.63582701344E+02 -0.65195233100E+03  0.66084136631E+03  0.41800000000E+01 0. -1.
        -11    1    1    2    0    0 -0.95311568120E+02 -0.52699463881E+02 -0.52036249288E+02  0.12070335435E+03  0.00000000000E+00 0. -1.
         11    1    1    2    0    0 -0.21816504987E+02 -0.23849311724E+01 -0.87632794084E+02  0.90339107730E+02  0.00000000000E+00 0.  1.
</event>
<event>
 7    1  0.2810263E-009  0.1275656E+03  0.7561462E-02  0.1231113E+00
         -2   -1    0    0    0  501 -0.00000000000E+00  0.00000000000E+00  0.17837474274E+03  0.17837474274E+03  0.00000000000E+00 0.  1.
          2   -1    0    0  501    0  0.00000000000E+00 -0.00000000000E+00 -0.17482695597E+03  0.17482695597E+03  0.00000000000E+00 0. -1.
         25    2    1    2    0    0 -0.15622398226E+02 -0.12312999450E+03 -0.61377857120E+02  0.18660116974E+03  0.12509076838E+03 0.  0.
          5    1    3    3  502    0 -0.20302657911E+01 -0.14097240890E+02  0.36493469061E+02  0.39396698643E+02  0.41800000000E+01 0. -1.
         -5    1    3    3    0  502 -0.13592132435E+02 -0.10903275361E+03 -0.97871326181E+02  0.14720447110E+03  0.41800000000E+01 0. -1.
        -11    1    1    2    0    0  0.26701985660E+02  0.53154205735E+02  0.74253372924E+02  0.95141626095E+02  0.00000000000E+00 0.  1.
         11    1    1    2    0    0 -0.11079587434E+02  0.69975788765E+02 -0.93277290309E+01  0.71458902874E+02  0.00000000000E+00 0. -1.
</event>
<event>
 7    1  0.2810263E-009  0.6433249E+02  0.7561462E-02  0.1380500E+00
          1   -1    0    0  501    0  0.00000000000E+00  0.00000000000E+00  0.96741228527E+02  0.96741228527E+02  0.00000000000E+00 0. -1.
         -1   -1    0    0    0  501 -0.00000000000E+00 -0.00000000000E+00 -0.15357712989E+03  0.15357712989E+03  0.00000000000E+00 0.  1.
         25    2    1    2    0    0  0.26691168382E+02 -0.26184906298E+02 -0.74534115900E+02  0.15034286538E+03  0.12509826118E+03 0.  0.
          5    1    3    3  502    0  0.24852645212E+02 -0.96870767290E+01  0.32327263679E+02  0.42119090761E+02  0.41800000000E+01 0.  1.
         -5    1    3    3    0  502  0.18385231704E+01 -0.16497829569E+02 -0.10686137958E+03  0.10822377462E+03  0.41800000000E+01 0.  1.
        -11    1    1    2    0    0 -0.64984569256E+01  0.51644804890E+02  0.35421491877E+02  0.62961082435E+02  0.00000000000E+00 0. -1.
         11    1    1    2    0    0 -0.20192711457E+02 -0.25459898592E+02 -0.17723277341E+02  0.37014410599E+02  0.00000000000E+00 0.  1.
</event>
<event>
 7    1  0.2810263E-009  0.2079142E+03  0.7561462E-02  0.1143228E+00
          2   -1    0    0  501    0  0.00000000000E+00  0.00000000000E+00  0.40529236143E+03  0.40529236143E+03  0.00000000000E+00 0.  1.
         -2   -1    0    0    0  501 -0.00000000000E+00 -0.00000000000E+00 -0.13764753477E+03  0.13764753477E+03  0.00000000000E+00 0. -1.
         25    2    1    2    0    0  0.45323293556E+02 -0.18684060158E+03  0.30406662881E+02  0.23137783718E+03  0.12509007575E+03 0.  0.
          5    1    3    3  502    0  0.38434947182E+02 -0.14254793387E+02  0.41196815788E+02  0.58267437995E+02  0.41800000000E+01 0.  1.
         -5    1    3    3    0  502  0.68883463737E+01 -0.17258580820E+03 -0.10790152907E+02  0.17311039919E+03  0.41800000000E+01 0.  1.
        -11    1    1    2    0    0 -0.49137562781E+02  0.73311561190E+02  0.10893595897E+03  0.14020031469E+03  0.00000000000E+00 0. -1.
         11    1    1    2    0    0  0.38142692250E+01  0.11352904039E+03  0.12830220480E+03  0.17136174433E+03  0.00000000000E+00 0.  1.
</event>
<event>
 7    1  0.2810263E-009  0.1032159E+03  0.7561462E-02  0.1273675E+00
         -1   -1    0    0    0  501 -0.00000000000E+00  0.00000000000E+00  0.25820820657E+03  0.25820820657E+03  0.00000000000E+00 0.  1.
          1   -1    0    0  501    0  0.00000000000E+00 -0.00000000000E+00 -0.70673307145E+02  0.70673307145E+02  0.00000000000E+00 0. -1.
         25    2    1    2    0    0 -0.38690576741E+02  0.23576856270E+02  0.22756463709E+02  0.13497583119E+03  0.12509112473E+03 0.  0.
          5    1    3    3  502    0  0.22551919513E+02  0.54623774492E+02  0.28891431957E+02  0.65913071951E+02  0.41800000000E+01 0. -1.
         -5    1    3    3    0  502 -0.61242496253E+02 -0.31046918222E+02 -0.61349682481E+01  0.69062759240E+02  0.41800000000E+01 0. -1.
        -11    1    1    2    0    0  0.27111393711E+02 -0.45866719729E+02  0.15960112560E+03  0.16825962956E+03  0.00000000000E+00 0.  1.
         11    1    1    2    0    0  0.11579183030E+02  0.22289863459E+02  0.51773101190E+01  0.25646052966E+02  0.00000000000E+00 0. -1.
</event>
<event>
 7    1  0.3119108E-009  0.7451631E+02  0.7561462E-02  0.1345375E+00
         -1   -1    0    0    0  501 -0.00000000000E+00  0.00000000000E+00  0.37967436100E+02  0.37967436100E+02  0.00000000000E+00 0.  1.
          1   -1    0    0  501    0  0.00000000000E+00 -0.00000000000E+00 -0.34445937355E+03  0.34445937355E+03  0.00000000000E+00 0. -1.
         25    2    1    2    0    0  0.18048565508E+02  0.29599058546E+02 -0.15658865409E+03  0.20339493200E+03  0.12509051438E+03 0.  0.
          5    1    3    3  502    0 -0.13723151715E+02  0.33322253870E+02 -0.16589725885E+03  0.16981775640E+03  0.41800000000E+01 0. -1.
         -5    1    3    3    0  502  0.31771717224E+02 -0.37231953243E+01  0.93086047544E+01  0.33577175599E+02  0.41800000000E+01 0. -1.
        -11    1    1    2    0    0  0.15152125434E+02 -0.42310343392E+02 -0.30162693465E+02  0.54125226467E+02  0.00000000000E+00 0.  1.
         11    1    1    2    0    0 -0.33200690942E+02  0.12711284846E+02 -0.11974058989E+03  0.12490665118E+03  0.00000000000E+00 0. -1.
</event>
<event>
 7    1  0.2810263E-009  0.9445223E+02  0.7561462E-02  0.1292415E+00
         -1   -1    0    0    0  501 -0.00000000000E+00  0.00000000000E+00  0.80679459772E+03  0.80679459772E+03  0.00000000000E+00 0.  1.
          1   -1    0    0  501    0  0.00000000000E+00 -0.00000000000E+00 -0.19218630562E+02  0.19218630562E+02  0.00000000000E+00 0. -1.
         25    2    1    2    0    0  0.11458936248E+02 -0.40313650993E+02  0.60076195317E+03  0.61507581445E+03  0.12508731141E+03 0.  0.
          5    1    3    3  502    0 -0.18452704088E+02 -0.58708048131E+02  0.14032803495E+03  0.15328589953E+03  0.41800000000E+01 0.  1.
         -5    1    3    3    0  502  0.29911640337E+02  0.18394397137E+02  0.46043391822E+03  0.46178991492E+03  0.41800000000E+01 0.  1.
        -11    1    1    2    0    0  0.35486351941E+02  0.19707210438E+02  0.47455528647E+02  0.62447438030E+02  0.00000000000E+00 0.  1.
         11    1    1    2    0    0 -0.46945288189E+02  0.20606440555E+02  0.13935848535E+03  0.14848997580E+03  0.00000000000E+00 0. -1.
</event>
<event>
 7    1  0.3679601E-009  0.1479660E+03  0.7561462E-02  0.1202995E+00
          2   -1    0    0  501    0  0.00000000000E+00  0.00000000000E+00  0.44056223320E+03  0.44056223320E+03  0.00000000000E+00 0.  1.
         -2   -1    0    0    0  501 -0.00000000000E+00 -0.00000000000E+00 -0.68126560492E+02  0.68126560492E+02  0.00000000000E+00 0. -1.
         25    2    1    2    0    0  0.99611889289E+02 -0.61319925487E+02  0.29466777602E+03  0.34082047038E+03  0.12508730175E+03 0.  0.
          5    1    3    3  502    0  0.46288538391E+02 -0.82263229983E+02  0.98813607969E+02  0.13671674847E+03  0.41800000000E+01 0.  1.
         -5    1    3    3    0  502  0.53323350898E+02  0.20943304496E+02  0.19585416805E+03  0.20410372191E+03  0.41800000000E+01 0.  1.
        -11    1    1    2    0    0 -0.72453694739E+02 -0.47127738442E+01  0.60254576999E+02  0.94352329955E+02  0.00000000000E+00 0.  1.
         11    1    1    2    0    0 -0.27158194550E+02  0.66032699331E+02  0.17513319691E+02  0.73515993354E+02  0.00000000000E+00 0. -1.
</event>
<event>
 7    1  0.2810263E-009  0.8606452E+02  0.7561462E-02  0.1312672E+00
         -2   -1    0    0    0  501 -0.00000000000E+00  0.00000000000E+00  0.22451463611E+02  0.22451463611E+02  0.00000000000E+00 0.  1.
          2   -1    0    0  501    0  0.00000000000E+00 -0.00000000000E+00 -0.84062636286E+03  0.84062636286E+03  0.00000000000E+00 0. -1.
         25    2    1    2    0    0  0.67103511473E+01  0.46737495956E+01 -0.71232689799E+03  0.72327349989E+03  0.12509225912E+03 0.  0.
          5    1    3    3  502    0 -0.42796675719E+02  0.71521430018E+01 -0.58427201805E+03  0.58589587136E+03  0.41800000000E+01 0.  1.
         -5    1    3    3    0  502  0.49507026866E+02 -0.24783934063E+01 -0.12805487994E+03  0.13737762853E+03  0.41800000000E+01 0.  1.
        -11    1    1    2    0    0  0.24772282383E+02  0.25239621410E+02 -0.13682497225E+02  0.37919852237E+02  0.00000000000E+00 0. -1.
         11    1    1    2    0    0 -0.31482633531E+02 -0.29913371005E+02 -0.92165504039E+02  0.10188447435E+03  0.00000000000E+00 0.  1.
</event>
<event>
 7    1  0.2810263E-009  0.8582154E+02  0.7561462E-02  0.1313298E+00
          4   -1    0    0  501    0  0.00000000000E+00  0.00000000000E+00  0.17998007224E+03  0.17998007224E+03  0.00000000000E+00 0. -1.
         -4   -1    0    0    0  501 -0.00000000000E+00 -0.00000000000E+00 -0.67692842103E+02  0.67692842103E+02  0.00000000000E+00 0.  1.
         25    2    1    2    0    0  0.26895199775E+02 -0.66159272798E+01  0.17970297719E+02  0.12936893093E+03  0.12508503678E+03 0.  0.
          5    1    3    3  502    0 -0.12766149958E+02 -0.49106947674E+02 -0.25237461921E+02  0.56823135946E+02  0.41800000000E+01 0.  1.
         -5    1    3    3    0  502  0.39661349734E+02  0.42491020394E+02  0.43207759640E+02  0.72545794984E+02  0.41800000000E+01 0.  1.
        -11    1    1    2    0    0  0.32400252006E-01  0.28043912308E+02  0.14910667537E+02  0.31761455787E+02  0.00000000000E+00 0.  1.
         11    1    1    2    0    0 -0.26927600027E+02 -0.21427985028E+02  0.79406264880E+02  0.86542527625E+02  0.00000000000E+00 0. -1.
</event>
<event>
 7    1  0.2810263E-009  0.1613098E+03  0.7561462E-02  0.1187226E+00
         -2   -1    0    0    0  501 -0.00000000000E+00  0.00000000000E+00  0.12033013923E+03  0.12033013923E+03  0.00000000000E+00 0.  1.
          2   -1    0    0  501    0  0.00000000000E+00 -0.00000000000E+00 -0.25566471826E+03  0.25566471826E+03  0.00000000000E+00 0. -1.
         25    2    1    2    0    0  0.84042185190E+02  0.90610519226E+02 -0.71552914946E+01  0.17599221132E+03  0.12509478471E+03 0.  0.
          5    1    3    3  502    0  0.10527260546E+03  0.28026251456E+02 -0.11535852606E+02  0.10962819220E+03  0.41800000000E+01 0.  1.
         -5    1    3    3    0  502 -0.21230420268E+02  0.62584267770E+02  0.43805611115E+01  0.66364019113E+02  0.41800000000E+01 0.  1.
        -11    1    1    2    0    0 -0.55302756031E+02 -0.32319047820E+01 -0.76637533502E+02  0.94562950326E+02  0.00000000000E+00 0. -1.
         11    1    1    2    0    0 -0.28739429159E+02 -0.87378614444E+02 -0.51541754039E+02  0.10543969585E+03  0.00000000000E+00 0.  1.
</event>
<event>
 7    1  0.2810263E-009  0.8114090E+02  0.7561462E-02  0.1325845E+00
         -2   -1    0    0    0  501 -0.00000000000E+00  0.00000000000E+00  0.22915899663E+02  0.22915899663E+02  0.00000000000E+00 0.  1.
          2   -1    0    0  501    0  0.00000000000E+00 -0.00000000000E+00 -0.48099926967E+03  0.48099926967E+03  0.00000000000E+00 0. -1.
         25    2    1    2    0    0  0.41802134484E+02  0.16828875338E+02 -0.28364916079E+03  0.31326303993E+03  0.12508499622E+03 0.  0.
          5    1    3    3  502    0  0.20467621946E+01 -0.35382415481E+02 -0.18727655033E+02  0.40302630483E+02  0.41800000000E+01 0. -1.
         -5    1    3    3    0  502  0.39755372289E+02  0.52211290819E+02 -0.26492150576E+03  0.27296040945E+03  0.41800000000E+01 0. -1.
        -11    1    1    2    0    0 -0.35407262850E+02  0.70628779373E+01 -0.15513411332E+03  0.15928010429E+03  0.00000000000E+00 0. -1.
         11    1    1    2    0    0 -0.63948716335E+01 -0.23891753275E+02 -0.19300095893E+02  0.31372025106E+02  0.00000000000E+00 0.  1.
</event>
<event>
 7    1  0.2810263E-009  0.1009567E+03  0.7561462E-02  0.1278297E+00
          1   -1    0    0  501    0  0.00000000000E+00  0.00000000000E+00  0.71485059355E+02  0.71485059355E+02  0.00000000000E+00 0. -1.
         -1   -1    0    0    0  501 -0.00000000000E+00 -0.00000000000E+00 -0.21264083169E+03  0.21264083169E+03  0.00000000000E+00 0.  1.
         25    2    1    2    0    0 -0.37103076154E+02  0.18464837940E+02 -0.29286096721E+02  0.13498829040E+03  0.12508626857E+03 0.  0.
          5    1    3    3  502    0 -0.32360467535E+02  0.58272995006E+02 -0.55558967254E+02  0.86874697400E+02  0.41800000000E+01 0. -1.
         -5    1    3    3    0  502 -0.47426086194E+01 -0.39808157066E+02  0.26272870532E+02  0.48113593002E+02  0.41800000000E+01 0. -1.
        -11    1    1    2    0    0  0.39155702633E+02  0.28109358421E+02 -0.77311010449E+02  0.91105968060E+02  0.00000000000E+00 0.  1.
         11    1    1    2    0    0 -0.20526264795E+01 -0.46574196361E+02 -0.34558665162E+02  0.58031632580E+02  0.00000000000E+00 0. -1.
</event>
<event>
 7    1  0.2810263E-009  0.1063243E+03  0.7561462E-02  0.1267532E+00
         -1   -1    0    0    0  501 -0.00000000000E+00  0.00000000000E+00  0.30801761608E+02  0.30801761608E+02  0.00000000000E+00 0.  1.
          1   -1    0    0  501    0  0.00000000000E+00 -0.00000000000E+00 -0.46250565083E+03  0.46250565083E+03  0.00000000000E+00 0. -1.
         25    2    1    2    0    0 -0.29906433715E+01 -0.38145676113E+02 -0.29574226799E+03  0.32338239421E+03  0.12509455324E+03 0.  0.
          5    1    3    3  502    0  0.36008914011E+02  0.30679543969E+02 -0.15213547716E+03  0.15937550664E+03  0.41800000000E+01 0.  1.
         -5    1    3    3    0  502 -0.38999557382E+02 -0.68825220082E+02 -0.14360679083E+03  0.16400688756E+03  0.41800000000E+01 0.  1.
        -11    1    1    2    0    0  0.32315885751E+02  0.45404791968E+02 -0.38107570464E+02  0.67513691442E+02  0.00000000000E+00 0.  1.
         11    1    1    2    0    0 -0.29325242380E+02 -0.72591158549E+01 -0.97854050766E+02  0.10241132679E+03  0.00000000000E+00 0. -1.
</event>
<event>
 7    1  0.3048680E-009  0.1236206E+03  0.7561462E-02  0.1237241E+00
          1   -1    0    0  501    0  0.00000000000E+00  0.00000000000E+00  0.56709403558E+03  0.56709403558E+03  0.00000000000E+00 0. -1.
         -1   -1    0    0    0  501 -0.00000000000E+00 -0.00000000000E+00 -0.35353053565E+02  0.35353053565E+02  0.00000000000E+00 0.  1.
         25    2    1    2    0    0 -0.82209407284E+02  0.57908061000E+01  0.20876461610E+03  0.25694762918E+03  0.12508996413E+03 0.  0.
          5    1    3    3  502    0 -0.28692144773E+02  0.56363685479E+02  0.46196580644E+02  0.78432778069E+02  0.41800000000E+01 0. -1.
         -5    1    3    3    0  502 -0.53517262511E+02 -0.50572879379E+02  0.16256803545E+03  0.17851485111E+03  0.41800000000E+01 0. -1.
        -11    1    1    2    0    0  0.13775628994E+02 -0.33541162327E+02  0.44521725542E+02  0.57419174233E+02  0.00000000000E+00 0.  1.
         11    1    1    2    0    0  0.68433778290E+02  0.27750356227E+02  0.27845464038E+03  0.28808028573E+03  0.00000000000E+00 0. -1.
</event>
<event>
 7    1  0.2810263E-009  0.1424354E+03  0.7561462E-02  0.1210089E+00
         -3   -1    0    0    0  501 -0.00000000000E+00  0.00000000000E+00  0.67396855712E+02  0.67396855712E+02  0.00000000000E+00 0.  1.
          3   -1    0    0  501    0  0.00000000000E+00 -0.00000000000E+00 -0.35673107639E+03  0.35673107639E+03  0.00000000000E+00 0. -1.
         25    2    1    2    0    0 -0.97283285560E+02 -0.36723478337E+02 -0.10378740590E+03  0.19295191324E+03  0.12508382665E+03 0.  0.
          5    1    3    3  502    0 -0.24816418559E+02 -0.68814275218E+02 -0.83391516447E+02  0.11100845247E+03  0.41800000000E+01 0. -1.
         -5    1    3    3    0  502 -0.72466867000E+02  0.32090796880E+02 -0.20395889454E+02  0.81943460775E+02  0.41800000000E+01 0. -1.
        -11    1    1    2    0    0  0.20836809285E+02  0.50433477643E+02 -0.45559705872E+02  0.71087235756E+02  0.00000000000E+00 0.  1.
         11    1    1    2    0    0  0.76446476275E+02 -0.13709999306E+02 -0.13998710890E+03  0.16008878310E+03  0.00000000000E+00 0. -1.
</event>
<event>
 7    1  0.2810263E-009  0.4389933E+02  0.7561462E-02  0.1481332E+00
         -1   -1    0    0    0  501 -0.00000000000E+00  0.00000000000E+00  0.22440604313E+02  0.22440604313E+02  0.00000000000E+00 0.  1.
          1   -1    0    0  501    0  0.00000000000E+00 -0.00000000000E+00 -0.11971451080E+04  0.11971451080E+04  0.00000000000E+00 0. -1.
         25    2    1    2    0    0 -0.11385054561E+02  0.70204422932E+01 -0.10491287503E+04  0.10566444821E+04  0.12509005072E+03 0.  0.
          5    1    3    3  502    0 -0.56664045264E+01  0.18584892958E+02 -0.22880778840E+02  0.30306910546E+02  0.41800000000E+01 0. -1.
         -5    1    3    3    0  502 -0.57186500341E+01 -0.11564450665E+02 -0.10262479715E+04  0.10263375716E+04  0.41800000000E+01 0. -1.
        -11    1    1    2    0    0 -0.82569214054E+00  0.22448963742E+02 -0.12892443830E+03  0.13086691152E+03  0.00000000000E+00 0. -1.
         11    1    1    2    0    0  0.12210746701E+02 -0.29469406035E+02  0.33486849298E+01  0.32074318665E+02  0.00000000000E+00 0.  1.
</event>
<event>
 7    1  0.2810263E-009  0.8963054E+02  0.7561462E-02  0.1303749E+00
         -1   -1    0    0    0  501 -0.00000000000E+00  0.00000000000E+00  0.78295799510E+03  0.78295799510E+03  0.00000000000E+00 0.  1.
          1   -1    0    0  501    0  0.00000000000E+00 -0.00000000000E+00 -0.16759667605E+02  0.16759667605E+02  0.00000000000E+00 0. -1.
         25    2    1    2    0    0 -0.27210789663E+02  0.24786440782E+02  0.49167752814E+03  0.50867486887E+03  0.12509410785E+03 0.  0.
          5    1    3    3  502    0  0.58767740035E+01  0.44452677193E+02  0.44820114343E+03  0.45045789410E+03  0.41800000000E+01 0. -1.
         -5    1    3    3    0  502 -0.33087563666E+02 -0.19666236411E+02  0.43476384707E+02  0.58216974769E+02  0.41800000000E+01 0. -1.
        -11    1    1    2    0    0  0.58626881590E+02 -0.25857002159E+02  0.20417156693E+03  0.21399001039E+03  0.00000000000E+00 0.  1.
         11    1    1    2    0    0 -0.31416091927E+02  0.10705613772E+01  0.70349232430E+02  0.77052783448E+02  0.00000000000E+00 0. -1.
</event>
<event>
 7    1  0.2810263E-009  0.1053972E+03  0.7561462E-02  0.1269339E+00
          1   -1    0    0  501    0  0.00000000000E+00  0.00000000000E+00  0.28263928823E+03  0.28263928823E+03  0.00000000000E+00 0. -1.
         -1   -1    0    0    0  501 -0.00000000000E+00 -0.00000000000E+00 -0.59234166531E+02  0.59234166531E+02  0.00000000000E+00 0.  1.
         25    2    1    2    0    0  0.48690953326E+02  0.44005823172E+02  0.15894899377E+03  0.21264900251E+03  0.12508994459E+03 0.  0.
          5    1    3    3  502    0  0.86895243783E+01 -0.42870050001E+02  0.35879573153E+02  0.56728874400E+02  0.41800000000E+01 0.  1.
         -5    1    3    3    0  502  0.40001428948E+02  0.86875873173E+02  0.12306942062E+03  0.15592012811E+03  0.41800000000E+01 0.  1.
        -11    1    1    2    0    0 -0.15787828634E+02 -0.32728017846E+02  0.82421906253E+02  0.90076352698E+02  0.00000000000E+00 0. -1.
         11    1    1    2    0    0 -0.32903124693E+02 -0.11277805326E+02 -0.17965778330E+02  0.39148099551E+02  0.00000000000E+00 0.  1.
</event>
<event>
 7    1  0.2810263E-009  0.1192497E+03  0.7561462E-02  0.1244340E+00
         -1   -1    0    0    0  501 -0.00000000000E+00  0.00000000000E+00  0.38264354447E+03  0.38264354447E+03  0.00000000000E+00 0.  1.
          1   -1    0    0  501    0  0.00000000000E+00 -0.00000000000E+00 -0.42102728316E+02  0.42102728316E+02  0.00000000000E+00 0. -1.
         25    2    1    2    0    0 -0.36102379957E+02  0.53734838037E+02  0.21097504465E+03  0.25367213541E+03  0.12509303802E+03 0.  0.
          5    1    3    3  502    0 -0.73643293564E+02  0.13024213402E+02  0.16632779632E+03  0.18241538600E+03  0.41800000000E+01 0. -1.
         -5    1    3    3    0  502  0.37540913607E+02  0.40710624635E+02  0.44647248334E+02  0.71256749409E+02  0.41800000000E+01 0. -1.
        -11    1    1    2    0    0 -0.27998589479E+02 -0.26030701014E+02  0.26258659961E+02  0.46379258629E+02  0.00000000000E+00 0. -1.
         11    1    1    2    0    0  0.64100969435E+02 -0.27704137023E+02  0.10330711154E+03  0.12469487875E+03  0.00000000000E+00 0.  1.
</event>
<event>
 7    1  0.3219466E-009  0.1173678E+03  0.7561462E-02  0.1247504E+00
         -1   -1    0    0    0  501 -0.00000000000E+00  0.00000000000E+00  0.20275606520E+03  0.20275606520E+03  0.00000000000E+00 0.  1.
          1   -1    0    0  501    0  0.00000000000E+00 -0.00000000000E+00 -0.99210203418E+02  0.99210203418E+02  0.00000000000E+00 0. -1.
         25    2    1    2    0    0  0.25811839089E+02 -0.69561120437E+02  0.11288111125E+03  0.18410518271E+03  0.12509025745E+03 0.  0.
          5    1    3    3  502    0  0.30079927525E+02 -0.10434891094E+03  0.95879073637E+02  0.14492676225E+03  0.41800000000E+01 0.  1.
         -5    1    3    3    0  502 -0.42680884364E+01  0.34787790501E+02  0.17002037614E+02  0.39178420461E+02  0.41800000000E+01 0.  1.
        -11    1    1    2    0    0 -0.41767355131E+02  0.44325880945E+02  0.30471885817E+02  0.68101626276E+02  0.00000000000E+00 0.  1.
         11    1    1    2    0    0  0.15955516042E+02  0.25235239492E+02 -0.39807135281E+02  0.49759459640E+02  0.00000000000E+00 0. -1.
</event>
<event>
 7    1  0.2810263E-009  0.1480410E+03  0.7561462E-02  0.1202901E+00
          3   -1    0    0  501    0  0.00000000000E+00  0.00000000000E+00  0.69697082211E+02  0.69697082211E+02  0.00000000000E+00 0.  1.
         -3   -1    0    0    0  501 -0.00000000000E+00 -0.00000000000E+00 -0.45035457465E+03  0.45035457465E+03  0.00000000000E+00 0. -1.
         25    2    1    2    0    0 -0.11440069216E+03  0.63160237339E+02 -0.12907241010E+03  0.22222668198E+03  0.12509307409E+03 0.  0.
          5    1    3    3  502    0 -0.97163954451E+02  0.24712252442E+02 -0.16161314007E+02  0.10163754196E+03  0.41800000000E+01 0. -1.
         -5    1    3    3    0  502 -0.17236737713E+02  0.38447984897E+02 -0.11291109609E+03  0.12058914002E+03  0.41800000000E+01 0. -1.
        -11    1    1    2    0    0  0.10274190763E+03 -0.14983938015E+02 -0.20503970256E+03  0.22982971437E+03  0.00000000000E+00 0. -1.
         11    1    1    2    0    0  0.11658784534E+02 -0.48176299324E+02 -0.46545379781E+02  0.67995260514E+02  0.00000000000E+00 0.  1.
</event>
<event>
 7    1  0.2810263E-009  0.1725429E+03  0.7561462E-02  0.1175222E+00
         -1   -1    0    0    0  501 -0.00000000000E+00  0.00000000000E+00  0.25722550614E+03  0.25722550614E+03  0.00000000000E+00 0.  1.
          1   -1    0    0  501    0  0.00000000000E+00 -0.00000000000E+00 -0.23666802552E+03  0.23666802552E+03  0.00000000000E+00 0. -1.
         25    2    1    2    0    0  0.51596728448E+02 -0.12733164572E+03 -0.16283063347E+03  0.24705615537E+03  0.12508940132E+03 0.  0.
          5    1    3    3  502    0  0.72167485235E+02 -0.18062427642E+02 -0.63309692416E+02  0.97775184844E+02  0.41800000000E+01 0. -1.
         -5    1    3    3    0  502 -0.20570756787E+02 -0.10926921808E+03 -0.99520941051E+02  0.14928097053E+03  0.41800000000E+01 0. -1.
        -11    1    1    2    0    0  0.12550369751E+02  0.76334029319E+02  0.12194471593E+03  0.14441229019E+03  0.00000000000E+00 0.  1.
         11    1    1    2    0    0 -0.64147098199E+02  0.50997616399E+02  0.61443398149E+02  0.10242508610E+03  0.00000000000E+00 0. -1.
</event>
<event>
 7    1  0.2810263E-009  0.1059806E+03  0.7561462E-02  0.1268200E+00
          1   -1    0    0  501    0  0.00000000000E+00  0.00000000000E+00  0.53065552340E+03  0.53065552340E+03  0.00000000000E+00 0. -1.
         -1   -1    0    0    0  501 -0.00000000000E+00 -0.00000000000E+00 -0.49196853315E+02  0.49196853315E+02  0.00000000000E+00 0.  1.
         25    2    1    2    0    0  0.34499965897E+02  0.78603357411E+02  0.10785399251E+03  0.18614994517E+03  0.12510228991E+03 0.  0.
          5    1    3    3  502    0 -0.10805302933E+01  0.13068905795E+02  0.11056011363E+03  0.11141353136E+03  0.41800000000E+01 0. -1.
         -5    1    3    3    0  502  0.35580496190E+02  0.65534451616E+02 -0.27061211130E+01  0.74736413810E+02  0.41800000000E+01 0. -1.
        -11    1    1    2    0    0 -0.38239012151E+02  0.61015569242E+01  0.98894792999E+02  0.10620560781E+03  0.00000000000E+00 0.  1.
         11    1    1    2    0    0  0.37390462547E+01 -0.84704914335E+02  0.27470988458E+03  0.28749682374E+03  0.00000000000E+00 0. -1.
</event>
<event>
 7    1  0.2810263E-009  0.8664191E+02  0.7561462E-02  0.1311194E+00
          1   -1    0    0  501    0  0.00000000000E+00  0.00000000000E+00  0.79973980519E+02  0.79973980519E+02  0.00000000000E+00 0. -1.
         -1   -1    0    0    0  501 -0.00000000000E+00 -0.00000000000E+00 -0.18807345357E+03  0.18807345357E+03  0.00000000000E+00 0.  1.
         25    2    1    2    0    0  0.33048548670E+02 -0.22942137494E+01 -0.10809957594E+02  0.12985419406E+03  0.12509111297E+03 0.  0.
          5    1    3    3  502    0  0.61739154457E+02 -0.38232089921E+02 -0.31486613521E+02  0.79260930627E+02  0.41800000000E+01 0.  1.
         -5    1    3    3    0  502 -0.28690605788E+02  0.35937876172E+02  0.20676655927E+02  0.50593263430E+02  0.41800000000E+01 0.  1.
        -11    1    1    2    0    0  0.91460024409E+01 -0.65614861271E+01  0.14512595785E+02  0.18366216194E+02  0.00000000000E+00 0. -1.
         11    1    1    2    0    0 -0.42194551111E+02  0.88556998765E+01 -0.11180211124E+03  0.11982702384E+03  0.00000000000E+00 0.  1.
</event>
<event>
 7    1  0.2810263E-009  0.1125359E+03  0.7561462E-02  0.1255945E+00
         -2   -1    0    0    0  501 -0.00000000000E+00  0.00000000000E+00  0.24413818320E+02  0.24413818320E+02  0.00000000000E+00 0.  1.
          2   -1    0    0  501    0  0.00000000000E+00 -0.00000000000E+00 -0.63625431592E+03  0.63625431592E+03  0.00000000000E+00 0. -1.
         25    2    1    2    0    0 -0.26258304999E+02 -0.38637871272E+02 -0.42417055167E+03  0.44469161725E+03  0.12509034285E+03 0.  0.
          5    1    3    3  502    0 -0.25143373992E+02  0.43780805429E+02 -0.14626052043E+03  0.15478553038E+03  0.41800000000E+01 0.  1.
         -5    1    3    3    0  502 -0.11149310065E+01 -0.82418676702E+02 -0.27791003124E+03  0.28990608687E+03  0.41800000000E+01 0.  1.
        -11    1    1    2    0    0  0.14927293476E+01 -0.24247612820E+02 -0.11162454397E+03  0.11423753230E+03  0.00000000000E+00 0. -1.
         11    1    1    2    0    0  0.24765575651E+02  0.62885484092E+02 -0.76045401959E+02  0.10173898469E+03  0.00000000000E+00 0.  1.
</event>
<event>
 7    1  0.2810263E-009  0.9388559E+02  0.7561462E-02  0.1293706E+00
         -1   -1    0    0    0  501 -0.00000000000E+00  0.00000000000E+00  0.10626902453E+03  0.10626902453E+03  0.00000000000E+00 0.  1.
          1   -1    0    0  501    0  0.00000000000E+00 -0.00000000000E+00 -0.12903062850E+03  0.12903062850E+03  0.00000000000E+00 0. -1.
         25    2    1    2    0    0  0.31863615563E+02 -0.29419430364E+02 -0.12473488760E+01  0.13240171322E+03  0.12509142618E+03 0.  0.
          5    1    3    3  502    0  0.60989474419E+01 -0.76463195193E+02 -0.11373845348E+02  0.77657286439E+02  0.41800000000E+01 0. -1.
         -5    1    3    3    0  502  0.25764668121E+02  0.47043764830E+02  0.10126496472E+02  0.54744426781E+02  0.41800000000E+01 0. -1.
        -11    1    1    2    0    0  0.85239431036E+01  0.64504494107E+01  0.30993570002E+02  0.32785168675E+02  0.00000000000E+00 0.  1.
         11    1    1    2    0    0 -0.40387558667E+02  0.22968980953E+02 -0.52507825088E+02  0.70112771137E+02  0.00000000000E+00 0. -1.
</event>
<event>
 7    1  0.4245381E-009  0.1944505E+03  0.7561462E-02  0.1154507E+00
         -1   -1    0    0    0  501 -0.00000000000E+00  0.00000000000E+00  0.62916178415E+02  0.62916178415E+02  0.00000000000E+00 0.  1.
          1   -1    0    0  501    0  0.00000000000E+00 -0.00000000000E+00 -0.10115202598E+04  0.10115202598E+04  0.00000000000E+00 0. -1.
         25    2    1    2    0    0  0.13650081751E+03  0.13010007016E+03 -0.75816510242E+03  0.79121449143E+03  0.12509015747E+03 0.  0.
          5    1    3    3  502    0  0.11009961389E+03  0.91894535533E+02 -0.70932960756E+03  0.72369364734E+03  0.41800000000E+01 0. -1.
         -5    1    3    3    0  502  0.26401203626E+02  0.38205534631E+02 -0.48835494853E+02  0.67520844092E+02  0.41800000000E+01 0. -1.
        -11    1    1    2    0    0 -0.91013351447E+02 -0.43263418146E+02 -0.14133484672E+03  0.17358194719E+03  0.00000000000E+00 0. -1.
         11    1    1    2    0    0 -0.45487466065E+02 -0.86836652018E+02 -0.49104132210E+02  0.10963999956E+03  0.00000000000E+00 0.  1.
</event>
<event>
 7    1  0.2810263E-009  0.1055125E+03  0.7561462E-02  0.1269113E+00
         -2   -1    0    0    0  501 -0.00000000000E+00  0.00000000000E+00  0.94618753781E+01  0.94618753781E+01  0.00000000000E+00 0.  1.
          2   -1    0    0  501    0  0.00000000000E+00 -0.00000000000E+00 -0.30326126725E+04  0.30326126725E+04  0.00000000000E+00 0. -1.
         25    2    1    2    0    0 -0.66404462004E+02 -0.21977972768E+02 -0.25949862134E+04  0.25989407792E+04  0.12508853870E+03 0.  0.
          5    1    3    3  502    0 -0.68792760713E+02  0.11086755844E+02 -0.24067425886E+04  0.24077547052E+04  0.41800000000E+01 0. -1.
         -5    1    3    3    0  502  0.23882987095E+01 -0.33064728612E+02 -0.18824362471E+03  0.19118607401E+03  0.41800000000E+01 0. -1.
        -11    1    1    2    0    0  0.52863487414E+01  0.42885889520E+02 -0.24806933623E+03  0.25180456823E+03  0.00000000000E+00 0. -1.
         11    1    1    2    0    0  0.61118113263E+02 -0.20907916752E+02 -0.18009524749E+03  0.19132920038E+03  0.00000000000E+00 0.  1.
</event>
<event>
 7    1  0.2810263E-009  0.9947631E+02  0.7561462E-02  0.1281401E+00
         -1   -1    0    0    0  501 -0.00000000000E+00  0.00000000000E+00  0.25745263441E+02  0.25745263441E+02  0.00000000000E+00 0.  1.
          1   -1    0    0  501    0  0.00000000000E+00 -0.00000000000E+00 -0.56676531354E+03  0.56676531354E+03  0.00000000000E+00 0. -1.
         25    2    1    2    0    0  0.18742181027E+02  0.38204644233E+02 -0.38415117613E+03  0.40623636475E+03  0.12507994936E+03 0.  0.
          5    1    3    3  502    0 -0.23738840228E+02 -0.18020023025E+02 -0.27239024965E+03  0.27404775910E+03  0.41800000000E+01 0. -1.
         -5    1    3    3    0  502  0.42481021255E+02  0.56224667259E+02 -0.11176092648E+03  0.13218860565E+03  0.41800000000E+01 0. -1.
        -11    1    1    2    0    0 -0.36684508441E+02  0.16843319576E+02 -0.46017085147E+02  0.61212929184E+02  0.00000000000E+00 0.  1.
         11    1    1    2    0    0  0.17942327413E+02 -0.55047963809E+02 -0.11085178882E+03  0.12506128305E+03  0.00000000000E+00 0. -1.
</event>
<event>
 7    1  0.2810263E-009  0.8594858E+02  0.7561462E-02  0.1312970E+00
         -1   -1    0    0    0  501 -0.00000000000E+00  0.00000000000E+00  0.33562932784E+02  0.33562932784E+02  0.00000000000E+00 0.  1.
          1   -1    0    0  501    0  0.00000000000E+00 -0.00000000000E+00 -0.46617047898E+03  0.46617047898E+03  0.00000000000E+00 0. -1.
         25    2    1    2    0    0 -0.15303908135E+02  0.38301227343E+02 -0.14912490394E+03  0.19896942893E+03  0.12509757412E+03 0.  0.
          5    1    3    3  502    0 -0.37536485284E+02  0.49383238629E+02 -0.16983653621E+02  0.64448497851E+02  0.41800000000E+01 0.  1.
         -5    1    3    3    0  502  0.22232577149E+02 -0.11082011285E+02 -0.13214125032E+03  0.13452093108E+03  0.41800000000E+01 0.  1.
        -11    1    1    2    0    0  0.45146256708E+02 -0.27132439325E+02 -0.24596358803E+03  0.25154013675E+03  0.00000000000E+00 0. -1.
         11    1    1    2    0    0 -0.29842348573E+02 -0.11168788018E+02 -0.37519054229E+02  0.49223846095E+02  0.00000000000E+00 0.  1.
</event>
<event>
 7    1  0.2810263E-009  0.1255588E+03  0.7561462E-02  0.1234198E+00
          1   -1    0    0  501    0  0.00000000000E+00  0.00000000000E+00  0.14613362726E+03  0.14613362726E+03  0.00000000000E+00 0. -1.
         -1   -1    0    0    0  501 -0.00000000000E+00 -0.00000000000E+00 -0.13338079153E+03  0.13338079153E+03  0.00000000000E+00 0.  1.
         25    2    1    2    0    0  0.68562908830E+02  0.18700132621E+02  0.58028315930E+02  0.15512625738E+03  0.12508518238E+03 0.  0.
          5    1    3    3  502    0 -0.88155510740E+01 -0.40296885919E+02  0.36819484099E+02  0.55449975337E+02  0.41800000000E+01 0.  1.
         -5    1    3    3    0  502  0.77378459904E+02  0.58997018540E+02  0.21208831830E+02  0.99676282041E+02  0.41800000000E+01 0.  1.
        -11    1    1    2    0    0  0.11517865410E+02 -0.29300929057E+02 -0.27212245045E+02  0.41613843221E+02  0.00000000000E+00 0.  1.
         11    1    1    2    0    0 -0.80080774241E+02  0.10600796436E+02 -0.18063235160E+02  0.82774318194E+02  0.00000000000E+00 0. -1.
</event>
<event>
 7    1  0.2810263E-009  0.8762410E+02  0.7561462E-02  0.1308709E+00
          1   -1    0    0  501    0  0.00000000000E+00  0.00000000000E+00  0.14397758476E+03  0.14397758476E+03  0.00000000000E+00 0. -1.
         -1   -1    0    0    0  501 -0.00000000000E+00 -0.00000000000E+00 -0.13533638340E+03  0.13533638340E+03  0.00000000000E+00 0.  1.
         25    2    1    2    0    0 -0.16049591188E+02 -0.21236471304E+02 -0.79353342056E+02  0.15050695103E+03  0.12508721886E+03 0.  0.
          5    1    3    3  502    0  0.20091360967E+02  0.22925587226E+02 -0.87462610624E+02  0.92716913195E+02  0.41800000000E+01 0.  1.
         -5    1    3    3    0  502 -0.36140952155E+02 -0.44162058530E+02  0.81092685686E+01  0.57790037835E+02  0.41800000000E+01 0.  1.
        -11    1    1    2    0    0  0.39281861079E+02 -0.16773755510E+02  0.19157414014E+02  0.46812711900E+02  0.00000000000E+00 0.  1.
         11    1    1    2    0    0 -0.23232269892E+02  0.38010226814E+02  0.68837129401E+02  0.81994305234E+02  0.00000000000E+00 0. -1.
</event>
<event>
 7    1  0.2810263E-009  0.2095071E+03  0.7561462E-02  0.1141957E+00
          1   -1    0    0  501    0  0.00000000000E+00  0.00000000000E+00  0.29833386613E+03  0.29833386613E+03  0.00000000000E+00 0. -1.
         -1   -1    0    0    0  501 -0.00000000000E+00 -0.00000000000E+00 -0.17623269084E+03  0.17623269084E+03  0.00000000000E+00 0.  1.
         25    2    1    2    0    0  0.14780867020E+03  0.13812952912E+03  0.68999591493E+02  0.24766112804E+03  0.12509165005E+03 0.  0.
          5    1    3    3  502    0  0.35395207951E+02  0.81789904511E+02 -0.22600984113E+02  0.92036330374E+02  0.41800000000E+01 0. -1.
         -5    1    3    3    0  502  0.11241346225E+03  0.56339624610E+02  0.91600575607E+02  0.15562479766E+03  0.41800000000E+01 0. -1.
        -11    1    1    2    0    0 -0.12329027920E+02 -0.31148595734E+01 -0.18691249871E+02  0.22606859608E+02  0.00000000000E+00 0.  1.
         11    1    1    2    0    0 -0.13547964228E+03 -0.13501466955E+03  0.71792833665E+02  0.20429856933E+03  0.00000000000E+00 0. -1.
</event>
<event>
 7    1  0.3081299E-009  0.1779411E+03  0.7561462E-02  0.1169811E+00
         -1   -1    0    0    0  501 -0.00000000000E+00  0.00000000000E+00  0.62299269596E+02  0.62299269596E+02  0.00000000000E+00 0.  1.
          1   -1    0    0  501    0  0.00000000000E+00 -0.00000000000E+00 -0.58798315270E+03  0.58798315270E+03  0.00000000000E+00 0. -1.
         25    2    1    2    0    0  0.14574526594E+03 -0.49136087733E+02 -0.22298574676E+03  0.29837473260E+03  0.12509516432E+03 0.  0.
          5    1    3    3  502    0  0.16570405829E+03 -0.52330535058E+02 -0.21442648340E+03  0.27602990602E+03  0.41800000000E+01 0.  1.
         -5    1    3    3    0  502 -0.19958792350E+02  0.31944473247E+01 -0.85592633576E+01  0.22344826583E+02  0.41800000000E+01 0.  1.
        -11    1    1    2    0    0 -0.96678449454E+02  0.73247295362E+01 -0.10034075509E+03  0.13953007340E+03  0.00000000000E+00 0.  1.
         11    1    1    2    0    0 -0.49066816482E+02  0.41811358197E+02 -0.20235738125E+03  0.21237761629E+03  0.00000000000E+00 0. -1.
</event>
<event>
 7    1  0.2810263E-009  0.2033698E+03  0.7561462E-02  0.1146927E+00
          1   -1    0    0  501    0  0.00000000000E+00  0.00000000000E+00  0.12675487640E+04  0.12675487640E+04  0.00000000000E+00 0. -1.
         -1   -1    0    0    0  501 -0.00000000000E+00 -0.00000000000E+00 -0.41477158437E+02  0.41477158437E+02  0.00000000000E+00 0.  1.
         25    2    1    2    0    0  0.29727950389E+02 -0.18644558499E+03  0.83287420719E+03  0.86311779690E+03  0.12508868506E+03 0.  0.
          5    1    3    3  502    0  0.37816090015E+02 -0.13615475775E+02  0.30331045264E+03  0.30599042620E+03  0.41800000000E+01 0.  1.
         -5    1    3    3    0  502 -0.80881396253E+01 -0.17283010921E+03  0.52956375454E+03  0.55712737070E+03  0.41800000000E+01 0.  1.
        -11    1    1    2    0    0 -0.10188502287E+02  0.16028442576E+03  0.37630242522E+03  0.40914351754E+03  0.00000000000E+00 0. -1.
         11    1    1    2    0    0 -0.19539448103E+02  0.26161159224E+02  0.16894973181E+02  0.36764608020E+02  0.00000000000E+00 0.  1.
</event>
<event>
 7    1  0.2810263E-009  0.1080812E+03  0.7561462E-02  0.1264165E+00
          2   -1    0    0  501    0  0.00000000000E+00  0.00000000000E+00  0.10416928405E+03  0.10416928405E+03  0.00000000000E+00 0.  1.
         -2   -1    0    0    0  501 -0.00000000000E+00 -0.00000000000E+00 -0.17018757326E+03  0.17018757326E+03  0.00000000000E+00 0. -1.
         25    2    1    2    0    0 -0.17677963911E+02 -0.67183237388E+02  0.54759643983E+00  0.14308690844E+03  0.12508983056E+03 0.  0.
          5    1    3    3  502    0  0.23776898584E+02 -0.84717648128E+02 -0.24464309910E+02  0.91424261933E+02  0.41800000000E+01 0.  1.
         -5    1    3    3    0  502 -0.41454862495E+02  0.17534410741E+02  0.25011906350E+02  0.51662646504E+02  0.41800000000E+01 0.  1.
        -11    1    1    2    0    0  0.32651799858E+02  0.38264279407E+02  0.70300014970E+01  0.50790905028E+02  0.00000000000E+00 0.  1.
         11    1    1    2    0    0 -0.14973835947E+02  0.28918957981E+02 -0.73595887148E+02  0.80479043848E+02  0.00000000000E+00 0. -1.
</event>
<event>
 7    1  0.2810263E-009  0.1179274E+03  0.7561462E-02  0.1246556E+00
         -1   -1    0    0    0  501 -0.00000000000E+00  0.00000000000E+00  0.88414946550E+02  0.88414946550E+02  0.00000000000E+00 0.  1.
          1   -1    0    0  501    0  0.00000000000E+00 -0.00000000000E+00 -0.21248310901E+03  0.21248310901E+03  0.00000000000E+00 0. -1.
         25    2    1    2    0    0 -0.81074547361E+02 -0.26328168188E+01 -0.44171402219E+02  0.15549448307E+03  0.12508959804E+03 0.  0.
          5    1    3    3  502    0  0.20806975212E+02  0.27892124380E+02  0.94678765490E+01  0.36304461244E+02  0.41800000000E+01 0.  1.
         -5    1    3    3    0  502 -0.10188152257E+03 -0.30524941198E+02 -0.53639278768E+02  0.11919002183E+03  0.41800000000E+01 0.  1.
        -11    1    1    2    0    0  0.35496907906E+02 -0.22786874677E+02  0.82366664791E+01  0.42978073516E+02  0.00000000000E+00 0.  1.
         11    1    1    2    0    0  0.45577639455E+02  0.25419691496E+02 -0.88133426723E+02  0.10242549897E+03  0.00000000000E+00 0. -1.
</event>
<event>
 7    1  0.2810263E-009  0.1077199E+03  0.7561462E-02  0.1264851E+00
          2   -1    0    0  501    0  0.00000000000E+00  0.00000000000E+00  0.55779153305E+03  0.55779153305E+03  0.00000000000E+00 0. -1.
         -2   -1    0    0    0  501 -0.00000000000E+00 -0.00000000000E+00 -0.43938330178E+02  0.43938330178E+02  0.00000000000E+00 0.  1.
         25    2    1    2    0    0  0.25330798384E+02  0.45434934475E+02  0.46851689016E+03  0.48770755622E+03  0.12507838110E+03 0.  0.
          5    1    3    3  502    0 -0.35242979285E+02 -0.24211596569E+02  0.15776286763E+03  0.16350799308E+03  0.41800000000E+01 0.  1.
         -5    1    3    3    0  502  0.60573777668E+02  0.69646531045E+02  0.31075402252E+03  0.32419956314E+03  0.41800000000E+01 0.  1.
        -11    1    1    2    0    0 -0.25626264595E+02  0.78444762204E+01  0.53769992981E+02  0.60078726596E+02  0.00000000000E+00 0.  1.
         11    1    1    2    0    0  0.29546621142E+00 -0.53279410695E+02 -0.84336802672E+01  0.53943580408E+02  0.00000000000E+00 0. -1.
</event>
<event>
 7    1  0.2961219E-009  0.1709795E+03  0.7561462E-02  0.1176830E+00
          1   -1    0    0  501    0  0.00000000000E+00  0.00000000000E+00  0.30497304337E+03  0.30497304337E+03  0.00000000000E+00 0. -1.
         -1   -1    0    0    0  501 -0.00000000000E+00 -0.00000000000E+00 -0.11239861186E+03  0.11239861186E+03  0.00000000000E+00 0.  1.
         25    2    1    2    0    0 -0.10439053701E+03  0.99108835180E+02  0.55042301899E+02  0.19849711854E+03  0.12510597765E+03 0.  0.
          5    1    3    3  502    0  0.23985343953E+02  0.43163127625E+02  0.53411839249E+01  0.49843283967E+02  0.41800000000E+01 0. -1.
         -5    1    3    3    0  502 -0.12837588096E+03  0.55945707555E+02  0.49701117974E+02  0.14865383458E+03  0.41800000000E+01 0. -1.
        -11    1    1    2    0    0  0.99883372705E+02 -0.67914222081E+02  0.59351119684E+02  0.13457928931E+03  0.00000000000E+00 0.  1.
         11    1    1    2    0    0  0.45071643024E+01 -0.31194613099E+02  0.78181009931E+02  0.84295247377E+02  0.00000000000E+00 0. -1.
</event>
<event>
 7    1  0.2810263E-009  0.1250815E+03  0.7561462E-02  0.1234942E+00
          1   -1    0    0  501    0  0.00000000000E+00  0.00000000000E+00  0.34541113136E+03  0.34541113136E+03  0.00000000000E+00 0. -1.
         -1   -1    0    0    0  501 -0.00000000000E+00 -0.00000000000E+00 -0.62041647076E+02  0.62041647076E+02  0.00000000000E+00 0.  1.
         25    2    1    2    0    0 -0.89708223157E+02  0.26449968927E+02  0.19737209070E+03  0.25169571960E+03  0.12509127435E+03 0.  0.
          5    1    3    3  502    0 -0.11794103979E+03  0.11577568550E+01  0.15138761070E+03  0.19195601147E+03  0.41800000000E+01 0. -1.
         -5    1    3    3    0  502  0.28232816630E+02  0.25292212073E+02  0.45984479996E+02  0.59739708125E+02  0.41800000000E+01 0. -1.
        -11    1    1    2    0    0  0.15914336051E+02 -0.99021981918E+00  0.75294540040E+02  0.76964370894E+02  0.00000000000E+00 0. -1.
         11    1    1    2    0    0  0.73793887107E+02 -0.25459749108E+02  0.10702853545E+02  0.78792687941E+02  0.00000000000E+00 0.  1.
</event>
<event>
 7    1  0.2810263E-009  0.1083794E+03  0.7561462E-02  0.1263601E+00
          2   -1    0    0  501    0  0.00000000000E+00  0.00000000000E+00  0.17383350415E+03  0.17383350415E+03  0.00000000000E+00 0. -1.
         -2   -1    0    0    0  501 -0.00000000000E+00 -0.00000000000E+00 -0.10025741815E+03  0.10025741815E+03  0.00000000000E+00 0.  1.
         25    2    1    2    0    0 -0.72226571994E+02  0.12490904341E+02  0.57757887333E+02  0.15606333112E+03  0.12508832631E+03 0.  0.
          5    1    3    3  502    0 -0.33886607817E+02 -0.54349136485E+02  0.43637422100E+02  0.77613322526E+02  0.41800000000E+01 0. -1.
         -5    1    3    3    0  502 -0.38339964177E+02  0.66840040825E+02  0.14120465233E+02  0.78450008598E+02  0.41800000000E+01 0. -1.
        -11    1    1    2    0    0  0.56588982429E+02 -0.17077232204E+02  0.51756944468E+02  0.78566698370E+02  0.00000000000E+00 0. -1.
         11    1    1    2    0    0  0.15637589565E+02  0.45863278630E+01 -0.35938745806E+02  0.39460892802E+02  0.00000000000E+00 0.  1.
</event>
<event>
 7    1  0.2810263E-009  0.1210094E+03  0.7561462E-02  0.1241441E+00
          1   -1    0    0  501    0  0.00000000000E+00  0.00000000000E+00  0.77427562593E+02  0.77427562593E+02  0.00000000000E+00 0. -1.
         -1   -1    0    0    0  501 -0.00000000000E+00 -0.00000000000E+00 -0.21359944413E+03  0.21359944413E+03  0.00000000000E+00 0.  1.
         25    2    1    2    0    0  0.41959846037E+02 -0.54523663386E+02 -0.71257082622E+02  0.15956476081E+03  0.12509949049E+03 0.  0.
          5    1    3    3  502    0 -0.14001827313E+01 -0.87542564533E+02 -0.37637505920E+02  0.95392428256E+02  0.41800000000E+01 0. -1.
         -5    1    3    3    0  502  0.43360028768E+02  0.33018901147E+02 -0.33619576701E+02  0.64172332553E+02  0.41800000000E+01 0. -1.
        -11    1    1    2    0    0  0.17065312049E+02 -0.29519525725E+01  0.10093710745E+02  0.20045495652E+02  0.00000000000E+00 0. -1.
         11    1    1    2    0    0 -0.59025158086E+02  0.57475615959E+02 -0.75008509657E+02  0.11141675026E+03  0.00000000000E+00 0.  1.
</event>
<event>
 7    1  0.2810263E-009  0.1014795E+03  0.7561462E-02  0.1277215E+00
         -1   -1    0    0    0  501 -0.00000000000E+00  0.00000000000E+00  0.37673073609E+02  0.37673073609E+02  0.00000000000E+00 0.  1.
          1   -1    0    0  501    0  0.00000000000E+00 -0.00000000000E+00 -0.50100177245E+03  0.50100177245E+03  0.00000000000E+00 0. -1.
         25    2    1    2    0    0  0.36775570193E+02  0.48507666490E+02 -0.36524704594E+03  0.39084369491E+03  0.12509177834E+03 0.  0.
          5    1    3    3  502    0 -0.24197205150E+02  0.15062979326E+02 -0.12706732762E+02  0.31485417906E+02  0.41800000000E+01 0.  1.
         -5    1    3    3    0  502  0.60972775343E+02  0.33444687164E+02 -0.35254031318E+03  0.35935827700E+03  0.41800000000E+01 0.  1.
        -11    1    1    2    0    0  0.22958027963E+02 -0.37161901791E+02 -0.65832950539E+02  0.79006679271E+02  0.00000000000E+00 0. -1.
         11    1    1    2    0    0 -0.59733598157E+02 -0.11345764699E+02 -0.32248702356E+02  0.68824471876E+02  0.00000000000E+00 0.  1.
</event>
<event>
 7    1  0.2810263E-009  0.8887771E+02  0.7561462E-02  0.1305592E+00
         -3   -1    0    0    0  501 -0.00000000000E+00  0.00000000000E+00  0.15974552099E+03  0.15974552099E+03  0.00000000000E+00 0.  1.
          3   -1    0    0  501    0  0.00000000000E+00 -0.00000000000E+00 -0.95312494541E+02  0.95312494541E+02  0.00000000000E+00 0. -1.
         25    2    1    2    0    0 -0.24624115316E+02 -0.26626447977E+02 -0.11819632206E+02  0.13077519969E+03  0.12508850611E+03 0.  0.
          5    1    3    3  502    0  0.38766239450E+02  0.22563487448E+02  0.12640147894E+02  0.46788652745E+02  0.41800000000E+01 0. -1.
         -5    1    3    3    0  502 -0.63390354766E+02 -0.49189935425E+02 -0.24459780100E+02  0.83986546941E+02  0.41800000000E+01 0. -1.
        -11    1    1    2    0    0  0.30575627205E+02  0.63490201537E+01  0.92498231437E+02  0.97627362224E+02  0.00000000000E+00 0.  1.
         11    1    1    2    0    0 -0.59515118894E+01  0.20277427824E+02 -0.16245572780E+02  0.26655453623E+02  0.00000000000E+00 0. -1.
</event>
<event>
 7    1  0.2810263E-009  0.7854805E+02  0.7561462E-02  0.1333223E+00
          1   -1    0    0  501    0  0.00000000000E+00  0.00000000000E+00  0.45484803914E+03  0.45484803914E+03  0.00000000000E+00 0. -1.
         -1   -1    0    0    0  501 -0.00000000000E+00 -0.00000000000E+00 -0.30981340879E+02  0.30981340879E+02  0.00000000000E+00 0.  1.
         25    2    1    2    0    0 -0.52962268354E+02  0.84456980025E+01  0.24642810593E+03  0.28151396694E+03  0.12508785116E+03 0.  0.
          5    1    3    3  502    0 -0.33700683850E+02  0.13402520219E+02  0.25632277584E+03  0.25890963955E+03  0.41800000000E+01 0. -1.
         -5    1    3    3    0  502 -0.19261584504E+02 -0.49568222167E+01 -0.98946699080E+01  0.22604327389E+02  0.41800000000E+01 0. -1.
        -11    1    1    2    0    0 -0.22846608829E+02  0.46977617308E+01  0.54558862784E+02  0.59335537484E+02  0.00000000000E+00 0. -1.
         11    1    1    2    0    0  0.75808877183E+02 -0.13143459733E+02  0.12287972955E+03  0.14497987559E+03  0.00000000000E+00 0.  1.
</event>
<event>
 7    1  0.2810263E-009  0.1350359E+03  0.7561462E-02  0.1220169E+00
          2   -1    0    0  501    0  0.00000000000E+00  0.00000000000E+00  0.75834598868E+02  0.75834598868E+02  0.00000000000E+00 0. -1.
         -2   -1    0    0    0  501 -0.00000000000E+00 -0.00000000000E+00 -0.34767388123E+03  0.34767388123E+03  0.00000000000E+00 0.  1.
         25    2    1    2    0    0  0.39367750032E+02 -0.87643028079E+02 -0.48895842424E+02  0.16513438481E+03  0.12508973389E+03 0.  0.
          5    1    3    3  502    0 -0.20994280048E+02  0.17302224785E+02 -0.32976887516E+02  0.42954327925E+02  0.41800000000E+01 0. -1.
         -5    1    3    3    0  502  0.60362030080E+02 -0.10494525286E+03 -0.15918954908E+02  0.12218005688E+03  0.41800000000E+01 0. -1.
        -11    1    1    2    0    0 -0.30572741456E+02 -0.26509031646E+01 -0.10608351945E+03  0.11043293398E+03  0.00000000000E+00 0.  1.
         11    1    1    2    0    0 -0.87950085762E+01  0.90293931244E+02 -0.11685992049E+03  0.14794116132E+03  0.00000000000E+00 0. -1.
</event>
<event>
 7    1  0.2810263E-009  0.1174527E+03  0.7561462E-02  0.1247359E+00
         -1   -1    0    0    0  501 -0.00000000000E+00  0.00000000000E+00  0.12264336787E+03  0.12264336787E+03  0.00000000000E+00 0.  1.
          1   -1    0    0  501    0  0.00000000000E+00 -0.00000000000E+00 -0.18180089992E+03  0.18180089992E+03  0.00000000000E+00 0. -1.
         25    2    1    2    0    0 -0.78874683056E+02  0.61756859951E+02 -0.56381709571E+02  0.16988397831E+03  0.12508614445E+03 0.  0.
          5    1    3    3  502    0 -0.62793889619E+02  0.17592833308E+02  0.29653062414E+02  0.71759019418E+02  0.41800000000E+01 0. -1.
         -5    1    3    3    0  502 -0.16080793436E+02  0.44164026643E+02 -0.86034771985E+02  0.98124958891E+02  0.41800000000E+01 0. -1.
        -11    1    1    2    0    0  0.31873508536E+02 -0.67865054026E+02 -0.29002943364E+02  0.80391273333E+02  0.00000000000E+00 0. -1.
         11    1    1    2    0    0  0.47001174519E+02  0.61081940746E+01  0.26227120886E+02  0.54169016154E+02  0.00000000000E+00 0.  1.
</event>
<event>
 7    1  0.2810263E-009  0.1206573E+03  0.7561462E-02  0.1242017E+00
         -4   -1    0    0    0  501 -0.00000000000E+00  0.00000000000E+00  0.96011246653E+02  0.96011246653E+02  0.00000000000E+00 0.  1.
          4   -1    0    0  501    0  0.00000000000E+00 -0.00000000000E+00 -0.17782687761E+03  0.17782687761E+03  0.00000000000E+00 0. -1.
         25    2    1    2    0    0  0.52835241923E+02 -0.47909073841E+02 -0.66742748550E+02  0.15871687346E+03  0.12509839844E+03 0.  0.
          5    1    3    3  502    0  0.59739335990E+02  0.23785742400E+02 -0.65707882723E+01  0.64770344021E+02  0.41800000000E+01 0. -1.
         -5    1    3    3    0  502 -0.69040940668E+01 -0.71694816241E+02 -0.60171960277E+02  0.93946529443E+02  0.41800000000E+01 0. -1.
        -11    1    1    2    0    0  0.57855830752E+01  0.45703762492E+02  0.15961935779E+02  0.48755412738E+02  0.00000000000E+00 0.  1.
         11    1    1    2    0    0 -0.58620824998E+02  0.22053113484E+01 -0.31034818185E+02  0.66365838060E+02  0.00000000000E+00 0. -1.
</event>
<event>
 7    1  0.2810263E-009  0.1099654E+03  0.7561462E-02  0.1260634E+00
          1   -1    0    0  501    0  0.00000000000E+00  0.00000000000E+00  0.16616272544E+03  0.16616272544E+03  0.00000000000E+00 0. -1.
         -1   -1    0    0    0  501 -0.00000000000E+00 -0.00000000000E+00 -0.10112533518E+03  0.10112533518E+03  0.00000000000E+00 0.  1.
         25    2    1    2    0    0  0.37661127052E+02  0.31753423412E+02 -0.25331873765E+02  0.13681204937E+03  0.12509673311E+03 0.  0.
          5    1    3    3  502    0  0.20425263983E+02  0.75651563991E+02 -0.38867101448E+02  0.87569826527E+02  0.41800000000E+01 0. -1.
         -5    1    3    3    0  502  0.17235863069E+02 -0.43898140579E+02  0.13535227683E+02  0.49242222842E+02  0.41800000000E+01 0. -1.
        -11    1    1    2    0    0 -0.62696026029E+02 -0.28494576620E+02  0.66056573447E+02  0.95426429631E+02  0.00000000000E+00 0. -1.
         11    1    1    2    0    0  0.25034898977E+02 -0.32588467920E+01  0.24312690576E+02  0.35049581627E+02  0.00000000000E+00 0.  1.
</event>
<event>
 7    1  0.2810263E-009  0.8009940E+02  0.7561462E-02  0.1328770E+00
         -1   -1    0    0    0  501 -0.00000000000E+00  0.00000000000E+00  0.20940710497E+02  0.20940710497E+02  0.00000000000E+00 0.  1.
          1   -1    0    0  501    0  0.00000000000E+00 -0.00000000000E+00 -0.70254445353E+03  0.70254445353E+03  0.00000000000E+00 0. -1.
         25    2    1    2    0    0  0.55308313048E+02  0.75933405828E+01 -0.36551413057E+03  0.39033895381E+03  0.12508897194E+03 0.  0.
          5    1    3    3  502    0  0.21018387224E+01  0.58119354827E+01 -0.32024738927E+03  0.32033429266E+03  0.41800000000E+01 0.  1.
         -5    1    3    3    0  502  0.53206474326E+02  0.17814051002E+01 -0.45266741298E+02  0.70004661145E+02  0.41800000000E+01 0.  1.
        -11    1    1    2    0    0 -0.50817837590E+02  0.31630362260E+02 -0.13300921670E+03  0.14585741038E+03  0.00000000000E+00 0. -1.
         11    1    1    2    0    0 -0.44904754581E+01 -0.39223702843E+02 -0.18308039576E+03  0.18728879984E+03  0.00000000000E+00 0.  1.
</event>
<event>
 7    1  0.2810263E-009  0.1267515E+03  0.7561462E-02  0.1232357E+00
          2   -1    0    0  501    0  0.00000000000E+00  0.00000000000E+00  0.10877156667E+04  0.10877156667E+04  0.00000000000E+00 0. -1.
         -2   -1    0    0    0  501 -0.00000000000E+00 -0.00000000000E+00 -0.17073999617E+02  0.17073999617E+02  0.00000000000E+00 0.  1.
         25    2    1    2    0    0 -0.81022090911E+02  0.21315331114E+02  0.59842287688E+03  0.61706966350E+03  0.12508440142E+03 0.  0.
          5    1    3    3  502    0 -0.30786078336E+02  0.61541838445E+02  0.44986640570E+03  0.45511804608E+03  0.41800000000E+01 0. -1.
         -5    1    3    3    0  502 -0.50236012574E+02 -0.40226507331E+02  0.14855647119E+03  0.16195161741E+03  0.41800000000E+01 0. -1.
        -11    1    1    2    0    0  0.34224037017E+02  0.33572008011E+02  0.23219655823E+03  0.23709408699E+03  0.00000000000E+00 0.  1.
         11    1    1    2    0    0  0.46798053894E+02 -0.54887339126E+02  0.24002223196E+03  0.25062591582E+03  0.00000000000E+00 0. -1.
</event>
<event>
 7    1  0.2810263E-009  0.1272373E+03  0.7561462E-02  0.1231614E+00
         -2   -1    0    0    0  501 -0.00000000000E+00  0.00000000000E+00  0.11828161159E+02  0.11828161159E+02  0.00000000000E+00 0.  1.
          2   -1    0    0  501    0  0.00000000000E+00 -0.00000000000E+00 -0.15105158425E+04  0.15105158425E+04  0.00000000000E+00 0. -1.
         25    2    1    2    0    0 -0.69667861501E+02  0.16657091114E+02 -0.10026557315E+04  0.10129631776E+04  0.12507922982E+03 0.  0.
          5    1    3    3  502    0 -0.66656798790E+02 -0.45310204944E+02 -0.63121976073E+03  0.63635839135E+03  0.41800000000E+01 0. -1.
         -5    1    3    3    0  502 -0.30110627109E+01  0.61967296057E+02 -0.37143597074E+03  0.37660478627E+03  0.41800000000E+01 0. -1.
        -11    1    1    2    0    0  0.59371467050E+02  0.28082136317E+02 -0.35623220842E+03  0.36223606087E+03  0.00000000000E+00 0. -1.
         11    1    1    2    0    0  0.10296394451E+02 -0.44739227431E+02 -0.13979974148E+03  0.14714476521E+03  0.00000000000E+00 0.  1.
</event>
<event>
 7    1  0.2810263E-009  0.1044020E+03  0.7561462E-02  0.1271302E+00
          1   -1    0    0  501    0  0.00000000000E+00  0.00000000000E+00  0.11009979244E+04  0.11009979244E+04  0.00000000000E+00 0. -1.
         -1   -1    0    0    0  501 -0.00000000000E+00 -0.00000000000E+00 -0.15682413976E+02  0.15682413976E+02  0.00000000000E+00 0.  1.
         25    2    1    2    0    0  0.66364935656E+02 -0.27569430028E+02  0.53729642179E+03  0.55632645734E+03  0.12508918461E+03 0.  0.
          5    1    3    3  502    0  0.29352708956E+02 -0.46450866403E+02  0.49058337268E+03  0.49366869707E+03  0.41800000000E+01 0.  1.
         -5    1    3    3    0  502  0.37012226699E+02  0.18881436375E+02  0.46713049110E+02  0.62657760269E+02  0.41800000000E+01 0.  1.
        -11    1    1    2    0    0  0.93129150856E+01  0.34696720050E+02  0.10802020787E+03  0.11383741950E+03  0.00000000000E+00 0.  1.
         11    1    1    2    0    0 -0.75677850741E+02 -0.71272900222E+01  0.43999888077E+03  0.44651646155E+03  0.00000000000E+00 0. -1.
</event>
<event>
 7    1  0.2810263E-009  0.3572005E+03  0.7561462E-02  0.1059698E+00
          3   -1    0    0  501    0  0.00000000000E+00  0.00000000000E+00  0.44193210444E+03  0.44193210444E+03  0.00000000000E+00 0. -1.
         -3   -1    0    0    0  501 -0.00000000000E+00 -0.00000000000E+00 -0.32895061335E+03  0.32895061335E+03  0.00000000000E+00 0.  1.
         25    2    1    2    0    0  0.27584605238E+02  0.34653825689E+03  0.17127202210E+03  0.40722401573E+03  0.12509044527E+03 0.  0.
          5    1    3    3  502    0  0.72438100826E+02  0.24582334182E+03  0.14226729769E+03  0.29314475985E+03  0.41800000000E+01 0. -1.
         -5    1    3    3    0  502 -0.44853495588E+02  0.10071491507E+03  0.29004724412E+02  0.11407925588E+03  0.41800000000E+01 0. -1.
        -11    1    1    2    0    0 -0.22703582596E+02 -0.22897378477E+03 -0.80777300868E+02  0.24386352558E+03  0.00000000000E+00 0.  1.
         11    1    1    2    0    0 -0.48810226421E+01 -0.11756447212E+03  0.22486769864E+02  0.11979517647E+03  0.00000000000E+00 0. -1.
</event>
<event>
 7    1  0.2810263E-009  0.2706106E+03  0.7561462E-02  0.1100931E+00
         -2   -1    0    0    0  501 -0.00000000000E+00  0.00000000000E+00  0.29290035257E+03  0.29290035257E+03  0.00000000000E+00 0.  1.
          2   -1    0    0  501    0  0.00000000000E+00 -0.00000000000E+00 -0.26433640557E+03  0.26433640557E+03  0.00000000000E+00 0. -1.
         25    2    1    2    0    0 -0.95104628297E+01  0.25447927762E+03  0.41939742060E+02  0.28680353742E+03  0.12508867043E+03 0.  0.
          5    1    3    3  502    0  0.44167636116E+02  0.12274661277E+03 -0.19186082225E+02  0.13192076856E+03  0.41800000000E+01 0.  1.
         -5    1    3    3    0  502 -0.53678098945E+02  0.13173266485E+03  0.61125824285E+02  0.15488276886E+03  0.41800000000E+01 0.  1.
        -11    1    1    2    0    0 -0.33442146747E+02 -0.17383792952E+03 -0.23201008516E+02  0.17853932260E+03  0.00000000000E+00 0.  1.
         11    1    1    2    0    0  0.42952609576E+02 -0.80641348097E+02  0.98252134537E+01  0.91893898120E+02  0.00000000000E+00 0. -1.
</event>
<event>
 7    1  0.2810263E-009  0.9608179E+02  0.7561462E-02  0.1288758E+00
         -1   -1    0    0    0  501 -0.00000000000E+00  0.00000000000E+00  0.46474142075E+02  0.46474142075E+02  0.00000000000E+00 0.  1.
          1   -1    0    0  501    0  0.00000000000E+00 -0.00000000000E+00 -0.28463995942E+03  0.28463995942E+03  0.00000000000E+00 0. -1.
         25    2    1    2    0    0  0.36231733199E+02  0.65853522863E+01 -0.13506495266E+03  0.18773925952E+03  0.12508949906E+03 0.  0.
          5    1    3    3  502    0  0.52382849502E+02 -0.29130649857E+02 -0.13560011862E+03  0.14831527990E+03  0.41800000000E+01 0. -1.
         -5    1    3    3    0  502 -0.16151116302E+02  0.35716002143E+02  0.53516595763E+00  0.39423979626E+02  0.41800000000E+01 0. -1.
        -11    1    1    2    0    0 -0.24762275599E+02 -0.45656848695E+02 -0.83127657627E+02  0.98020026465E+02  0.00000000000E+00 0. -1.
         11    1    1    2    0    0 -0.11469457600E+02  0.39071496408E+02 -0.19973207058E+02  0.45354815504E+02  0.00000000000E+00 0.  1.
</event>
<event>
 7    1  0.2810263E-009  0.7651808E+02  0.7561462E-02  0.1339233E+00
          1   -1    0    0  501    0  0.00000000000E+00  0.00000000000E+00  0.24114872863E+03  0.24114872863E+03  0.00000000000E+00 0. -1.
         -1   -1    0    0    0  501 -0.00000000000E+00 -0.00000000000E+00 -0.64924038064E+02  0.64924038064E+02  0.00000000000E+00 0.  1.
         25    2    1    2    0    0 -0.17157272036E+02 -0.63331760859E+02  0.13041806734E+03  0.19225219666E+03  0.12508697340E+03 0.  0.
          5    1    3    3  502    0 -0.20831856794E+01 -0.52454173988E+02  0.15352337629E+03  0.16230428059E+03  0.41800000000E+01 0. -1.
         -5    1    3    3    0  502 -0.15074086357E+02 -0.10877586871E+02 -0.23105308943E+02  0.29947916071E+02  0.41800000000E+01 0. -1.
        -11    1    1    2    0    0  0.31997500035E+02  0.26273682415E+02 -0.12419094163E+02  0.43224764845E+02  0.00000000000E+00 0.  1.
         11    1    1    2    0    0 -0.14840227999E+02  0.37058078444E+02  0.58225717387E+02  0.70595805188E+02  0.00000000000E+00 0. -1.
</event>
<event>
 7    1  0.2810263E-009  0.1411403E+03  0.7561462E-02  0.1211803E+00
          2   -1    0    0  501    0  0.00000000000E+00  0.00000000000E+00  0.10345056860E+04  0.10345056860E+04  0.00000000000E+00 0. -1.
         -2   -1    0    0    0  501 -0.00000000000E+00 -0.00000000000E+00 -0.27036737125E+02  0.27036737125E+02  0.00000000000E+00 0.  1.
         25    2    1    2    0    0  0.53441558276E+01  0.12705111040E+03  0.58314050657E+03  0.60981183763E+03  0.12508829782E+03 0.  0.
          5    1    3    3  502    0 -0.77610125433E+01  0.71099824810E+02  0.51764670563E+03  0.52258109673E+03  0.41800000000E+01 0. -1.
         -5    1    3    3    0  502  0.13105168371E+02  0.55951285587E+02  0.65493800940E+02  0.87230740902E+02  0.41800000000E+01 0. -1.
        -11    1    1    2    0    0  0.35826674421E+02 -0.27103209265E+02  0.94370408948E+02  0.10451750398E+03  0.00000000000E+00 0.  1.
         11    1    1    2    0    0 -0.41170830249E+02 -0.99947901132E+02  0.32995803337E+03  0.34721308154E+03  0.00000000000E+00 0. -1.
</event>
<event>
 7    1  0.2810263E-009  0.1142775E+03  0.7561462E-02  0.1252848E+00
          2   -1    0    0  501    0  0.00000000000E+00  0.00000000000E+00  0.28343872660E+03  0.28343872660E+03  0.00000000000E+00 0.  1.
         -2   -1    0    0    0  501 -0.00000000000E+00 -0.00000000000E+00 -0.56636268616E+02  0.56636268616E+02  0.00000000000E+00 0. -1.
         25    2    1    2    0    0  0.56722989136E+02  0.25631218651E+02  0.98625298361E+02  0.17102267288E+03  0.12508936125E+03 0.  0.
          5    1    3    3  502    0  0.78445673968E+02  0.44771721851E+02  0.28122311649E+02  0.94691961931E+02  0.41800000000E+01 0. -1.
         -5    1    3    3    0  502 -0.21722684832E+02 -0.19140503200E+02  0.70502986712E+02  0.76330710952E+02  0.41800000000E+01 0. -1.
        -11    1    1    2    0    0  0.19909777430E+02 -0.25370193515E+02  0.26564383858E+02  0.41781723828E+02  0.00000000000E+00 0. -1.
         11    1    1    2    0    0 -0.76632766566E+02 -0.26102513603E+00  0.10161277577E+03  0.12727059851E+03  0.00000000000E+00 0.  1.
</event>
<event>
 7    1  0.2810263E-009  0.8240024E+02  0.7561462E-02  0.1322375E+00
          3   -1    0    0  501    0  0.00000000000E+00  0.00000000000E+00  0.39987426197E+03  0.39987426197E+03  0.00000000000E+00 0. -1.
         -3   -1    0    0    0  501 -0.00000000000E+00 -0.00000000000E+00 -0.33292203757E+02  0.33292203757E+02  0.00000000000E+00 0.  1.
         25    2    1    2    0    0  0.18117540485E+02 -0.12329607358E+01  0.14097889810E+03  0.18935228865E+03  0.12509785787E+03 0.  0.
          5    1    3    3  502    0 -0.21218440930E+02  0.33393935130E+02  0.96809508704E+00  0.39796818303E+02  0.41800000000E+01 0.  1.
         -5    1    3    3    0  502  0.39335981415E+02 -0.34626895866E+02  0.14001080301E+03  0.14955547035E+03  0.41800000000E+01 0.  1.
        -11    1    1    2    0    0 -0.26201003430E+02 -0.30203534414E+02  0.19549205281E+03  0.19953919109E+03  0.00000000000E+00 0. -1.
         11    1    1    2    0    0  0.80834629448E+01  0.31436495149E+02  0.30111107308E+02  0.44274985983E+02  0.00000000000E+00 0.  1.
</event>
<event>
 7    1  0.2810263E-009  0.2765126E+03  0.7561462E-02  0.1097609E+00
         -2   -1    0    0    0  501 -0.00000000000E+00  0.00000000000E+00  0.33896893146E+02  0.33896893146E+02  0.00000000000E+00 0. -1.
          2   -1    0    0  501    0  0.00000000000E+00 -0.00000000000E+00 -0.25262944861E+04  0.25262944861E+04  0.00000000000E+00 0.  1.
         25    2    1    2    0    0 -0.25442523984E+03 -0.66400427407E+02 -0.15629078351E+04  0.15898019252E+04  0.12509213044E+03 0.  0.
          5    1    3    3  502    0 -0.10759075391E+03 -0.90857129126E+02 -0.68256161466E+03  0.69694950926E+03  0.41800000000E+01 0.  1.
         -5    1    3    3    0  502 -0.14683448593E+03  0.24456701719E+02 -0.88034622040E+03  0.89285241596E+03  0.41800000000E+01 0.  1.
        -11    1    1    2    0    0  0.13366406476E+03  0.28635977259E+02 -0.64033406017E+03  0.65476240730E+03  0.00000000000E+00 0.  1.
         11    1    1    2    0    0  0.12076117508E+03  0.37764450148E+02 -0.28915569774E+03  0.31562704675E+03  0.00000000000E+00 0. -1.
</event>
<event>
 7    1  0.2810263E-009  0.2857477E+03  0.7561462E-02  0.1092590E+00
         -1   -1    0    0    0  501 -0.00000000000E+00  0.00000000000E+00  0.78601244918E+03  0.78601244918E+03  0.00000000000E+00 0.  1.
          1   -1    0    0  501    0  0.00000000000E+00 -0.00000000000E+00 -0.14134157053E+03  0.14134157053E+03  0.00000000000E+00 0. -1.
         25    2    1    2    0    0  0.14832791681E+03  0.24065548930E+03  0.51262625136E+03  0.59862298648E+03  0.12509025112E+03 0.  0.
          5    1    3    3  502    0  0.98236452975E+02  0.16295836869E+03  0.21595400084E+03  0.28785314572E+03  0.41800000000E+01 0.  1.
         -5    1    3    3    0  502  0.50091463835E+02  0.77697120605E+02  0.29667225052E+03  0.31076984077E+03  0.41800000000E+01 0.  1.
        -11    1    1    2    0    0 -0.13045201248E+03 -0.16212066840E+03  0.13515330715E+03  0.24812749771E+03  0.00000000000E+00 0.  1.
         11    1    1    2    0    0 -0.17875904329E+02 -0.78534820894E+02 -0.31086798719E+01  0.80603535524E+02  0.00000000000E+00 0. -1.
</event>
<event>
 7    1  0.2810263E-009  0.1281561E+03  0.7561462E-02  0.1230218E+00
         -3   -1    0    0    0  501 -0.00000000000E+00  0.00000000000E+00  0.30710006854E+02  0.30710006854E+02  0.00000000000E+00 0.  1.
          3   -1    0    0  501    0  0.00000000000E+00 -0.00000000000E+00 -0.58590297519E+03  0.58590297519E+03  0.00000000000E+00 0. -1.
         25    2    1    2    0    0  0.32519722745E+02  0.69444845045E+02 -0.26509309124E+03  0.30298929335E+03  0.12509214999E+03 0.  0.
          5    1    3    3  502    0  0.78343930185E+02  0.30524389501E+02 -0.18002738022E+03  0.19873811859E+03  0.41800000000E+01 0. -1.
         -5    1    3    3    0  502 -0.45824207440E+02  0.38920455544E+02 -0.85065711019E+02  0.10425117476E+03  0.41800000000E+01 0. -1.
        -11    1    1    2    0    0  0.13424900843E+01 -0.77126572854E+02 -0.14297189150E+03  0.16245390817E+03  0.00000000000E+00 0.  1.
         11    1    1    2    0    0 -0.33862212829E+02  0.76817278089E+01 -0.14712798559E+03  0.15116978052E+03  0.00000000000E+00 0. -1.
</event>
<event>
 7    1  0.2810263E-009  0.1365414E+03  0.7561462E-02  0.1218060E+00
         -1   -1    0    0    0  501 -0.00000000000E+00  0.00000000000E+00  0.98289099112E+02  0.98289099112E+02  0.00000000000E+00 0.  1.
          1   -1    0    0  501    0  0.00000000000E+00 -0.00000000000E+00 -0.19684930686E+03  0.19684930686E+03  0.00000000000E+00 0. -1.
         25    2    1    2    0    0  0.49126811490E+02 -0.74038213424E+02 -0.51102638306E+02  0.16171455095E+03  0.12508003715E+03 0.  0.
          5    1    3    3  502    0  0.48942617834E+02  0.24160905548E+02 -0.23902021046E+02  0.59731969727E+02  0.41800000000E+01 0.  1.
         -5    1    3    3    0  502  0.18419365602E+00 -0.98199118972E+02 -0.27200617259E+02  0.10198258123E+03  0.41800000000E+01 0.  1.
        -11    1    1    2    0    0 -0.50738267671E+02  0.90371618190E+02 -0.26818397199E+02  0.10705432083E+03  0.00000000000E+00 0.  1.
         11    1    1    2    0    0  0.16114561809E+01 -0.16333404766E+02 -0.20639172239E+02  0.26369534182E+02  0.00000000000E+00 0. -1.
</event>
<event>
 7    1  0.2810263E-009  0.1304817E+03  0.7561462E-02  0.1226743E+00
          2   -1    0    0  501    0  0.00000000000E+00  0.00000000000E+00  0.71430793449E+03  0.71430793449E+03  0.00000000000E+00 0.  1.
         -2   -1    0    0    0  501 -0.00000000000E+00 -0.00000000000E+00 -0.33935549907E+02  0.33935549907E+02  0.00000000000E+00 0. -1.
         25    2    1    2    0    0  0.26717470833E+02 -0.91011032911E+02  0.50815827128E+03  0.53185257778E+03  0.12508199097E+03 0.  0.
          5    1    3    3  502    0 -0.10191073942E+02 -0.93051449997E+02  0.46727684202E+03  0.47657900690E+03  0.41800000000E+01 0. -1.
         -5    1    3    3    0  502  0.36908544775E+02  0.20404170859E+01  0.40881429263E+02  0.55273570881E+02  0.41800000000E+01 0. -1.
        -11    1    1    2    0    0  0.13380337864E+02 -0.12959200222E+02  0.16323698564E+02  0.24767669381E+02  0.00000000000E+00 0.  1.
         11    1    1    2    0    0 -0.40097808697E+02  0.10397023313E+03  0.15589041474E+03  0.19162323723E+03  0.00000000000E+00 0. -1.
</event>
<event>
 7    1  0.2810263E-009  0.1497587E+03  0.7561462E-02  0.1200770E+00
          1   -1    0    0  501    0  0.00000000000E+00  0.00000000000E+00  0.62213277593E+03  0.62213277593E+03  0.00000000000E+00 0. -1.
         -1   -1    0    0    0  501 -0.00000000000E+00 -0.00000000000E+00 -0.42984434959E+02  0.42984434959E+02  0.00000000000E+00 0.  1.
         25    2    1    2    0    0 -0.10861219085E+03 -0.22027088241E+01  0.19449634033E+03  0.25549445276E+03  0.12508848493E+03 0.  0.
          5    1    3    3  502    0 -0.54084668588E+02 -0.59804438659E+02  0.13065707436E+03  0.15359188045E+03  0.41800000000E+01 0.  1.
         -5    1    3    3    0  502 -0.54527522259E+02  0.57601729834E+02  0.63839265975E+02  0.10190257231E+03  0.41800000000E+01 0.  1.
        -11    1    1    2    0    0  0.30117486445E+01 -0.29061622921E+02  0.58724127345E+02  0.65590942128E+02  0.00000000000E+00 0.  1.
         11    1    1    2    0    0  0.10560044220E+03  0.31264331745E+02  0.32592787329E+03  0.34403181600E+03  0.00000000000E+00 0. -1.
</event>
<event>
 7    1  0.2810263E-009  0.2040246E+03  0.7561462E-02  0.1146387E+00
          1   -1    0    0  501    0  0.00000000000E+00  0.00000000000E+00  0.77172916825E+03  0.77172916825E+03  0.00000000000E+00 0. -1.
         -1   -1    0    0    0  501 -0.00000000000E+00 -0.00000000000E+00 -0.14481730907E+03  0.14481730907E+03  0.00000000000E+00 0.  1.
         25    2    1    2    0    0 -0.17003927350E+03 -0.10255382267E+03 -0.17858829918E+02  0.23536701945E+03  0.12509218586E+03 0.  0.
          5    1    3    3  502    0 -0.59451450410E+02 -0.69181364415E+02  0.47132757572E+02  0.10275945394E+03  0.41800000000E+01 0.  1.
         -5    1    3    3    0  502 -0.11058782309E+03 -0.33372458259E+02 -0.64991587491E+02  0.13260756551E+03  0.41800000000E+01 0.  1.
        -11    1    1    2    0    0  0.60922933612E+02  0.55155105549E+02  0.40808183466E+03  0.41627451674E+03  0.00000000000E+00 0.  1.
         11    1    1    2    0    0  0.10911633989E+03  0.47398717125E+02  0.23668885444E+03  0.26490494113E+03  0.00000000000E+00 0. -1.
</event>
<event>
 7    1  0.2810263E-009  0.1393583E+03  0.7561462E-02  0.1214195E+00
          2   -1    0    0  501    0  0.00000000000E+00  0.00000000000E+00  0.54721807040E+03  0.54721807040E+03  0.00000000000E+00 0. -1.
         -2   -1    0    0    0  501 -0.00000000000E+00 -0.00000000000E+00 -0.42400895235E+02  0.42400895235E+02  0.00000000000E+00 0.  1.
         25    2    1    2    0    0  0.10571418707E+03  0.15331563403E+02  0.27263124514E+03  0.31841156138E+03  0.12509028903E+03 0.  0.
          5    1    3    3  502    0 -0.12883550492E+02 -0.11150214558E+02  0.12916536770E+03  0.13035136275E+03  0.41800000000E+01 0. -1.
         -5    1    3    3    0  502  0.11859773756E+03  0.26481777961E+02  0.14346587744E+03  0.18806019863E+03  0.41800000000E+01 0. -1.
        -11    1    1    2    0    0 -0.10363462941E+03 -0.42735279682E+02  0.17614687702E+03  0.20879215222E+03  0.00000000000E+00 0. -1.
         11    1    1    2    0    0 -0.20795576562E+01  0.27403716279E+02  0.56039053008E+02  0.62415252046E+02  0.00000000000E+00 0.  1.
</event>
<event>
 7    1  0.2810263E-009  0.8618723E+02  0.7561462E-02  0.1312357E+00
          2   -1    0    0  501    0  0.00000000000E+00  0.00000000000E+00  0.84163605496E+03  0.84163605496E+03  0.00000000000E+00 0. -1.
         -2   -1    0    0    0  501 -0.00000000000E+00 -0.00000000000E+00 -0.92346346276E+01  0.92346346276E+01  0.00000000000E+00 0.  1.
         25    2    1    2    0    0 -0.19026585335E+02  0.12160591654E+02  0.59797725655E+03  0.61133837402E+03  0.12509163541E+03 0.  0.
          5    1    3    3  502    0 -0.48612139902E+01  0.66569682959E+02  0.24845816860E+03  0.25730155078E+03  0.41800000000E+01 0. -1.
         -5    1    3    3    0  502 -0.14165371345E+02 -0.54409091304E+02  0.34951908796E+03  0.35403682324E+03  0.41800000000E+01 0. -1.
        -11    1    1    2    0    0 -0.12112939094E+02 -0.13260178519E+02  0.92615579692E+02  0.94340877829E+02  0.00000000000E+00 0.  1.
         11    1    1    2    0    0  0.31139524430E+02  0.10995868645E+01  0.14180858409E+03  0.14519143774E+03  0.00000000000E+00 0. -1.
</event>
<event>
 7    1  0.2810263E-009  0.9613314E+02  0.7561462E-02  0.1288644E+00
         -1   -1    0    0    0  501 -0.00000000000E+00  0.00000000000E+00  0.55957369639E+02  0.55957369639E+02  0.00000000000E+00 0.  1.
          1   -1    0    0  501    0  0.00000000000E+00 -0.00000000000E+00 -0.29160123555E+03  0.29160123555E+03  0.00000000000E+00 0. -1.
         25    2    1    2    0    0  0.45099087265E+02 -0.38646648147E+02 -0.91052496772E+02  0.16572458003E+03  0.12508632289E+03 0.  0.
          5    1    3    3  502    0  0.88345707545E+01  0.22517027467E+02 -0.91251341173E+02  0.94495215923E+02  0.41800000000E+01 0.  1.
         -5    1    3    3    0  502  0.36264516510E+02 -0.61163675614E+02  0.19884440135E+00  0.71229364109E+02  0.41800000000E+01 0.  1.
        -11    1    1    2    0    0  0.14584424873E+02  0.33558308339E+02 -0.15920974771E+02  0.39904172026E+02  0.00000000000E+00 0.  1.
         11    1    1    2    0    0 -0.59683512138E+02  0.50883398083E+01 -0.12867039437E+03  0.14192985313E+03  0.00000000000E+00 0. -1.
</event>
<event>
 7    1  0.2810263E-009  0.2189863E+03  0.7561462E-02  0.1134641E+00
         -1   -1    0    0    0  501 -0.00000000000E+00  0.00000000000E+00  0.71986961129E+02  0.71986961129E+02  0.00000000000E+00 0.  1.
          1   -1    0    0  501    0  0.00000000000E+00 -0.00000000000E+00 -0.78981307234E+03  0.78981307234E+03  0.00000000000E+00 0. -1.
         25    2    1    2    0    0  0.44352735544E+01  0.20109002566E+03 -0.49286361872E+03  0.54682617150E+03  0.12508974820E+03 0.  0.
          5    1    3    3  502    0  0.60962411530E+02  0.65954893446E+02 -0.20326197787E+03  0.22225968514E+03  0.41800000000E+01 0.  1.
         -5    1    3    3    0  502 -0.56527137976E+02  0.13513513221E+03 -0.28960164085E+03  0.32456648636E+03  0.41800000000E+01 0.  1.
        -11    1    1    2    0    0  0.43635931623E+01 -0.69777260140E+02 -0.22403991496E+02  0.73415569281E+02  0.00000000000E+00 0.  1.
         11    1    1    2    0    0 -0.87988667167E+01 -0.13131276552E+03 -0.20255850099E+03  0.24155829269E+03  0.00000000000E+00 0. -1.
</event>
<event>
 7    1  0.2810263E-009  0.8821771E+02  0.7561462E-02  0.1307226E+00
         -4   -1    0    0    0  501 -0.00000000000E+00  0.00000000000E+00  0.32785820489E+03  0.32785820489E+03  0.00000000000E+00 0.  1.
          4   -1    0    0  501    0  0.00000000000E+00 -0.00000000000E+00 -0.41818571132E+02  0.41818571132E+02  0.00000000000E+00 0. -1.
         25    2    1    2    0    0 -0.30580328601E+02 -0.26120486083E+02  0.18958396870E+03  0.23067042311E+03  0.12509726863E+03 0.  0.
          5    1    3    3  502    0  0.23316008939E+02 -0.81758644383E+01  0.16784322781E+03  0.16970357260E+03  0.41800000000E+01 0. -1.
         -5    1    3    3    0  502 -0.53896337540E+02 -0.17944621645E+02  0.21740740892E+02  0.60966850507E+02  0.41800000000E+01 0. -1.
        -11    1    1    2    0    0 -0.22248473298E+02 -0.15540259118E+02  0.88456984861E+01  0.28543661280E+02  0.00000000000E+00 0. -1.
         11    1    1    2    0    0  0.52828801899E+02  0.41660745201E+02  0.87609966573E+02  0.11046269164E+03  0.00000000000E+00 0.  1.
</event>
<event>
 7    1  0.2810263E-009  0.2540423E+03  0.7561462E-02  0.1110777E+00
          1   -1    0    0  501    0  0.00000000000E+00  0.00000000000E+00  0.56303821946E+03  0.56303821946E+03  0.00000000000E+00 0. -1.
         -1   -1    0    0    0  501 -0.00000000000E+00 -0.00000000000E+00 -0.13645353927E+03  0.13645353927E+03  0.00000000000E+00 0.  1.
         25    2    1    2    0    0 -0.12822481583E+02 -0.24842418686E+03  0.14809335796E+03  0.31536906594E+03  0.12508801871E+03 0.  0.
          5    1    3    3  502    0 -0.34514418291E+02 -0.71438135697E+02  0.10536716911E+03  0.13196349885E+03  0.41800000000E+01 0. -1.
         -5    1    3    3    0  502  0.21691936707E+02 -0.17698605116E+03  0.42726188849E+02  0.18340556709E+03  0.41800000000E+01 0. -1.
        -11    1    1    2    0    0  0.19967565982E+01  0.21754877374E+03  0.18673618361E+03  0.28670866444E+03  0.00000000000E+00 0.  1.
         11    1    1    2    0    0  0.10825724985E+02  0.30875413116E+02  0.91755138620E+02  0.97414028352E+02  0.00000000000E+00 0. -1.
</event>
<event>
 7    1  0.2810263E-009  0.1685114E+03  0.7561462E-02  0.1179409E+00
          1   -1    0    0  501    0  0.00000000000E+00  0.00000000000E+00  0.13277529539E+03  0.13277529539E+03  0.00000000000E+00 0. -1.
         -1   -1    0    0    0  501 -0.00000000000E+00 -0.00000000000E+00 -0.29920212872E+03  0.29920212872E+03  0.00000000000E+00 0.  1.
         25    2    1    2    0    0  0.16136224480E+03  0.19038462372E+02 -0.46739281132E+02  0.21031141808E+03  0.12508435184E+03 0.  0.
          5    1    3    3  502    0  0.44480826463E+02 -0.15181940920E+02 -0.71785012781E+02  0.85904573294E+02  0.41800000000E+01 0.  1.
         -5    1    3    3    0  502  0.11688141834E+03  0.34220403292E+02  0.25045731649E+02  0.12440684478E+03  0.41800000000E+01 0.  1.
        -11    1    1    2    0    0 -0.76850367805E+02 -0.30520361863E+02 -0.10732749234E+03  0.13548675999E+03  0.00000000000E+00 0.  1.
         11    1    1    2    0    0 -0.84511876998E+02  0.11481899491E+02 -0.12360059861E+02  0.86179246048E+02  0.00000000000E+00 0. -1.
</event>
<event>
 7    1  0.2810263E-009  0.1558003E+03  0.7561462E-02  0.1193521E+00
         -3   -1    0    0    0  501 -0.00000000000E+00  0.00000000000E+00  0.20702892684E+03  0.20702892684E+03  0.00000000000E+00 0.  1.
          3   -1    0    0  501    0  0.00000000000E+00 -0.00000000000E+00 -0.17518705481E+03  0.17518705481E+03  0.00000000000E+00 0. -1.
         25    2    1    2    0    0  0.12339856727E+03  0.97071671953E+01 -0.78977387574E+02  0.19288865185E+03  0.12508864363E+03 0.  0.
          5    1    3    3  502    0  0.13890653834E+03 -0.57042131575E+01 -0.34728762323E+02  0.14335663142E+03  0.41800000000E+01 0.  1.
         -5    1    3    3    0  502 -0.15507971068E+02  0.15411380353E+02 -0.44248625251E+02  0.49532020427E+02  0.41800000000E+01 0.  1.
        -11    1    1    2    0    0 -0.44636724632E+02 -0.45501995103E+02  0.66527058209E+02  0.92134240205E+02  0.00000000000E+00 0.  1.
         11    1    1    2    0    0 -0.78761842637E+02  0.35794827908E+02  0.44292201397E+02  0.97193089596E+02  0.00000000000E+00 0. -1.
</event>
<event>
 7    1  0.2810263E-009  0.1644727E+03  0.7561462E-02  0.1183738E+00
         -2   -1    0    0    0  501 -0.00000000000E+00  0.00000000000E+00  0.35668890115E+02  0.35668890115E+02  0.00000000000E+00 0.  1.
          2   -1    0    0  501    0  0.00000000000E+00 -0.00000000000E+00 -0.10868604675E+04  0.10868604675E+04  0.00000000000E+00 0. -1.
         25    2    1    2    0    0 -0.67957441573E+02  0.11567736544E+03 -0.81950739092E+03  0.83978538952E+03  0.12509064689E+03 0.  0.
          5    1    3    3  502    0 -0.96288353819E+02  0.72334443870E+02 -0.68644223003E+03  0.69693911241E+03  0.41800000000E+01 0.  1.
         -5    1    3    3    0  502  0.28330912246E+02  0.43342921570E+02 -0.13306516089E+03  0.14284627710E+03  0.41800000000E+01 0.  1.
        -11    1    1    2    0    0  0.71622754573E+02 -0.42622914975E+02 -0.86185648994E+02  0.11989369435E+03  0.00000000000E+00 0.  1.
         11    1    1    2    0    0 -0.36653129995E+01 -0.73054450464E+02 -0.14549853750E+03  0.16285027377E+03  0.00000000000E+00 0. -1.
</event>
<event>
 7    1  0.2810263E-009  0.1045050E+03  0.7561462E-02  0.1271098E+00
          2   -1    0    0  501    0  0.00000000000E+00  0.00000000000E+00  0.35770996256E+02  0.35770996256E+02  0.00000000000E+00 0. -1.
         -2   -1    0    0    0  501 -0.00000000000E+00 -0.00000000000E+00 -0.39139961645E+03  0.39139961645E+03  0.00000000000E+00 0.  1.
         25    2    1    2    0    0  0.22568547453E+02  0.29903742570E+02 -0.14453953970E+03  0.19478826368E+03  0.12508883235E+03 0.  0.
          5    1    3    3  502    0 -0.38995659211E+02 -0.21617568379E+02 -0.26689424101E+02  0.52132316837E+02  0.41800000000E+01 0. -1.
         -5    1    3    3    0  502  0.61564206664E+02  0.51521310948E+02 -0.11785011560E+03  0.14265594684E+03  0.41800000000E+01 0. -1.
        -11    1    1    2    0    0  0.93713544647E+01 -0.46784832347E+02 -0.58078895115E+02  0.75165157353E+02  0.00000000000E+00 0. -1.
         11    1    1    2    0    0 -0.31939901917E+02  0.16881089777E+02 -0.15301018538E+03  0.15721719167E+03  0.00000000000E+00 0.  1.
</event>
<event>
 7    1  0.2810263E-009  0.6613442E+02  0.7561462E-02  0.1373754E+00
         -1   -1    0    0    0  501 -0.00000000000E+00  0.00000000000E+00  0.49678292375E+02  0.49678292375E+02  0.00000000000E+00 0.  1.
          1   -1    0    0  501    0  0.00000000000E+00 -0.00000000000E+00 -0.25290531010E+03  0.25290531010E+03  0.00000000000E+00 0. -1.
         25    2    1    2    0    0  0.69943420297E+01  0.26733792231E+02 -0.12347863679E+03  0.17793476504E+03  0.12510072102E+03 0.  0.
          5    1    3    3  502    0  0.32921323770E+02  0.40304788082E+02 -0.13611644839E+03  0.14578562831E+03  0.41800000000E+01 0. -1.
         -5    1    3    3    0  502 -0.25926981740E+02 -0.13570995851E+02  0.12637811596E+02  0.32149136730E+02  0.41800000000E+01 0. -1.
        -11    1    1    2    0    0 -0.77217079676E+00 -0.37797646913E+02 -0.96494185860E+02  0.10363583485E+03  0.00000000000E+00 0. -1.
         11    1    1    2    0    0 -0.62221712329E+01  0.11063854682E+02  0.16745804922E+02  0.21013002588E+02  0.00000000000E+00 0.  1.
</event>
<event>
 7    1  0.2810263E-009  0.1465958E+03  0.7561462E-02  0.1204720E+00
         -2   -1    0    0    0  501 -0.00000000000E+00  0.00000000000E+00  0.43589086773E+02  0.43589086773E+02  0.00000000000E+00 0.  1.
          2   -1    0    0  501    0  0.00000000000E+00 -0.00000000000E+00 -0.60709433249E+03  0.60709433249E+03  0.00000000000E+00 0. -1.
         25    2    1    2    0    0  0.68509219230E+02 -0.94691265895E+02 -0.24039272183E+03  0.29512054234E+03  0.12509006695E+03 0.  0.
          5    1    3    3  502    0  0.84822453676E+02 -0.10251735557E+03 -0.24229040253E+03  0.27645391732E+03  0.41800000000E+01 0. -1.
         -5    1    3    3    0  502 -0.16313234446E+02  0.78260896781E+01  0.18976807052E+01  0.18666625024E+02  0.41800000000E+01 0. -1.
        -11    1    1    2    0    0 -0.46422482890E+02  0.10669690487E+03 -0.29851828584E+03  0.32039420002E+03  0.00000000000E+00 0.  1.
         11    1    1    2    0    0 -0.22086736340E+02 -0.12005638979E+02 -0.24594238050E+02  0.35168676898E+02  0.00000000000E+00 0. -1.
</event>
<event>
 7    1  0.2810263E-009  0.9864003E+02  0.7561462E-02  0.1283182E+00
          1   -1    0    0  501    0  0.00000000000E+00  0.00000000000E+00  0.20381920128E+02  0.20381920128E+02  0.00000000000E+00 0. -1.
         -1   -1    0    0    0  501 -0.00000000000E+00 -0.00000000000E+00 -0.72225110453E+03  0.72225110453E+03  0.00000000000E+00 0.  1.
         25    2    1    2    0    0 -0.15093203813E+02 -0.12885172934E+01 -0.44556997442E+03  0.46304465408E+03  0.12509310325E+03 0.  0.
          5    1    3    3  502    0 -0.39882741634E+01 -0.59135864403E+02 -0.30226739049E+03  0.30805195105E+03  0.41800000000E+01 0. -1.
         -5    1    3    3    0  502 -0.11104929649E+02  0.57847347109E+02 -0.14330258393E+03  0.15499270303E+03  0.41800000000E+01 0. -1.
        -11    1    1    2    0    0  0.12363530222E+02 -0.37726409173E+02 -0.22770497000E+03  0.23113998398E+03  0.00000000000E+00 0.  1.
         11    1    1    2    0    0  0.27296735913E+01  0.39014926466E+02 -0.28594239975E+02  0.48448386607E+02  0.00000000000E+00 0. -1.
</event>
<event>
 7    1  0.2810263E-009  0.2430724E+03  0.7561462E-02  0.1117763E+00
          2   -1    0    0  501    0  0.00000000000E+00  0.00000000000E+00  0.53544715782E+03  0.53544715782E+03  0.00000000000E+00 0. -1.
         -2   -1    0    0    0  501 -0.00000000000E+00 -0.00000000000E+00 -0.11984952739E+03  0.11984952739E+03  0.00000000000E+00 0.  1.
         25    2    1    2    0    0 -0.22437220432E+03 -0.24151270792E+02  0.17464159021E+03  0.31156533156E+03  0.12508837215E+03 0.  0.
          5    1    3    3  502    0 -0.66254952647E+02  0.45270705547E+02  0.28359835719E+02  0.85210962986E+02  0.41800000000E+01 0. -1.
         -5    1    3    3    0  502 -0.15811725167E+03 -0.69421976339E+02  0.14628175449E+03  0.22635436857E+03  0.41800000000E+01 0. -1.
        -11    1    1    2    0    0  0.15951650854E+03  0.43560642774E+02  0.21498606044E+03  0.27122325173E+03  0.00000000000E+00 0. -1.
         11    1    1    2    0    0  0.64855695783E+02 -0.19409371982E+02  0.25969979787E+02  0.72508101936E+02  0.00000000000E+00 0.  1.
</event>
<event>
 7    1  0.2810263E-009  0.1808223E+03  0.7561462E-02  0.1167010E+00
          2   -1    0    0  501    0  0.00000000000E+00  0.00000000000E+00  0.15744447139E+04  0.15744447139E+04  0.00000000000E+00 0. -1.
         -2   -1    0    0    0  501 -0.00000000000E+00 -0.00000000000E+00 -0.24235836746E+02  0.24235836746E+02  0.00000000000E+00 0.  1.
         25    2    1    2    0    0 -0.10761313817E+03 -0.12158798855E+03  0.74042604073E+03  0.76827238771E+03  0.12509002142E+03 0.  0.
          5    1    3    3  502    0 -0.52047656214E+01 -0.55904021171E+02  0.87173973627E+02  0.10377438627E+03  0.41800000000E+01 0.  1.
         -5    1    3    3    0  502 -0.10240837255E+03 -0.65683967383E+02  0.65325206711E+03  0.66449800144E+03  0.41800000000E+01 0.  1.
        -11    1    1    2    0    0  0.11838925558E+03  0.85739180566E+02  0.66357471649E+03  0.67948408906E+03  0.00000000000E+00 0.  1.
         11    1    1    2    0    0 -0.10776117403E+02  0.35848807988E+02  0.14620811988E+03  0.15092407382E+03  0.00000000000E+00 0. -1.
</event>
<event>
 7    1  0.2810263E-009  0.2465747E+03  0.7561462E-02  0.1115489E+00
          2   -1    0    0  501    0  0.00000000000E+00  0.00000000000E+00  0.82039202802E+03  0.82039202802E+03  0.00000000000E+00 0. -1.
         -2   -1    0    0    0  501 -0.00000000000E+00 -0.00000000000E+00 -0.81282884100E+02  0.81282884100E+02  0.00000000000E+00 0.  1.
         25    2    1    2    0    0 -0.15438181250E+03 -0.17490967226E+03  0.34744967400E+03  0.43680109247E+03  0.12508709344E+03 0.  0.
          5    1    3    3  502    0 -0.13056445996E+03 -0.18779775523E+03  0.33734547329E+03  0.40759602037E+03  0.41800000000E+01 0.  1.
         -5    1    3    3    0  502 -0.23817352534E+02  0.12888082972E+02  0.10104200707E+02  0.29205072100E+02  0.41800000000E+01 0.  1.
        -11    1    1    2    0    0  0.14085250016E+03  0.13601659248E+03  0.36934383855E+03  0.41803685401E+03  0.00000000000E+00 0.  1.
         11    1    1    2    0    0  0.13529312337E+02  0.38893079777E+02  0.22315631367E+02  0.46836965638E+02  0.00000000000E+00 0. -1.
</event>
<event>
 7    1  0.2810263E-009  0.1041329E+03  0.7561462E-02  0.1271838E+00
         -2   -1    0    0    0  501 -0.00000000000E+00  0.00000000000E+00  0.14209448735E+02  0.14209448735E+02  0.00000000000E+00 0.  1.
          2   -1    0    0  501    0  0.00000000000E+00 -0.00000000000E+00 -0.90580533801E+03  0.90580533801E+03  0.00000000000E+00 0. -1.
         25    2    1    2    0    0  0.17475934429E+02  0.23398710212E+02 -0.57726109096E+03  0.59138019321E+03  0.12508899976E+03 0.  0.
          5    1    3    3  502    0  0.16384238154E+02  0.70682652632E+02 -0.23908538486E+03  0.24988752329E+03  0.41800000000E+01 0. -1.
         -5    1    3    3    0  502  0.10916962748E+01 -0.47283942421E+02 -0.33817570610E+03  0.34149266991E+03  0.41800000000E+01 0. -1.
        -11    1    1    2    0    0 -0.14245850850E+02 -0.54758954020E+02 -0.25748407822E+03  0.26362765001E+03  0.00000000000E+00 0. -1.
         11    1    1    2    0    0 -0.32300835784E+01  0.31360243809E+02 -0.56850720100E+02  0.65006943533E+02  0.00000000000E+00 0.  1.
</event>
<event>
 7    1  0.2810263E-009  0.1188713E+03  0.7561462E-02  0.1244971E+00
         -1   -1    0    0    0  501 -0.00000000000E+00  0.00000000000E+00  0.38559484703E+02  0.38559484703E+02  0.00000000000E+00 0.  1.
          1   -1    0    0  501    0  0.00000000000E+00 -0.00000000000E+00 -0.42583775631E+03  0.42583775631E+03  0.00000000000E+00 0. -1.
         25    2    1    2    0    0 -0.35188895653E+02 -0.61412201386E+02 -0.23068863880E+03  0.27179468218E+03  0.12508151074E+03 0.  0.
          5    1    3    3  502    0 -0.71327254169E+02  0.96183816172E+00 -0.11098641494E+03  0.13199984477E+03  0.41800000000E+01 0.  1.
         -5    1    3    3    0  502  0.36138358515E+02 -0.62374039548E+02 -0.11970222387E+03  0.13979483740E+03  0.41800000000E+01 0.  1.
        -11    1    1    2    0    0 -0.29315656773E+01  0.55411247161E+02 -0.36381717054E+02  0.66352315145E+02  0.00000000000E+00 0.  1.
         11    1    1    2    0    0  0.38120461331E+02  0.60009542248E+01 -0.12020791575E+03  0.12625024369E+03  0.00000000000E+00 0. -1.
</event>
<event>
 7    1  0.2810263E-009  0.7019914E+02  0.7561462E-02  0.1359417E+00
         -1   -1    0    0    0  501 -0.00000000000E+00  0.00000000000E+00  0.28965851284E+02  0.28965851284E+02  0.00000000000E+00 0.  1.
          1   -1    0    0  501    0  0.00000000000E+00 -0.00000000000E+00 -0.52239421018E+03  0.52239421018E+03  0.00000000000E+00 0. -1.
         25    2    1    2    0    0 -0.52068362996E+02  0.23745568464E+02 -0.30506674791E+03  0.33464564661E+03  0.12508805566E+03 0.  0.
          5    1    3    3  502    0 -0.38741484223E+02 -0.10360636845E+02 -0.29315267583E+03  0.29591250251E+03  0.41800000000E+01 0. -1.
         -5    1    3    3    0  502 -0.13326878774E+02  0.34106205309E+02 -0.11914072077E+02  0.38733144100E+02  0.41800000000E+01 0. -1.
        -11    1    1    2    0    0  0.23956839722E+02  0.33367424249E+01  0.16545867349E+00  0.24188662552E+02  0.00000000000E+00 0.  1.
         11    1    1    2    0    0  0.28111523275E+02 -0.27082310889E+02 -0.18852706966E+03  0.19252575230E+03  0.00000000000E+00 0. -1.
</event>
<event>
 7    1  0.2810263E-009  0.1397802E+03  0.7561462E-02  0.1213625E+00
          2   -1    0    0  501    0  0.00000000000E+00  0.00000000000E+00  0.38176816528E+02  0.38176816528E+02  0.00000000000E+00 0. -1.
         -2   -1    0    0    0  501 -0.00000000000E+00 -0.00000000000E+00 -0.67979090928E+03  0.67979090928E+03  0.00000000000E+00 0.  1.
         25    2    1    2    0    0  0.80016525787E+02 -0.45132447894E+02 -0.17437351152E+03  0.23343603240E+03  0.12508667975E+03 0.  0.
          5    1    3    3  502    0 -0.27901287925E+02 -0.35379477712E+02 -0.66860444613E+02  0.80734012442E+02  0.41800000000E+01 0.  1.
         -5    1    3    3    0  502  0.10791781371E+03 -0.97529701818E+01 -0.10751306690E+03  0.15270201996E+03  0.41800000000E+01 0.  1.
        -11    1    1    2    0    0 -0.61822622135E+02  0.71064992086E+02 -0.30446994654E+03  0.31870710387E+03  0.00000000000E+00 0. -1.
         11    1    1    2    0    0 -0.18193903652E+02 -0.25932544193E+02 -0.16277063469E+03  0.16582458954E+03  0.00000000000E+00 0.  1.
</event>
<event>
 7    1  0.2810263E-009  0.1629950E+03  0.7561462E-02  0.1185356E+00
         -2   -1    0    0    0  501 -0.00000000000E+00  0.00000000000E+00  0.52208404624E+02  0.52208404624E+02  0.00000000000E+00 0.  1.
          2   -1    0    0  501    0  0.00000000000E+00 -0.00000000000E+00 -0.12171794727E+04  0.12171794727E+04  0.00000000000E+00 0. -1.
         25    2    1    2    0    0 -0.29212599745E+02 -0.13523780684E+03 -0.10543010011E+04  0.10706730885E+04  0.12509045185E+03 0.  0.
          5    1    3    3  502    0 -0.38186031262E+01 -0.13666343398E+03 -0.58960306322E+03  0.60526086977E+03  0.41800000000E+01 0.  1.
         -5    1    3    3    0  502 -0.25393996619E+02  0.14256271386E+01 -0.46469793785E+03  0.46541221870E+03  0.41800000000E+01 0.  1.
        -11    1    1    2    0    0 -0.31183198097E+02  0.51116181378E+02 -0.27481328995E+02  0.65882313906E+02  0.00000000000E+00 0.  1.
         11    1    1    2    0    0  0.60395797842E+02  0.84121625461E+02 -0.83188738003E+02  0.13283247494E+03  0.00000000000E+00 0. -1.
</event>
<event>
 7    1  0.2810263E-009  0.2346992E+03  0.7561462E-02  0.1123375E+00
         -1   -1    0    0    0  501 -0.00000000000E+00  0.00000000000E+00  0.21453244146E+03  0.21453244146E+03  0.00000000000E+00 0.  1.
          1   -1    0    0  501    0  0.00000000000E+00 -0.00000000000E+00 -0.43094784868E+03  0.43094784868E+03  0.00000000000E+00 0. -1.
         25    2    1    2    0    0  0.13205442824E+03 -0.17620681021E+03 -0.30169024542E+03  0.39389385221E+03  0.12509256830E+03 0.  0.
          5    1    3    3  502    0  0.39260428497E+02 -0.14595402659E+03 -0.21773165511E+03  0.26508207250E+03  0.41800000000E+01 0.  1.
         -5    1    3    3    0  502  0.92793999745E+02 -0.30252783618E+02 -0.83958590311E+02  0.12881177971E+03  0.41800000000E+01 0.  1.
        -11    1    1    2    0    0 -0.93098905087E+02  0.11507387972E+03  0.98640821984E+02  0.17787471907E+03  0.00000000000E+00 0.  1.
         11    1    1    2    0    0 -0.38955523156E+02  0.61132930489E+02 -0.13365983782E+02  0.73711718857E+02  0.00000000000E+00 0. -1.
</event>
<event>
 7    1  0.2810263E-009  0.1233427E+03  0.7561462E-02  0.1237682E+00
          4   -1    0    0  501    0  0.00000000000E+00  0.00000000000E+00  0.23016981681E+03  0.23016981681E+03  0.00000000000E+00 0. -1.
         -4   -1    0    0    0  501 -0.00000000000E+00 -0.00000000000E+00 -0.79850917133E+02  0.79850917133E+02  0.00000000000E+00 0.  1.
         25    2    1    2    0    0  0.33962482282E+02 -0.54674621448E+02  0.46282123143E+02  0.14808469159E+03  0.12507708234E+03 0.  0.
          5    1    3    3  502    0  0.41044425549E+02  0.24810272512E+02  0.48238683133E+02  0.68151576953E+02  0.41800000000E+01 0. -1.
         -5    1    3    3    0  502 -0.70819432666E+01 -0.79484893960E+02 -0.19565599895E+01  0.79933114635E+02  0.41800000000E+01 0. -1.
        -11    1    1    2    0    0  0.12581295238E+02  0.68841742766E+02  0.37164148820E+02  0.79237923335E+02  0.00000000000E+00 0.  1.
         11    1    1    2    0    0 -0.46543777520E+02 -0.14167121318E+02  0.66872627714E+02  0.82698119022E+02  0.00000000000E+00 0. -1.
</event>
<event>
 7    1  0.2810263E-009  0.1104811E+03  0.7561462E-02  0.1259682E+00
          1   -1    0    0  501    0  0.00000000000E+00  0.00000000000E+00  0.43834634072E+03  0.43834634072E+03  0.00000000000E+00 0. -1.
         -1   -1    0    0    0  501 -0.00000000000E+00 -0.00000000000E+00 -0.37066480073E+02  0.37066480073E+02  0.00000000000E+00 0.  1.
         25    2    1    2    0    0  0.37094163589E+02 -0.36320683213E+02  0.23437287624E+03  0.27068988261E+03  0.12508876220E+03 0.  0.
          5    1    3    3  502    0  0.68561717703E+01 -0.63389543006E+02  0.21723639269E+03  0.22643843305E+03  0.41800000000E+01 0.  1.
         -5    1    3    3    0  502  0.30237991818E+02  0.27068859793E+02  0.17136483554E+02  0.44251449562E+02  0.41800000000E+01 0.  1.
        -11    1    1    2    0    0  0.36588470318E+02  0.15175373003E+02  0.38896760127E+02  0.55515457797E+02  0.00000000000E+00 0. -1.
         11    1    1    2    0    0 -0.73682633907E+02  0.21145310209E+02  0.12801022427E+03  0.14920748038E+03  0.00000000000E+00 0.  1.
</event>
<event>
 7    1  0.2810263E-009  0.7052825E+02  0.7561462E-02  0.1358306E+00
         -1   -1    0    0    0  501 -0.00000000000E+00  0.00000000000E+00  0.17552132708E+03  0.17552132708E+03  0.00000000000E+00 0.  1.
          1   -1    0    0  501    0  0.00000000000E+00 -0.00000000000E+00 -0.83979662338E+02  0.83979662338E+02  0.00000000000E+00 0. -1.
         25    2    1    2    0    0 -0.26696589982E+02  0.26130430256E+02  0.96122995554E+02  0.16211903498E+03  0.12508974349E+03 0.  0.
          5    1    3    3  502    0 -0.38484773029E+02  0.28514708232E+02 -0.14925547670E+02  0.50342931121E+02  0.41800000000E+01 0.  1.
         -5    1    3    3    0  502  0.11788183047E+02 -0.23842779760E+01  0.11104854322E+03  0.11177610386E+03  0.41800000000E+01 0.  1.
        -11    1    1    2    0    0  0.10762374730E+02  0.24717161261E+02  0.24715386702E+02  0.36573448162E+02  0.00000000000E+00 0.  1.
         11    1    1    2    0    0  0.15934215252E+02 -0.50847591517E+02 -0.29296717515E+02  0.60808506279E+02  0.00000000000E+00 0. -1.
</event>
<event>
 7    1  0.2810263E-009  0.1257455E+03  0.7561462E-02  0.1233909E+00
         -2   -1    0    0    0  501 -0.00000000000E+00  0.00000000000E+00  0.19981271728E+02  0.19981271728E+02  0.00000000000E+00 0. -1.
          2   -1    0    0  501    0  0.00000000000E+00 -0.00000000000E+00 -0.80823919493E+03  0.80823919493E+03  0.00000000000E+00 0.  1.
         25    2    1    2    0    0  0.32683669271E+02  0.56486234172E+02 -0.38384829075E+03  0.40895542429E+03  0.12508441892E+03 0.  0.
          5    1    3    3  502    0 -0.20847484873E+02 -0.31498209229E+02 -0.10532426101E+03  0.11197065316E+03  0.41800000000E+01 0. -1.
         -5    1    3    3    0  502  0.53531154144E+02  0.87984443401E+02 -0.27852402973E+03  0.29698477113E+03  0.41800000000E+01 0. -1.
        -11    1    1    2    0    0  0.10833716219E+02  0.19810261202E+02 -0.72891218330E+02  0.76308227378E+02  0.00000000000E+00 0.  1.
         11    1    1    2    0    0 -0.43517385490E+02 -0.76296495374E+02 -0.33151841413E+03  0.34295681499E+03  0.00000000000E+00 0. -1.
</event>
<event>
 7    1  0.2810263E-009  0.1124485E+03  0.7561462E-02  0.1256102E+00
          1   -1    0    0  501    0  0.00000000000E+00  0.00000000000E+00  0.24039042774E+03  0.24039042774E+03  0.00000000000E+00 0. -1.
         -1   -1    0    0    0  501 -0.00000000000E+00 -0.00000000000E+00 -0.61425301949E+02  0.61425301949E+02  0.00000000000E+00 0.  1.
         25    2    1    2    0    0  0.47174690620E+02 -0.20534988868E+02  0.12894573366E+03  0.18687269969E+03  0.12508903413E+03 0.  0.
          5    1    3    3  502    0  0.48600065594E+02  0.39281782408E+02  0.10506112750E+03  0.12231245937E+03  0.41800000000E+01 0.  1.
         -5    1    3    3    0  502 -0.14253749736E+01 -0.59816771276E+02  0.23884606159E+02  0.64560240327E+02  0.41800000000E+01 0.  1.
        -11    1    1    2    0    0 -0.73531587141E+02  0.18670195070E+02  0.44490011707E+02  0.87947891578E+02  0.00000000000E+00 0. -1.
         11    1    1    2    0    0  0.26356896521E+02  0.18647937986E+01  0.55293804202E+01  0.26995138413E+02  0.00000000000E+00 0.  1.
</event>
<event>
 7    1  0.2810263E-009  0.1171354E+03  0.7561462E-02  0.1247899E+00
          2   -1    0    0  501    0  0.00000000000E+00  0.00000000000E+00  0.18259384027E+04  0.18259384027E+04  0.00000000000E+00 0. -1.
         -2   -1    0    0    0  501 -0.00000000000E+00 -0.00000000000E+00 -0.18694511686E+02  0.18694511686E+02  0.00000000000E+00 0.  1.
         25    2    1    2    0    0  0.26824407016E+02 -0.56134502594E+02  0.16278742272E+04  0.16338586875E+04  0.12509628211E+03 0.  0.
          5    1    3    3  502    0 -0.15910323209E+02  0.26811935917E+02  0.81999997343E+03  0.82060309962E+03  0.41800000000E+01 0. -1.
         -5    1    3    3    0  502  0.42734730225E+02 -0.82946438511E+02  0.80787425381E+03  0.81325558787E+03  0.41800000000E+01 0. -1.
        -11    1    1    2    0    0 -0.43658093629E+02 -0.68728263531E+01  0.88520739209E+02  0.98940316108E+02  0.00000000000E+00 0.  1.
         11    1    1    2    0    0  0.16833686613E+02  0.63007328947E+02  0.90848924554E+02  0.11183391077E+03  0.00000000000E+00 0. -1.
</event>
<event>
 7    1  0.2810263E-009  0.1906526E+03  0.7561462E-02  0.1157874E+00
          1   -1    0    0  501    0  0.00000000000E+00  0.00000000000E+00  0.18038268472E+04  0.18038268472E+04  0.00000000000E+00 0. -1.
         -1   -1    0    0    0  501 -0.00000000000E+00 -0.00000000000E+00 -0.21819690861E+02  0.21819690861E+02  0.00000000000E+00 0.  1.
         25    2    1    2    0    0 -0.13993808236E+03  0.91449000131E+02  0.92345578411E+03  0.94676434211E+03  0.12508616140E+03 0.  0.
          5    1    3    3  502    0 -0.12533261434E+02 -0.21242711223E+02  0.28266567210E+03  0.28377048825E+03  0.41800000000E+01 0.  1.
         -5    1    3    3    0  502 -0.12740482092E+03  0.11269171135E+03  0.64079011201E+03  0.66299385386E+03  0.41800000000E+01 0.  1.
        -11    1    1    2    0    0  0.20081141430E+02 -0.58487312124E+02  0.34518556355E+03  0.35068089655E+03  0.00000000000E+00 0. -1.
         11    1    1    2    0    0  0.11985694093E+03 -0.32961688007E+02  0.51336580869E+03  0.52820129940E+03  0.00000000000E+00 0.  1.
</event>
<event>
 7    1  0.2810263E-009  0.3544141E+03  0.7561462E-02  0.1060818E+00
          1   -1    0    0  501    0  0.00000000000E+00  0.00000000000E+00  0.61073828799E+03  0.61073828799E+03  0.00000000000E+00 0. -1.
         -1   -1    0    0    0  501 -0.00000000000E+00 -0.00000000000E+00 -0.21901481548E+03  0.21901481548E+03  0.00000000000E+00 0.  1.
         25    2    1    2    0    0 -0.28486315145E+03 -0.19931044973E+03  0.23462387334E+03  0.43768448062E+03  0.12509065596E+03 0.  0.
          5    1    3    3  502    0 -0.19702328966E+03 -0.93291188620E+02  0.19950207536E+03  0.29553337039E+03  0.41800000000E+01 0.  1.
         -5    1    3    3    0  502 -0.87839861796E+02 -0.10601926111E+03  0.35121797985E+02  0.14215111023E+03  0.41800000000E+01 0.  1.
        -11    1    1    2    0    0  0.15505781336E+03  0.71029447141E+02  0.39831570856E+02  0.17514183362E+03  0.00000000000E+00 0.  1.
         11    1    1    2    0    0  0.12980533809E+03  0.12828100259E+03  0.11726802832E+03  0.21692678923E+03  0.00000000000E+00 0. -1.
</event>
<event>
 7    1  0.2810263E-009  0.1420943E+03  0.7561462E-02  0.1210538E+00
         -2   -1    0    0    0  501 -0.00000000000E+00  0.00000000000E+00  0.37139201631E+02  0.37139201631E+02  0.00000000000E+00 0.  1.
          2   -1    0    0  501    0  0.00000000000E+00 -0.00000000000E+00 -0.61956081678E+03  0.61956081678E+03  0.00000000000E+00 0. -1.
         25    2    1    2    0    0 -0.52052041141E+02  0.79500233259E+02 -0.33857221919E+03  0.37323948315E+03  0.12508741785E+03 0.  0.
          5    1    3    3  502    0 -0.18788412383E+02 -0.32770910042E+02 -0.59936462604E+02  0.70970338412E+02  0.41800000000E+01 0.  1.
         -5    1    3    3    0  502 -0.33263628758E+02  0.11227114330E+03 -0.27863575658E+03  0.30226914474E+03  0.41800000000E+01 0.  1.
        -11    1    1    2    0    0  0.75532973242E+02 -0.72031841970E+02 -0.23524781241E+03  0.25736229240E+03  0.00000000000E+00 0. -1.
         11    1    1    2    0    0 -0.23480932102E+02 -0.74683912885E+01 -0.86015835523E+01  0.26098242861E+02  0.00000000000E+00 0.  1.
</event>
<event>
 7    1  0.2810263E-009  0.1172555E+03  0.7561462E-02  0.1247694E+00
          4   -1    0    0  501    0  0.00000000000E+00  0.00000000000E+00  0.76971626353E+02  0.76971626353E+02  0.00000000000E+00 0. -1.
         -4   -1    0    0    0  501 -0.00000000000E+00 -0.00000000000E+00 -0.19994525544E+03  0.19994525544E+03  0.00000000000E+00 0.  1.
         25    2    1    2    0    0 -0.58011801106E+02 -0.41225330630E+02 -0.68935210958E+02  0.15956852253E+03  0.12508058650E+03 0.  0.
          5    1    3    3  502    0  0.31287757959E+02  0.10976884872E+01  0.98835834435E+01  0.33095110512E+02  0.41800000000E+01 0.  1.
         -5    1    3    3    0  502 -0.89299559065E+02 -0.42323019117E+02 -0.78818794402E+02  0.12647341202E+03  0.41800000000E+01 0.  1.
        -11    1    1    2    0    0  0.70516107344E+02  0.51915371564E+02 -0.43145661328E+02  0.97618007002E+02  0.00000000000E+00 0.  1.
         11    1    1    2    0    0 -0.12504306238E+02 -0.10690040935E+02 -0.10892756802E+02  0.19730352263E+02  0.00000000000E+00 0. -1.
</event>
<event>
 7    1  0.2810263E-009  0.1511718E+03  0.7561462E-02  0.1199041E+00
         -1   -1    0    0    0  501 -0.00000000000E+00  0.00000000000E+00  0.81346939186E+03  0.81346939186E+03  0.00000000000E+00 0.  1.
          1   -1    0    0  501    0  0.00000000000E+00 -0.00000000000E+00 -0.36737984941E+02  0.36737984941E+02  0.00000000000E+00 0. -1.
         25    2    1    2    0    0 -0.92517119659E+02  0.74610233056E+02  0.25984110752E+03  0.31191596437E+03  0.12509221946E+03 0.  0.
          5    1    3    3  502    0 -0.24480710992E+02 -0.22522302374E+02  0.94553171173E+01  0.34834390144E+02  0.41800000000E+01 0. -1.
         -5    1    3    3    0  502 -0.68036408666E+02  0.97132535430E+02  0.25038579040E+03  0.27708157423E+03  0.41800000000E+01 0. -1.
        -11    1    1    2    0    0 -0.34205083201E+01  0.17096046143E+02  0.67246252466E+02  0.69469656265E+02  0.00000000000E+00 0. -1.
         11    1    1    2    0    0  0.95937627979E+02 -0.91706279199E+02  0.44964404694E+03  0.46882175616E+03  0.00000000000E+00 0.  1.
</event>
<event>
 7    1  0.2810263E-009  0.1332958E+03  0.7561462E-02  0.1222646E+00
         -2   -1    0    0    0  501 -0.00000000000E+00  0.00000000000E+00  0.11923431770E+02  0.11923431770E+02  0.00000000000E+00 0.  1.
          2   -1    0    0  501    0  0.00000000000E+00 -0.00000000000E+00 -0.22856205613E+04  0.22856205613E+04  0.00000000000E+00 0. -1.
         25    2    1    2    0    0 -0.13457852537E+02 -0.98492622150E+02 -0.17365774337E+04  0.17439125350E+04  0.12509131069E+03 0.  0.
          5    1    3    3  502    0  0.34338607922E+02 -0.76140639017E+02 -0.56662325976E+03  0.57276166754E+03  0.41800000000E+01 0. -1.
         -5    1    3    3    0  502 -0.47796460459E+02 -0.22351983134E+02 -0.11699541739E+04  0.11711508674E+04  0.41800000000E+01 0. -1.
        -11    1    1    2    0    0  0.48050468244E+02  0.42154717831E+02 -0.19584756534E+03  0.20601489408E+03  0.00000000000E+00 0. -1.
         11    1    1    2    0    0 -0.34592615707E+02  0.56337904320E+02 -0.34127213054E+03  0.34761656406E+03  0.00000000000E+00 0.  1.
</event>
<event>
 7    1  0.2810263E-009  0.1027642E+03  0.7561462E-02  0.1274588E+00
          1   -1    0    0  501    0  0.00000000000E+00  0.00000000000E+00  0.47301237998E+03  0.47301237998E+03  0.00000000000E+00 0. -1.
         -1   -1    0    0    0  501 -0.00000000000E+00 -0.00000000000E+00 -0.70184320740E+02  0.70184320740E+02  0.00000000000E+00 0.  1.
         25    2    1    2    0    0  0.43698108956E+01  0.30695779278E+02  0.42007141972E+03  0.43939650608E+03  0.12509182937E+03 0.  0.
          5    1    3    3  502    0  0.50646550208E+02  0.28009295590E+02  0.35312598883E+03  0.35786174715E+03  0.41800000000E+01 0.  1.
         -5    1    3    3    0  502 -0.46276739313E+02  0.26864836882E+01  0.66945430896E+02  0.81534758930E+02  0.41800000000E+01 0.  1.
        -11    1    1    2    0    0 -0.28023072504E+02 -0.58253046673E+02 -0.27586692401E+01  0.64701779691E+02  0.00000000000E+00 0. -1.
         11    1    1    2    0    0  0.23653261608E+02  0.27557267395E+02 -0.14484691244E+02  0.39098414947E+02  0.00000000000E+00 0.  1.
</event>
<event>
 7    1  0.2810263E-009  0.2841106E+03  0.7561462E-02  0.1093465E+00
         -2   -1    0    0    0  501 -0.00000000000E+00  0.00000000000E+00  0.13767615960E+03  0.13767615960E+03  0.00000000000E+00 0.  1.
          2   -1    0    0  501    0  0.00000000000E+00 -0.00000000000E+00 -0.61590132777E+03  0.61590132777E+03  0.00000000000E+00 0. -1.
         25    2    1    2    0    0 -0.23204371415E+03 -0.13785736843E+03 -0.24494961803E+03  0.38535378694E+03  0.12509311102E+03 0.  0.
          5    1    3    3  502    0 -0.88745672351E+02 -0.44070770016E+01 -0.13225721384E+03  0.15938839262E+03  0.41800000000E+01 0.  1.
         -5    1    3    3    0  502 -0.14329804180E+03 -0.13345029143E+03 -0.11269240419E+03  0.22596539432E+03  0.41800000000E+01 0.  1.
        -11    1    1    2    0    0  0.20358375605E+03  0.79638625004E+02 -0.19513774429E+03  0.29303139007E+03  0.00000000000E+00 0. -1.
         11    1    1    2    0    0  0.28459958098E+02  0.58218743430E+02 -0.38137805853E+02  0.75192310357E+02  0.00000000000E+00 0.  1.
</event>
<event>
 7    1  0.2810263E-009  0.1177450E+03  0.7561462E-02  0.1246864E+00
          1   -1    0    0  501    0  0.00000000000E+00  0.00000000000E+00  0.24141014983E+03  0.24141014983E+03  0.00000000000E+00 0. -1.
         -1   -1    0    0    0  501 -0.00000000000E+00 -0.00000000000E+00 -0.73238030348E+02  0.73238030348E+02  0.00000000000E+00 0.  1.
         25    2    1    2    0    0 -0.58962527572E+02  0.14724864043E+02  0.36655235607E+02  0.14381980374E+03  0.12508848217E+03 0.  0.
          5    1    3    3  502    0 -0.95805076365E+02 -0.68713553805E+01  0.24260033624E+02  0.99155684726E+02  0.41800000000E+01 0. -1.
         -5    1    3    3    0  502  0.36842548792E+02  0.21596219423E+02  0.12395201983E+02  0.44664119012E+02  0.41800000000E+01 0. -1.
        -11    1    1    2    0    0  0.48876870443E+02 -0.43820386329E+02  0.12209864396E+03  0.13862630911E+03  0.00000000000E+00 0.  1.
         11    1    1    2    0    0  0.10085657130E+02  0.29095522286E+02  0.94182399154E+01  0.32202067324E+02  0.00000000000E+00 0. -1.
</event>
<event>
 7    1  0.2810263E-009  0.1051698E+03  0.7561462E-02  0.1269785E+00
          2   -1    0    0  501    0  0.00000000000E+00  0.00000000000E+00  0.25052251314E+03  0.25052251314E+03  0.00000000000E+00 0. -1.
         -2   -1    0    0    0  501 -0.00000000000E+00 -0.00000000000E+00 -0.53624199587E+02  0.53624199587E+02  0.00000000000E+00 0.  1.
         25    2    1    2    0    0  0.27492065440E+01  0.32626436352E+02  0.14955846860E+03  0.19770634354E+03  0.12509204716E+03 0.  0.
          5    1    3    3  502    0 -0.17102893318E+02 -0.44499311837E+02  0.72065093047E+02  0.86507501118E+02  0.41800000000E+01 0.  1.
         -5    1    3    3    0  502  0.19852099862E+02  0.77125748189E+02  0.77493375551E+02  0.11119884243E+03  0.41800000000E+01 0.  1.
        -11    1    1    2    0    0  0.34133520383E+02 -0.99885156019E+00  0.46695729821E+02  0.57849685408E+02  0.00000000000E+00 0. -1.
         11    1    1    2    0    0 -0.36882726927E+02 -0.31627584791E+02  0.64411513281E+00  0.48590683774E+02  0.00000000000E+00 0.  1.
</event>
<event>
 7    1  0.2810263E-009  0.9017316E+02  0.7561462E-02  0.1302433E+00
          2   -1    0    0  501    0  0.00000000000E+00  0.00000000000E+00  0.15275493136E+03  0.15275493136E+03  0.00000000000E+00 0. -1.
         -2   -1    0    0    0  501 -0.00000000000E+00 -0.00000000000E+00 -0.12852644406E+03  0.12852644406E+03  0.00000000000E+00 0.  1.
         25    2    1    2    0    0 -0.70757971195E+02  0.21170111331E+02 -0.35208963029E+02  0.14947176010E+03  0.12508905583E+03 0.  0.
          5    1    3    3  502    0 -0.57297582701E+02  0.43080678010E+02 -0.73761031498E+02  0.10294231379E+03  0.41800000000E+01 0. -1.
         -5    1    3    3    0  502 -0.13460388494E+02 -0.21910566679E+02  0.38552068469E+02  0.46529446309E+02  0.41800000000E+01 0. -1.
        -11    1    1    2    0    0  0.60138648885E+02 -0.15296142107E+01 -0.80780152242E+01  0.60698032417E+02  0.00000000000E+00 0.  1.
         11    1    1    2    0    0  0.10619322310E+02 -0.19640497120E+02  0.67515465555E+02  0.71111582900E+02  0.00000000000E+00 0. -1.
</event>
<event>
 7    1  0.2810263E-009  0.9595059E+02  0.7561462E-02  0.1289049E+00
          2   -1    0    0  501    0  0.00000000000E+00  0.00000000000E+00  0.10338455934E+04  0.10338455934E+04  0.00000000000E+00 0. -1.
         -2   -1    0    0    0  501 -0.00000000000E+00 -0.00000000000E+00 -0.13934325780E+02  0.13934325780E+02  0.00000000000E+00 0.  1.
         25    2    1    2    0    0  0.21456079640E+02  0.35604783909E+02  0.63258969803E+03  0.64617742706E+03  0.12508987647E+03 0.  0.
          5    1    3    3  502    0  0.13996256188E+02  0.63259841654E+02  0.15956309018E+03  0.17226594237E+03  0.41800000000E+01 0.  1.
         -5    1    3    3    0  502  0.74598234521E+01 -0.27655057746E+02  0.47302660785E+03  0.47391148469E+03  0.41800000000E+01 0.  1.
        -11    1    1    2    0    0 -0.54445552011E+02 -0.80317180735E+01  0.29045155479E+03  0.29561957362E+03  0.00000000000E+00 0.  1.
         11    1    1    2    0    0  0.32989472372E+02 -0.27573065835E+02  0.96870014844E+02  0.10598291854E+03  0.00000000000E+00 0. -1.
</event>
<event>
 7    1  0.2810263E-009  0.2850901E+03  0.7561462E-02  0.1092941E+00
          1   -1    0    0  501    0  0.00000000000E+00  0.00000000000E+00  0.10659925321E+04  0.10659925321E+04  0.00000000000E+00 0. -1.
         -1   -1    0    0    0  501 -0.00000000000E+00 -0.00000000000E+00 -0.90158316461E+02  0.90158316461E+02  0.00000000000E+00 0.  1.
         25    2    1    2    0    0  0.25539485864E+03 -0.12341477114E+03  0.38719932128E+03  0.49601266615E+03  0.12509001170E+03 0.  0.
          5    1    3    3  502    0  0.47382008958E+02 -0.40535556032E+02  0.19476775119E+02  0.65459936180E+02  0.41800000000E+01 0. -1.
         -5    1    3    3    0  502  0.20801284969E+03 -0.82879215109E+02  0.36772254616E+03  0.43055272997E+03  0.41800000000E+01 0. -1.
        -11    1    1    2    0    0 -0.17239382327E+03  0.86779114739E+02  0.48726633341E+03  0.52409801061E+03  0.00000000000E+00 0. -1.
         11    1    1    2    0    0 -0.83001035374E+02  0.36635656401E+02  0.10136856096E+03  0.13604017180E+03  0.00000000000E+00 0.  1.
</event>
<event>
 7    1  0.2810263E-009  0.1218266E+03  0.7561462E-02  0.1240114E+00
         -4   -1    0    0    0  501 -0.00000000000E+00  0.00000000000E+00  0.23220332512E+03  0.23220332512E+03  0.00000000000E+00 0.  1.
          4   -1    0    0  501    0  0.00000000000E+00 -0.00000000000E+00 -0.68913285730E+02  0.68913285730E+02  0.00000000000E+00 0. -1.
         25    2    1    2    0    0 -0.58624237758E+02 -0.24750154979E+02  0.70248111794E+02  0.15694502052E+03  0.12509025075E+03 0.  0.
          5    1    3    3  502    0 -0.73851759996E+01  0.49048867252E+02  0.18011325517E+02  0.52935927782E+02  0.41800000000E+01 0.  1.
         -5    1    3    3    0  502 -0.51239061758E+02 -0.73799022232E+02  0.52236786278E+02  0.10400909274E+03  0.41800000000E+01 0.  1.
        -11    1    1    2    0    0  0.13204283849E+02  0.50175315456E+02  0.70289040007E+02  0.87363977349E+02  0.00000000000E+00 0.  1.
         11    1    1    2    0    0  0.45419953909E+02 -0.25425160477E+02  0.22752887586E+02  0.56807612975E+02  0.00000000000E+00 0. -1.
</event>
<event>
 7    1  0.2810263E-009  0.2083987E+03  0.7561462E-02  0.1142840E+00
         -2   -1    0    0    0  501 -0.00000000000E+00  0.00000000000E+00  0.44874065192E+02  0.44874065192E+02  0.00000000000E+00 0.  1.
          2   -1    0    0  501    0  0.00000000000E+00 -0.00000000000E+00 -0.10520108172E+04  0.10520108172E+04  0.00000000000E+00 0. -1.
         25    2    1    2    0    0  0.15831619917E+03  0.99248480928E+02 -0.57776389479E+03  0.61997526134E+03  0.12507568374E+03 0.  0.
          5    1    3    3  502    0 -0.21181079644E+01  0.52301810817E+02 -0.88269724456E+02  0.10270823945E+03  0.41800000000E+01 0. -1.
         -5    1    3    3    0  502  0.16043430713E+03  0.46946670111E+02 -0.48949417033E+03  0.51726702188E+03  0.41800000000E+01 0. -1.
        -11    1    1    2    0    0 -0.12946256921E+03 -0.47648763306E+02 -0.36134304209E+03  0.38678127609E+03  0.00000000000E+00 0. -1.
         11    1    1    2    0    0 -0.28853629961E+02 -0.51599717622E+02 -0.68029815173E+02  0.90128345004E+02  0.00000000000E+00 0.  1.
</event>
<event>
 7    1  0.2810263E-009  0.1060976E+03  0.7561462E-02  0.1267972E+00
         -2   -1    0    0    0  501 -0.00000000000E+00  0.00000000000E+00  0.55700217703E+02  0.55700217703E+02  0.00000000000E+00 0.  1.
          2   -1    0    0  501    0  0.00000000000E+00 -0.00000000000E+00 -0.31487812967E+03  0.31487812967E+03  0.00000000000E+00 0. -1.
         25    2    1    2    0    0 -0.27875694398E+02  0.67310073780E+02 -0.10994994055E+03  0.18178163817E+03  0.12509146325E+03 0.  0.
          5    1    3    3  502    0  0.32608070843E+01  0.89937513264E+02 -0.11111179345E+03  0.14304786681E+03  0.41800000000E+01 0.  1.
         -5    1    3    3    0  502 -0.31136501482E+02 -0.22627439484E+02  0.11618528946E+01  0.38733771367E+02  0.41800000000E+01 0.  1.
        -11    1    1    2    0    0  0.38539106997E+02 -0.51836690436E+02 -0.35856232055E+02  0.73878106504E+02  0.00000000000E+00 0.  1.
         11    1    1    2    0    0 -0.10663412599E+02 -0.15473383344E+02 -0.11337173936E+03  0.11491860270E+03  0.00000000000E+00 0. -1.
</event>
<event>
 7    1  0.2810263E-009  0.1159858E+03  0.7561462E-02  0.1249870E+00
          1   -1    0    0  501    0  0.00000000000E+00  0.00000000000E+00  0.12231555734E+04  0.12231555734E+04  0.00000000000E+00 0. -1.
         -1   -1    0    0    0  501 -0.00000000000E+00 -0.00000000000E+00 -0.13516334658E+02  0.13516334658E+02  0.00000000000E+00 0.  1.
         25    2    1    2    0    0  0.60088213883E+02  0.11765654023E+02  0.81133013073E+03  0.82319686845E+03  0.12508988421E+03 0.  0.
          5    1    3    3  502    0  0.51982996218E+02 -0.43129087731E+02  0.24613693406E+03  0.25527086166E+03  0.41800000000E+01 0.  1.
         -5    1    3    3    0  502  0.81052176657E+01  0.54894741754E+02  0.56519319667E+03  0.56792600679E+03  0.41800000000E+01 0.  1.
        -11    1    1    2    0    0 -0.20480234125E+02 -0.49732399385E+02  0.15531870650E+03  0.16436743026E+03  0.00000000000E+00 0. -1.
         11    1    1    2    0    0 -0.39607979758E+02  0.37966745362E+02  0.24299040154E+03  0.24910760939E+03  0.00000000000E+00 0.  1.
</event>
<event>
 7    1  0.2810263E-009  0.1304795E+03  0.7561462E-02  0.1226746E+00
         -3   -1    0    0    0  501 -0.00000000000E+00  0.00000000000E+00  0.74411085535E+02  0.74411085535E+02  0.00000000000E+00 0.  1.
          3   -1    0    0  501    0  0.00000000000E+00 -0.00000000000E+00 -0.34379609668E+03  0.34379609668E+03  0.00000000000E+00 0. -1.
         25    2    1    2    0    0  0.91973807105E+00  0.10804438893E+03 -0.85827775602E+02  0.18624802535E+03  0.12508990361E+03 0.  0.
          5    1    3    3  502    0 -0.44201901397E+02  0.75072450541E+02 -0.95548519742E+02  0.12937029389E+03  0.41800000000E+01 0. -1.
         -5    1    3    3    0  502  0.45121639468E+02  0.32971938388E+02  0.97207441406E+01  0.56877731460E+02  0.41800000000E+01 0. -1.
        -11    1    1    2    0    0 -0.23078790781E+02 -0.40517580113E+02 -0.14238268621E+03  0.14982367708E+03  0.00000000000E+00 0. -1.
         11    1    1    2    0    0  0.22159052710E+02 -0.67526808816E+02 -0.41174549334E+02  0.82135479780E+02  0.00000000000E+00 0.  1.
</event>
<event>
 7    1  0.2810263E-009  0.1225300E+03  0.7561462E-02  0.1238981E+00
          1   -1    0    0  501    0  0.00000000000E+00  0.00000000000E+00  0.20096052693E+03  0.20096052693E+03  0.00000000000E+00 0. -1.
         -1   -1    0    0    0  501 -0.00000000000E+00 -0.00000000000E+00 -0.13557683458E+03  0.13557683458E+03  0.00000000000E+00 0.  1.
         25    2    1    2    0    0  0.65780088899E+02 -0.58752471989E+01 -0.72219238361E+02  0.15882396552E+03  0.12509154651E+03 0.  0.
          5    1    3    3  502    0 -0.28072750840E+02  0.20524306290E+02 -0.45927974326E+02  0.57759654726E+02  0.41800000000E+01 0.  1.
         -5    1    3    3    0  502  0.93852839739E+02 -0.26399553489E+02 -0.26291264035E+02  0.10106431079E+03  0.41800000000E+01 0.  1.
        -11    1    1    2    0    0  0.23006670589E+02 -0.30818540537E+01  0.27386569369E+02  0.35900263200E+02  0.00000000000E+00 0.  1.
         11    1    1    2    0    0 -0.88786759488E+02  0.89571012526E+01  0.11021636134E+03  0.14181313279E+03  0.00000000000E+00 0. -1.
</event>
<event>
 7    1  0.2810263E-009  0.9254356E+02  0.7561462E-02  0.1296806E+00
          1   -1    0    0  501    0  0.00000000000E+00  0.00000000000E+00  0.48030543548E+03  0.48030543548E+03  0.00000000000E+00 0. -1.
         -1   -1    0    0    0  501 -0.00000000000E+00 -0.00000000000E+00 -0.35996305033E+02  0.35996305033E+02  0.00000000000E+00 0.  1.
         25    2    1    2    0    0 -0.57052948521E+02  0.36724881315E+02  0.18524659535E+03  0.23359739669E+03  0.12509071433E+03 0.  0.
          5    1    3    3  502    0 -0.46323224679E+02  0.56713756648E+01  0.19380582092E+03  0.19938950390E+03  0.41800000000E+01 0. -1.
         -5    1    3    3    0  502 -0.10729723842E+02  0.31053505650E+02 -0.85592255668E+01  0.34207892791E+02  0.41800000000E+01 0. -1.
        -11    1    1    2    0    0  0.42735725351E+02  0.19585127007E+02  0.16988522696E+03  0.17626942378E+03  0.00000000000E+00 0. -1.
         11    1    1    2    0    0  0.14317223171E+02 -0.56310008321E+02  0.89177308144E+02  0.10643492004E+03  0.00000000000E+00 0.  1.
</event>
<event>
 7    1  0.2810263E-009  0.9312293E+02  0.7561462E-02  0.1295461E+00
         -2   -1    0    0    0  501 -0.00000000000E+00  0.00000000000E+00  0.51543511255E+02  0.51543511255E+02  0.00000000000E+00 0.  1.
          2   -1    0    0  501    0  0.00000000000E+00 -0.00000000000E+00 -0.35348736815E+03  0.35348736815E+03  0.00000000000E+00 0. -1.
         25    2    1    2    0    0  0.22891137555E+02  0.76009433222E+02 -0.17164304317E+03  0.22673814022E+03  0.12508961526E+03 0.  0.
          5    1    3    3  502    0  0.12675319825E+02  0.15155155423E+02 -0.16305116311E+03  0.16429697702E+03  0.41800000000E+01 0.  1.
         -5    1    3    3    0  502  0.10215817730E+02  0.60854277799E+02 -0.85918800603E+01  0.62441163196E+02  0.41800000000E+01 0.  1.
        -11    1    1    2    0    0 -0.37731640916E+02 -0.13684154819E+02 -0.99328591463E+02  0.10713123681E+03  0.00000000000E+00 0. -1.
         11    1    1    2    0    0  0.14840503361E+02 -0.62325278402E+02 -0.30972222268E+02  0.71161502374E+02  0.00000000000E+00 0.  1.
</event>
<event>
 7    1  0.3366051E-009  0.1097734E+03  0.7561462E-02  0.1260990E+00
          2   -1    0    0  501    0  0.00000000000E+00  0.00000000000E+00  0.12661876799E+03  0.12661876799E+03  0.00000000000E+00 0. -1.
         -2   -1    0    0    0  501 -0.00000000000E+00 -0.00000000000E+00 -0.12822824468E+03  0.12822824468E+03  0.00000000000E+00 0.  1.
         25    2    1    2    0    0 -0.40376001810E+02  0.51066682130E+02 -0.16788842717E+02  0.14201156831E+03  0.12508953892E+03 0.  0.
          5    1    3    3  502    0  0.22784053666E+02  0.58476208396E+02 -0.39596180924E+02  0.74323011199E+02  0.41800000000E+01 0.  1.
         -5    1    3    3    0  502 -0.63160055476E+02 -0.74095262664E+01  0.22807338208E+02  0.67688557108E+02  0.41800000000E+01 0.  1.
        -11    1    1    2    0    0 -0.22559341556E+01 -0.50228318312E+02  0.39326972315E+02  0.63832467843E+02  0.00000000000E+00 0. -1.
         11    1    1    2    0    0  0.42631935965E+02 -0.83836381749E+00 -0.24147606293E+02  0.49002976519E+02  0.00000000000E+00 0.  1.
</event>
<event>
 7    1  0.2810263E-009  0.1372343E+03  0.7561462E-02  0.1217100E+00
         -2   -1    0    0    0  501 -0.00000000000E+00  0.00000000000E+00  0.25920246773E+02  0.25920246773E+02  0.00000000000E+00 0.  1.
          2   -1    0    0  501    0  0.00000000000E+00 -0.00000000000E+00 -0.10836257832E+04  0.10836257832E+04  0.00000000000E+00 0. -1.
         25    2    1    2    0    0  0.17247353765E+02 -0.11940605813E+03 -0.43580901782E+03  0.46918217713E+03  0.12508851823E+03 0.  0.
          5    1    3    3  502    0 -0.93172410128E+01 -0.34718098285E+02 -0.15134455560E+02  0.39226030563E+02  0.41800000000E+01 0. -1.
         -5    1    3    3    0  502  0.26564594778E+02 -0.84687959845E+02 -0.42067456226E+03  0.42995614657E+03  0.41800000000E+01 0. -1.
        -11    1    1    2    0    0  0.32326738681E+02  0.19127836846E+02 -0.22028305890E+03  0.22346256558E+03  0.00000000000E+00 0. -1.
         11    1    1    2    0    0 -0.49574092447E+02  0.10027822128E+03 -0.40161345972E+03  0.41690128728E+03  0.00000000000E+00 0.  1.
</event>
<event>
 7    1  0.2810263E-009  0.1158124E+03  0.7561462E-02  0.1250170E+00
         -2   -1    0    0    0  501 -0.00000000000E+00  0.00000000000E+00  0.54410531981E+02  0.54410531981E+02  0.00000000000E+00 0.  1.
          2   -1    0    0  501    0  0.00000000000E+00 -0.00000000000E+00 -0.31889442337E+03  0.31889442337E+03  0.00000000000E+00 0. -1.
         25    2    1    2    0    0 -0.54131730014E+02 -0.35186112883E+02 -0.20919981184E+03  0.25215471029E+03  0.12509648243E+03 0.  0.
          5    1    3    3  502    0  0.33046535100E+02 -0.89723711473E+01 -0.11913257426E+03  0.12402668896E+03  0.41800000000E+01 0.  1.
         -5    1    3    3    0  502 -0.87178265115E+02 -0.26213741736E+02 -0.90067237579E+02  0.12812802133E+03  0.41800000000E+01 0.  1.
        -11    1    1    2    0    0  0.75490668853E+02  0.37894211480E+02 -0.34552922906E+02  0.91261803778E+02  0.00000000000E+00 0.  1.
         11    1    1    2    0    0 -0.21358938838E+02 -0.27080985971E+01 -0.20731156642E+02  0.29888441278E+02  0.00000000000E+00 0. -1.
</event>
<event>
 7    1  0.2810263E-009  0.1118878E+03  0.7561462E-02  0.1257113E+00
         -2   -1    0    0    0  501 -0.00000000000E+00  0.00000000000E+00  0.35453803488E+02  0.35453803488E+02  0.00000000000E+00 0.  1.
          2   -1    0    0  501    0  0.00000000000E+00 -0.00000000000E+00 -0.42694981994E+03  0.42694981994E+03  0.00000000000E+00 0. -1.
         25    2    1    2    0    0 -0.34954854893E+02  0.14162919498E+02 -0.30260546618E+03  0.32960598819E+03  0.12509040379E+03 0.  0.
          5    1    3    3  502    0 -0.15278169229E+02  0.67936471985E+02 -0.20283784733E+03  0.21449813843E+03  0.41800000000E+01 0.  1.
         -5    1    3    3    0  502 -0.19676685665E+02 -0.53773552487E+02 -0.99767618851E+02  0.11510784976E+03  0.41800000000E+01 0.  1.
        -11    1    1    2    0    0 -0.29881365056E+02  0.14428140608E+01 -0.15713818106E+02  0.33792037072E+02  0.00000000000E+00 0.  1.
         11    1    1    2    0    0  0.64836219949E+02 -0.15605733559E+02 -0.73176732170E+02  0.99005598166E+02  0.00000000000E+00 0. -1.
</event>
<event>
 7    1  0.2810263E-009  0.1369167E+03  0.7561462E-02  0.1217539E+00
         -3   -1    0    0    0  501 -0.00000000000E+00  0.00000000000E+00  0.54913788897E+03  0.54913788897E+03  0.00000000000E+00 0.  1.
          3   -1    0    0  501    0  0.00000000000E+00 -0.00000000000E+00 -0.37496924342E+02  0.37496924342E+02  0.00000000000E+00 0. -1.
         25    2    1    2    0    0 -0.81704053091E+02 -0.30150041191E+02  0.20730645001E+03  0.25730855604E+03  0.12508857471E+03 0.  0.
          5    1    3    3  502    0 -0.10595637780E+03 -0.53244135333E+02  0.16289133493E+03  0.20152605623E+03  0.41800000000E+01 0.  1.
         -5    1    3    3    0  502  0.24252324713E+02  0.23094094142E+02  0.44415115075E+02  0.55782499813E+02  0.41800000000E+01 0.  1.
        -11    1    1    2    0    0  0.38566900640E+02 -0.28976119859E+02  0.16542379153E+03  0.17231381880E+03  0.00000000000E+00 0. -1.
         11    1    1    2    0    0  0.43137152450E+02  0.59126161050E+02  0.13891072309E+03  0.15701243846E+03  0.00000000000E+00 0.  1.
</event>
<event>
 7    1  0.2810263E-009  0.2341697E+03  0.7561462E-02  0.1123739E+00
          2   -1    0    0  501    0  0.00000000000E+00  0.00000000000E+00  0.10041527575E+04  0.10041527575E+04  0.00000000000E+00 0. -1.
         -2   -1    0    0    0  501 -0.00000000000E+00 -0.00000000000E+00 -0.68638343835E+02  0.68638343835E+02  0.00000000000E+00 0.  1.
         25    2    1    2    0    0 -0.23344743105E+03 -0.44984462584E+00  0.60118599983E+03  0.65694074456E+03  0.12509448448E+03 0.  0.
          5    1    3    3  502    0 -0.19137432194E+03 -0.86939339353E+01  0.57601184937E+03  0.60704764113E+03  0.41800000000E+01 0.  1.
         -5    1    3    3    0  502 -0.42073109109E+02  0.82440893095E+01  0.25174150460E+02  0.49893103431E+02  0.41800000000E+01 0.  1.
        -11    1    1    2    0    0  0.11248162272E+03 -0.45859787602E+01  0.22982691396E+03  0.25591709015E+03  0.00000000000E+00 0. -1.
         11    1    1    2    0    0  0.12096580832E+03  0.50358233860E+01  0.10450149992E+03  0.15993326666E+03  0.00000000000E+00 0.  1.
</event>
<event>
 7    1  0.2810263E-009  0.1830651E+03  0.7561462E-02  0.1164869E+00
         -2   -1    0    0    0  501 -0.00000000000E+00  0.00000000000E+00  0.10816065880E+03  0.10816065880E+03  0.00000000000E+00 0.  1.
          2   -1    0    0  501    0  0.00000000000E+00 -0.00000000000E+00 -0.56298015332E+03  0.56298015332E+03  0.00000000000E+00 0. -1.
         25    2    1    2    0    0 -0.15318526757E+03  0.43992775471E+02 -0.26080416014E+02  0.20427742857E+03  0.12509192311E+03 0.  0.
          5    1    3    3  502    0 -0.15699661554E+03  0.58355472434E+02  0.70876520717E+01  0.16769318909E+03  0.41800000000E+01 0.  1.
         -5    1    3    3    0  502  0.38113479770E+01 -0.14362696963E+02 -0.33168068085E+02  0.36584239475E+02  0.41800000000E+01 0.  1.
        -11    1    1    2    0    0  0.14766018736E+03 -0.92268138055E+01 -0.31949504751E+03  0.35208770272E+03  0.00000000000E+00 0.  1.
         11    1    1    2    0    0  0.55250802095E+01 -0.34765961665E+02 -0.10924403099E+03  0.11477568083E+03  0.00000000000E+00 0. -1.
</event>
<event>
 7    1  0.2810263E-009  0.9499942E+02  0.7561462E-02  0.1291177E+00
         -2   -1    0    0    0  501 -0.00000000000E+00  0.00000000000E+00  0.53567531893E+02  0.53567531893E+02  0.00000000000E+00 0.  1.
          2   -1    0    0  501    0  0.00000000000E+00 -0.00000000000E+00 -0.25124578413E+03  0.25124578413E+03  0.00000000000E+00 0. -1.
         25    2    1    2    0    0  0.30913922168E+01  0.22004541720E+02 -0.16118833110E+03  0.20523852116E+03  0.12508963155E+03 0.  0.
          5    1    3    3  502    0 -0.19153832428E+02 -0.45065488293E+02 -0.10100270806E+03  0.11232447181E+03  0.41800000000E+01 0. -1.
         -5    1    3    3    0  502  0.22245224645E+02  0.67070030013E+02 -0.60185623039E+02  0.92914049347E+02  0.41800000000E+01 0. -1.
        -11    1    1    2    0    0  0.22256506702E+02  0.13808064690E+02  0.16363371865E+02  0.30883242703E+02  0.00000000000E+00 0.  1.
         11    1    1    2    0    0 -0.25347898919E+02 -0.35812606410E+02 -0.52853293004E+02  0.68691552165E+02  0.00000000000E+00 0. -1.
</event>
<event>
 7    1  0.2810263E-009  0.1039784E+03  0.7561462E-02  0.1272146E+00
          3   -1    0    0  501    0  0.00000000000E+00  0.00000000000E+00  0.79518331019E+03  0.79518331019E+03  0.00000000000E+00 0. -1.
         -3   -1    0    0    0  501 -0.00000000000E+00 -0.00000000000E+00 -0.18300053757E+02  0.18300053757E+02  0.00000000000E+00 0.  1.
         25    2    1    2    0    0 -0.42697451413E+02 -0.49608568667E+01  0.51752693468E+03  0.53416284360E+03  0.12509249740E+03 0.  0.
          5    1    3    3  502    0 -0.13603777148E+02  0.58683037549E+02  0.28361140720E+03  0.28996838508E+03  0.41800000000E+01 0. -1.
         -5    1    3    3    0  502 -0.29093674265E+02 -0.63643894416E+02  0.23391552748E+03  0.24419445852E+03  0.41800000000E+01 0. -1.
        -11    1    1    2    0    0  0.47089507959E+02 -0.20697931764E+02  0.24342561852E+03  0.24880083981E+03  0.00000000000E+00 0. -1.
         11    1    1    2    0    0 -0.43920565452E+01  0.25658788631E+02  0.15930703241E+02  0.30519680543E+02  0.00000000000E+00 0.  1.
</event>
<event>
 7    1  0.2810263E-009  0.8826694E+02  0.7561462E-02  0.1307104E+00
         -1   -1    0    0    0  501 -0.00000000000E+00  0.00000000000E+00  0.29037741145E+03  0.29037741145E+03  0.00000000000E+00 0.  1.
          1   -1    0    0  501    0  0.00000000000E+00 -0.00000000000E+00 -0.56810904017E+02  0.56810904017E+02  0.00000000000E+00 0. -1.
         25    2    1    2    0    0  0.59665530939E+02 -0.74808587045E+01  0.79573497430E+02  0.15998405729E+03  0.12508804205E+03 0.  0.
          5    1    3    3  502    0  0.34622645739E+02  0.45331181860E+02 -0.46487827735E+01  0.57382290195E+02  0.41800000000E+01 0. -1.
         -5    1    3    3    0  502  0.25042885200E+02 -0.52812040564E+02  0.84222280203E+02  0.10260176709E+03  0.41800000000E+01 0. -1.
        -11    1    1    2    0    0 -0.31951797609E+02 -0.31311929271E+00  0.14689957400E+01  0.31987081183E+02  0.00000000000E+00 0. -1.
         11    1    1    2    0    0 -0.27713733330E+02  0.77939779972E+01  0.15252401426E+03  0.15521717700E+03  0.00000000000E+00 0.  1.
</event>
<event>
 7    1  0.2810263E-009  0.1063373E+03  0.7561462E-02  0.1267507E+00
          2   -1    0    0  501    0  0.00000000000E+00  0.00000000000E+00  0.42011029821E+03  0.42011029821E+03  0.00000000000E+00 0.  1.
         -2   -1    0    0    0  501 -0.00000000000E+00 -0.00000000000E+00 -0.37022554248E+02  0.37022554248E+02  0.00000000000E+00 0. -1.
         25    2    1    2    0    0 -0.51200360954E+02  0.33732657812E+02  0.20601866944E+03  0.24869843343E+03  0.12509136447E+03 0.  0.
          5    1    3    3  502    0  0.36399624316E+02  0.47774084847E+00  0.10327179294E+03  0.10957963544E+03  0.41800000000E+01 0. -1.
         -5    1    3    3    0  502 -0.87599985270E+02  0.33254916964E+02  0.10274687650E+03  0.13911879798E+03  0.41800000000E+01 0. -1.
        -11    1    1    2    0    0  0.33716455231E+02  0.99780859720E+01  0.15013266453E+03  0.15419526099E+03  0.00000000000E+00 0.  1.
         11    1    1    2    0    0  0.17483905722E+02 -0.43710743784E+02  0.26936409983E+02  0.54239158034E+02  0.00000000000E+00 0. -1.
</event>
<event>
 7    1  0.2810263E-009  0.1222874E+03  0.7561462E-02  0.1239371E+00
         -1   -1    0    0    0  501 -0.00000000000E+00  0.00000000000E+00  0.29779079021E+02  0.29779079021E+02  0.00000000000E+00 0.  1.
          1   -1    0    0  501    0  0.00000000000E+00 -0.00000000000E+00 -0.57499713822E+03  0.57499713822E+03  0.00000000000E+00 0. -1.
         25    2    1    2    0    0 -0.36620909496E+02  0.44247072312E+02 -0.36919519885E+03  0.39402398238E+03  0.12510359473E+03 0.  0.
          5    1    3    3  502    0 -0.11221785866E+02 -0.41620529800E+02 -0.17268413159E+03  0.17803224057E+03  0.41800000000E+01 0.  1.
         -5    1    3    3    0  502 -0.25399123630E+02  0.85867602112E+02 -0.19651106726E+03  0.21599174181E+03  0.41800000000E+01 0.  1.
        -11    1    1    2    0    0  0.49898065886E+02 -0.68040270740E+02 -0.10512045335E+03  0.13479467769E+03  0.00000000000E+00 0. -1.
         11    1    1    2    0    0 -0.13277156390E+02  0.23793198428E+02 -0.70902406999E+02  0.75957557172E+02  0.00000000000E+00 0.  1.
</event>
<event>
 7    1  0.2810263E-009  0.1655525E+03  0.7561462E-02  0.1182567E+00
         -2   -1    0    0    0  501 -0.00000000000E+00  0.00000000000E+00  0.17476359721E+03  0.17476359721E+03  0.00000000000E+00 0.  1.
          2   -1    0    0  501    0  0.00000000000E+00 -0.00000000000E+00 -0.22341681080E+03  0.22341681080E+03  0.00000000000E+00 0. -1.
         25    2    1    2    0    0  0.14850216139E+03 -0.20046344724E+02  0.43931988645E+02  0.20008066306E+03  0.12508998454E+03 0.  0.
          5    1    3    3  502    0  0.75723844913E+00  0.46384004950E+01 -0.31634955599E+02  0.32254162289E+02  0.41800000000E+01 0.  1.
         -5    1    3    3    0  502  0.14774492294E+03 -0.24684745219E+02  0.75566944243E+02  0.16782650078E+03  0.41800000000E+01 0.  1.
        -11    1    1    2    0    0 -0.10123454127E+03  0.55894706499E+02 -0.57049435683E+02  0.12894684437E+03  0.00000000000E+00 0.  1.
         11    1    1    2    0    0 -0.47267620116E+02 -0.35848361775E+02 -0.35535766548E+02  0.69152900572E+02  0.00000000000E+00 0. -1.
</event>
<event>
 7    1  0.2810263E-009  0.1952277E+03  0.7561462E-02  0.1153829E+00
          2   -1    0    0  501    0  0.00000000000E+00  0.00000000000E+00  0.90063155628E+02  0.90063155628E+02  0.00000000000E+00 0. -1.
         -2   -1    0    0    0  501 -0.00000000000E+00 -0.00000000000E+00 -0.48376344362E+03  0.48376344362E+03  0.00000000000E+00 0.  1.
         25    2    1    2    0    0  0.16004361893E+03 -0.71285860746E+02 -0.15992423002E+03  0.26817885549E+03  0.12509398581E+03 0.  0.
          5    1    3    3  502    0 -0.73602029151E+01 -0.44946829657E+02 -0.32311768367E+02  0.55999221942E+02  0.41800000000E+01 0. -1.
         -5    1    3    3    0  502  0.16740382184E+03 -0.26339031089E+02 -0.12761246165E+03  0.21217963355E+03  0.41800000000E+01 0. -1.
        -11    1    1    2    0    0 -0.14493786990E+03  0.64828332730E+02 -0.24026227076E+03  0.28798551631E+03  0.00000000000E+00 0.  1.
         11    1    1    2    0    0 -0.15105749031E+02  0.64575280163E+01  0.64862127867E+01  0.17662227441E+02  0.00000000000E+00 0. -1.
</event>
<event>
 7    1  0.2810263E-009  0.1467306E+03  0.7561462E-02  0.1204549E+00
         -1   -1    0    0    0  501 -0.00000000000E+00  0.00000000000E+00  0.11057741373E+03  0.11057741373E+03  0.00000000000E+00 0.  1.
          1   -1    0    0  501    0  0.00000000000E+00 -0.00000000000E+00 -0.30440497211E+03  0.30440497211E+03  0.00000000000E+00 0. -1.
         25    2    1    2    0    0 -0.78409367728E+02 -0.84943172825E+02 -0.20773403415E+03  0.26863156919E+03  0.12508444933E+03 0.  0.
          5    1    3    3  502    0 -0.10836900009E+03 -0.53500652813E+02 -0.11854127695E+03  0.16933891098E+03  0.41800000000E+01 0. -1.
         -5    1    3    3    0  502  0.29959632364E+02 -0.31442520012E+02 -0.89192757202E+02  0.99292658205E+02  0.41800000000E+01 0. -1.
        -11    1    1    2    0    0  0.62284743559E+02  0.25486774714E+02 -0.26881327480E+02  0.72467722005E+02  0.00000000000E+00 0. -1.
         11    1    1    2    0    0  0.16124624169E+02  0.59456398111E+02  0.40787803243E+02  0.73883094645E+02  0.00000000000E+00 0.  1.
</event>
<event>
 7    1  0.2810263E-009  0.9009274E+02  0.7561462E-02  0.1302627E+00
          1   -1    0    0  501    0  0.00000000000E+00  0.00000000000E+00  0.50953961236E+02  0.50953961236E+02  0.00000000000E+00 0. -1.
         -1   -1    0    0    0  501 -0.00000000000E+00 -0.00000000000E+00 -0.29534251298E+03  0.29534251298E+03  0.00000000000E+00 0.  1.
         25    2    1    2    0    0  0.41181270788E+02  0.97192287793E+01 -0.19343908678E+03  0.23421427399E+03  0.12508910974E+03 0.  0.
          5    1    3    3  502    0 -0.25103117162E+02 -0.34527819497E+02 -0.30034967014E+02  0.52363235710E+02  0.41800000000E+01 0.  1.
         -5    1    3    3    0  502  0.66284387950E+02  0.44247048276E+02 -0.16340411977E+03  0.18185103828E+03  0.41800000000E+01 0.  1.
        -11    1    1    2    0    0 -0.24392792937E+01 -0.17753953416E+02  0.22433239117E+02  0.28712421749E+02  0.00000000000E+00 0. -1.
         11    1    1    2    0    0 -0.38741991495E+02  0.80347246369E+01 -0.73382704074E+02  0.83369778470E+02  0.00000000000E+00 0.  1.
</event>
<event>
 7    1  0.2810263E-009  0.1190234E+03  0.7561462E-02  0.1244717E+00
          4   -1    0    0  501    0  0.00000000000E+00  0.00000000000E+00  0.85351576134E+03  0.85351576134E+03  0.00000000000E+00 0. -1.
         -4   -1    0    0    0  501 -0.00000000000E+00 -0.00000000000E+00 -0.19093311206E+02  0.19093311206E+02  0.00000000000E+00 0.  1.
         25    2    1    2    0    0 -0.15673390476E+02  0.60508413105E+02  0.54213333042E+03  0.55987541472E+03  0.12508000973E+03 0.  0.
          5    1    3    3  502    0  0.13718326750E+02  0.89839286606E+02  0.27913762906E+03  0.29358913172E+03  0.41800000000E+01 0.  1.
         -5    1    3    3    0  502 -0.29391717226E+02 -0.29330873500E+02  0.26299570136E+03  0.26628628300E+03  0.41800000000E+01 0.  1.
        -11    1    1    2    0    0  0.39869673924E+02  0.32203189353E+00  0.65463353122E+02  0.76649495793E+02  0.00000000000E+00 0.  1.
         11    1    1    2    0    0 -0.24196283448E+02 -0.60830444999E+02  0.22682576659E+03  0.23608416203E+03  0.00000000000E+00 0. -1.
</event>
<event>
 7    1  0.2810263E-009  0.1102875E+03  0.7561462E-02  0.1260038E+00
         -1   -1    0    0    0  501 -0.00000000000E+00  0.00000000000E+00  0.42403734579E+02  0.42403734579E+02  0.00000000000E+00 0.  1.
          1   -1    0    0  501    0  0.00000000000E+00 -0.00000000000E+00 -0.37731318237E+03  0.37731318237E+03  0.00000000000E+00 0. -1.
         25    2    1    2    0    0 -0.27332878355E+02  0.57805361728E+02 -0.20370220470E+03  0.24744598770E+03  0.12508550093E+03 0.  0.
          5    1    3    3  502    0 -0.25355145716E+01  0.80258380511E+02 -0.61303248631E+02  0.10111081628E+03  0.41800000000E+01 0. -1.
         -5    1    3    3    0  502 -0.24797363783E+02 -0.22453018783E+02 -0.14239895607E+03  0.14633517141E+03  0.41800000000E+01 0. -1.
        -11    1    1    2    0    0  0.52657027258E+02 -0.11833910020E+02 -0.92361551549E+02  0.10697410972E+03  0.00000000000E+00 0. -1.
         11    1    1    2    0    0 -0.25324148903E+02 -0.45971451708E+02 -0.38845691540E+02  0.65296819532E+02  0.00000000000E+00 0.  1.
</event>
<event>
 7    1  0.2810263E-009  0.1808178E+03  0.7561462E-02  0.1167014E+00
          1   -1    0    0  501    0  0.00000000000E+00  0.00000000000E+00  0.10402153076E+04  0.10402153076E+04  0.00000000000E+00 0. -1.
         -1   -1    0    0    0  501 -0.00000000000E+00 -0.00000000000E+00 -0.52307688811E+02  0.52307688811E+02  0.00000000000E+00 0.  1.
         25    2    1    2    0    0  0.16179235931E+03 -0.18441613446E+02  0.80728581293E+03  0.83299117300E+03  0.12508816848E+03 0.  0.
          5    1    3    3  502    0  0.12904293482E+03  0.13434563125E+02  0.34805812664E+03  0.37147610749E+03  0.41800000000E+01 0.  1.
         -5    1    3    3    0  502  0.32749424493E+02 -0.31876176570E+02  0.45922768629E+03  0.46151506551E+03  0.41800000000E+01 0.  1.
        -11    1    1    2    0    0 -0.65130645327E+01  0.29550451103E+02  0.23153493263E+02  0.38101619654E+02  0.00000000000E+00 0.  1.
         11    1    1    2    0    0 -0.15527929478E+03 -0.11108837657E+02  0.15746831256E+03  0.22143020373E+03  0.00000000000E+00 0. -1.
</event>
<event>
 7    1  0.2810263E-009  0.1564497E+03  0.7561462E-02  0.1192764E+00
         -1   -1    0    0    0  501 -0.00000000000E+00  0.00000000000E+00  0.12003610840E+04  0.12003610840E+04  0.00000000000E+00 0.  1.
          1   -1    0    0  501    0  0.00000000000E+00 -0.00000000000E+00 -0.29467324121E+02  0.29467324121E+02  0.00000000000E+00 0. -1.
         25    2    1    2    0    0 -0.75678517850E+02  0.10856926102E+03  0.87154011043E+03  0.89036214519E+03  0.12509221801E+03 0.  0.
          5    1    3    3  502    0 -0.63776235838E+00  0.98436369537E+02  0.61518041398E+03  0.62302049704E+03  0.41800000000E+01 0.  1.
         -5    1    3    3    0  502 -0.75040755492E+02  0.10132891485E+02  0.25635969645E+03  0.26734164815E+03  0.41800000000E+01 0.  1.
        -11    1    1    2    0    0  0.48675191437E+02 -0.34402366221E+02  0.21846000559E+03  0.22644551465E+03  0.00000000000E+00 0.  1.
         11    1    1    2    0    0  0.27003326413E+02 -0.74166894802E+02  0.80893643833E+02  0.11302074825E+03  0.00000000000E+00 0. -1.
</event>
<event>
 7    1  0.2810263E-009  0.8581949E+02  0.7561462E-02  0.1313303E+00
          1   -1    0    0  501    0  0.00000000000E+00  0.00000000000E+00  0.31536404625E+02  0.31536404625E+02  0.00000000000E+00 0. -1.
         -1   -1    0    0    0  501 -0.00000000000E+00 -0.00000000000E+00 -0.49279526027E+03  0.49279526027E+03  0.00000000000E+00 0.  1.
         25    2    1    2    0    0 -0.25176685340E+01 -0.38036576329E+02 -0.36162420186E+03  0.38454272400E+03  0.12509166007E+03 0.  0.
          5    1    3    3  502    0 -0.46524203647E+02 -0.20438515675E+02 -0.31067895168E+03  0.31483506455E+03  0.41800000000E+01 0. -1.
         -5    1    3    3    0  502  0.44006535113E+02 -0.17598060654E+02 -0.50945250178E+02  0.69707659459E+02  0.41800000000E+01 0. -1.
        -11    1    1    2    0    0  0.95012597330E+01  0.54430472025E+02 -0.10706551310E+03  0.12048225727E+03  0.00000000000E+00 0.  1.
         11    1    1    2    0    0 -0.69835911989E+01 -0.16393895696E+02  0.74308593207E+01  0.19306683619E+02  0.00000000000E+00 0. -1.
</event>
<event>
 7    1  0.2810263E-009  0.1341337E+03  0.7561462E-02  0.1221448E+00
         -2   -1    0    0    0  501 -0.00000000000E+00  0.00000000000E+00  0.34952112686E+02  0.34952112686E+02  0.00000000000E+00 0.  1.
          2   -1    0    0  501    0  0.00000000000E+00 -0.00000000000E+00 -0.58600185198E+03  0.58600185198E+03  0.00000000000E+00 0. -1.
         25    2    1    2    0    0 -0.43810030573E+02 -0.60237453584E+02 -0.19318485223E+03  0.24189973333E+03  0.12508886546E+03 0.  0.
          5    1    3    3  502    0 -0.23511815805E+02 -0.97673596598E+02 -0.11490156090E+03  0.15268522539E+03  0.41800000000E+01 0. -1.
         -5    1    3    3    0  502 -0.20298214769E+02  0.37436143014E+02 -0.78283291326E+02  0.89214507942E+02  0.41800000000E+01 0. -1.
        -11    1    1    2    0    0 -0.25406003230E+02  0.48460418697E+02 -0.15248337817E+03  0.16200326478E+03  0.00000000000E+00 0.  1.
         11    1    1    2    0    0  0.69216033803E+02  0.11777034887E+02 -0.20538150890E+03  0.21705096655E+03  0.00000000000E+00 0. -1.
</event>
<event>
 7    1  0.2810263E-009  0.2303423E+03  0.7561462E-02  0.1126399E+00
         -2   -1    0    0    0  501 -0.00000000000E+00  0.00000000000E+00  0.84533113924E+02  0.84533113924E+02  0.00000000000E+00 0.  1.
          2   -1    0    0  501    0  0.00000000000E+00 -0.00000000000E+00 -0.65344265360E+03  0.65344265360E+03  0.00000000000E+00 0. -1.
         25    2    1    2    0    0  0.20368262155E+03 -0.17919773036E+02 -0.35513308453E+03  0.42845481022E+03  0.12508512337E+03 0.  0.
          5    1    3    3  502    0  0.15674186353E+03  0.41570312667E+02 -0.21813266730E+03  0.27183714908E+03  0.41800000000E+01 0. -1.
         -5    1    3    3    0  502  0.46940758029E+02 -0.59490085703E+02 -0.13700041723E+03  0.15661766114E+03  0.41800000000E+01 0. -1.
        -11    1    1    2    0    0 -0.15896957095E+02 -0.25300607530E+02 -0.18320148269E+02  0.35049419666E+02  0.00000000000E+00 0.  1.
         11    1    1    2    0    0 -0.18778566446E+03  0.43220380566E+02 -0.19545630688E+03  0.27447153764E+03  0.00000000000E+00 0. -1.
</event>
<event>
 7    1  0.2810263E-009  0.3958640E+03  0.7561462E-02  0.1045221E+00
          2   -1    0    0  501    0  0.00000000000E+00  0.00000000000E+00  0.93723979822E+03  0.93723979822E+03  0.00000000000E+00 0. -1.
         -2   -1    0    0    0  501 -0.00000000000E+00 -0.00000000000E+00 -0.20373818569E+03  0.20373818569E+03  0.00000000000E+00 0.  1.
         25    2    1    2    0    0 -0.28091387250E+03  0.26322889115E+03  0.14108116045E+03  0.42866326598E+03  0.12508496657E+03 0.  0.
          5    1    3    3  502    0 -0.11577613042E+03  0.19334019368E+03  0.80789920624E+02  0.23943480645E+03  0.41800000000E+01 0. -1.
         -5    1    3    3    0  502 -0.16513774208E+03  0.69888697476E+02  0.60291239831E+02  0.18922845953E+03  0.41800000000E+01 0. -1.
        -11    1    1    2    0    0  0.23808518941E+03 -0.20191028969E+03  0.41125477681E+03  0.51631658306E+03  0.00000000000E+00 0. -1.
         11    1    1    2    0    0  0.42828683094E+02 -0.61318601459E+02  0.18116567526E+03  0.19599813487E+03  0.00000000000E+00 0.  1.
</event>
<event>
 7    1  0.2810263E-009  0.2505299E+03  0.7561462E-02  0.1112970E+00
          2   -1    0    0  501    0  0.00000000000E+00  0.00000000000E+00  0.60161497310E+03  0.60161497310E+03  0.00000000000E+00 0.  1.
         -2   -1    0    0    0  501 -0.00000000000E+00 -0.00000000000E+00 -0.11822342479E+03  0.11822342479E+03  0.00000000000E+00 0. -1.
         25    2    1    2    0    0 -0.23056189747E+03 -0.46082849224E+02  0.16542850252E+03  0.31352942428E+03  0.12510672597E+03 0.  0.
          5    1    3    3  502    0 -0.23879466745E+03 -0.62700885871E+02  0.15782940203E+03  0.29305611551E+03  0.41800000000E+01 0. -1.
         -5    1    3    3    0  502  0.82327699831E+01  0.16618036647E+02  0.75991004947E+01  0.20473308769E+02  0.41800000000E+01 0. -1.
        -11    1    1    2    0    0  0.56092111306E+02  0.11653346712E+02  0.15442925433E+03  0.16471344824E+03  0.00000000000E+00 0.  1.
         11    1    1    2    0    0  0.17446978616E+03  0.34429502511E+02  0.16353379147E+03  0.24159552537E+03  0.00000000000E+00 0. -1.
</event>
<event>
 7    1  0.2810263E-009  0.1518516E+03  0.7561462E-02  0.1198216E+00
         -2   -1    0    0    0  501 -0.00000000000E+00  0.00000000000E+00  0.16687785366E+02  0.16687785366E+02  0.00000000000E+00 0.  1.
          2   -1    0    0  501    0  0.00000000000E+00 -0.00000000000E+00 -0.16996740136E+04  0.16996740136E+04  0.00000000000E+00 0. -1.
         25    2    1    2    0    0  0.54004531919E+02  0.93671897224E+02 -0.12264232222E+04  0.12375185703E+04  0.12508948073E+03 0.  0.
          5    1    3    3  502    0  0.82105449632E+02  0.26435800531E+02 -0.49643859233E+03  0.50389374353E+03  0.41800000000E+01 0. -1.
         -5    1    3    3    0  502 -0.28100917713E+02  0.67236096693E+02 -0.72998462983E+03  0.73362482677E+03  0.41800000000E+01 0. -1.
        -11    1    1    2    0    0 -0.57068789824E+01  0.20025693386E+02 -0.67936992874E+02  0.71056539911E+02  0.00000000000E+00 0. -1.
         11    1    1    2    0    0 -0.48297652937E+02 -0.11369759061E+03 -0.38862601320E+03  0.40778668876E+03  0.00000000000E+00 0.  1.
</event>
<event>
 7    1  0.2810263E-009  0.1888876E+03  0.7561462E-02  0.1159469E+00
         -2   -1    0    0    0  501 -0.00000000000E+00  0.00000000000E+00  0.90347637433E+02  0.90347637433E+02  0.00000000000E+00 0.  1.
          2   -1    0    0  501    0  0.00000000000E+00 -0.00000000000E+00 -0.47450919680E+03  0.47450919680E+03  0.00000000000E+00 0. -1.
         25    2    1    2    0    0 -0.68772372694E+02  0.16199046555E+03 -0.20998562930E+03  0.30118422053E+03  0.12508964788E+03 0.  0.
          5    1    3    3  502    0 -0.35456992103E+02 -0.51253573256E+00 -0.88793895794E+02  0.95704176043E+02  0.41800000000E+01 0.  1.
         -5    1    3    3    0  502 -0.33315380591E+02  0.16250300129E+03 -0.12119173350E+03  0.20548004448E+03  0.41800000000E+01 0.  1.
        -11    1    1    2    0    0  0.66236975949E+02 -0.15160844174E+03 -0.11014764465E+03  0.19875854752E+03  0.00000000000E+00 0.  1.
         11    1    1    2    0    0  0.25353967448E+01 -0.10382023811E+02 -0.64028285424E+02  0.64914066190E+02  0.00000000000E+00 0. -1.
</event>
<event>
 7    1  0.2810263E-009  0.7831290E+02  0.7561462E-02  0.1333909E+00
          2   -1    0    0  501    0  0.00000000000E+00  0.00000000000E+00  0.23395226756E+03  0.23395226756E+03  0.00000000000E+00 0. -1.
         -2   -1    0    0    0  501 -0.00000000000E+00 -0.00000000000E+00 -0.70879761766E+02  0.70879761766E+02  0.00000000000E+00 0.  1.
         25    2    1    2    0    0  0.29269679650E+02  0.44847404064E+02  0.14303339859E+03  0.19741882058E+03  0.12509050247E+03 0.  0.
          5    1    3    3  502    0  0.10507571992E+02  0.35797797362E+02 -0.13164404662E+02  0.39782726342E+02  0.41800000000E+01 0. -1.
         -5    1    3    3    0  502  0.18762107658E+02  0.90496067026E+01  0.15619780325E+03  0.15763609424E+03  0.41800000000E+01 0. -1.
        -11    1    1    2    0    0 -0.55100664800E+02 -0.46294362013E+02  0.32180733857E+02  0.78834325311E+02  0.00000000000E+00 0. -1.
         11    1    1    2    0    0  0.25830985150E+02  0.14469579487E+01 -0.12141626649E+02  0.28578883442E+02  0.00000000000E+00 0.  1.
</event>
<event>
 7    1  0.2810263E-009  0.1836497E+03  0.7561462E-02  0.1164317E+00
          1   -1    0    0  501    0  0.00000000000E+00  0.00000000000E+00  0.38644603340E+03  0.38644603340E+03  0.00000000000E+00 0. -1.
         -1   -1    0    0    0  501 -0.00000000000E+00 -0.00000000000E+00 -0.11156453689E+03  0.11156453689E+03  0.00000000000E+00 0.  1.
         25    2    1    2    0    0 -0.14303624602E+03 -0.91270810791E+02  0.20344364419E+03  0.29296180368E+03  0.12509026132E+03 0.  0.
          5    1    3    3  502    0 -0.76443912767E+02 -0.73730236479E+02  0.19677939498E+03  0.22365022303E+03  0.41800000000E+01 0. -1.
         -5    1    3    3    0  502 -0.66592333252E+02 -0.17540574311E+02  0.66642492044E+01  0.69311580652E+02  0.41800000000E+01 0. -1.
        -11    1    1    2    0    0  0.90261474501E+02  0.10402554332E+03  0.55226307763E+02  0.14838595793E+03  0.00000000000E+00 0.  1.
         11    1    1    2    0    0  0.52774771517E+02 -0.12754732531E+02  0.16211544558E+02  0.56662808681E+02  0.00000000000E+00 0. -1.
</event>
<event>
 7    1  0.2810263E-009  0.1400579E+03  0.7561462E-02  0.1213251E+00
         -1   -1    0    0    0  501 -0.00000000000E+00  0.00000000000E+00  0.18533905264E+03  0.18533905264E+03  0.00000000000E+00 0.  1.
          1   -1    0    0  501    0  0.00000000000E+00 -0.00000000000E+00 -0.16509818262E+03  0.16509818262E+03  0.00000000000E+00 0. -1.
         25    2    1    2    0    0  0.94579996951E+02 -0.67774505334E+02 -0.61555976145E+02  0.18159463225E+03  0.12509481550E+03 0.  0.
          5    1    3    3  502    0  0.27131184957E+02  0.11765666023E+02 -0.70772930888E+02  0.76816744533E+02  0.41800000000E+01 0. -1.
         -5    1    3    3    0  502  0.67448811994E+02 -0.79540171358E+02  0.92169547427E+01  0.10477788771E+03  0.41800000000E+01 0. -1.
        -11    1    1    2    0    0  0.89706651452E+01  0.36677266016E+02  0.10013981897E+02  0.39063723696E+02  0.00000000000E+00 0.  1.
         11    1    1    2    0    0 -0.10355066210E+03  0.31097239319E+02  0.71782864264E+02  0.12977887931E+03  0.00000000000E+00 0. -1.
</event>
<event>
 7    1  0.2810263E-009  0.5490985E+02  0.7561462E-02  0.1420526E+00
          2   -1    0    0  501    0  0.00000000000E+00  0.00000000000E+00  0.45533570587E+02  0.45533570587E+02  0.00000000000E+00 0. -1.
         -2   -1    0    0    0  501 -0.00000000000E+00 -0.00000000000E+00 -0.61083561790E+03  0.61083561790E+03  0.00000000000E+00 0.  1.
         25    2    1    2    0    0  0.37516156117E+02  0.32107350482E+01 -0.53997825940E+03  0.55555559999E+03  0.12509089999E+03 0.  0.
          5    1    3    3  502    0 -0.10529172838E+01 -0.22481272070E+01 -0.49841466635E+03  0.49843837607E+03  0.41800000000E+01 0. -1.
         -5    1    3    3    0  502  0.38569073401E+02  0.54588622553E+01 -0.41563593053E+02  0.57117223913E+02  0.41800000000E+01 0. -1.
        -11    1    1    2    0    0 -0.21909401606E+02 -0.28570245764E+02 -0.50362441155E+02  0.61908450965E+02  0.00000000000E+00 0.  1.
         11    1    1    2    0    0 -0.15606754511E+02  0.25359510716E+02  0.25038653247E+02  0.38905137534E+02  0.00000000000E+00 0. -1.
</event>
<event>
 7    1  0.2810263E-009  0.1228981E+03  0.7561462E-02  0.1238391E+00
          1   -1    0    0  501    0  0.00000000000E+00  0.00000000000E+00  0.30662033381E+03  0.30662033381E+03  0.00000000000E+00 0. -1.
         -1   -1    0    0    0  501 -0.00000000000E+00 -0.00000000000E+00 -0.54125775533E+02  0.54125775533E+02  0.00000000000E+00 0.  1.
         25    2    1    2    0    0  0.79201446261E+02  0.19999507835E+02  0.13245823269E+03  0.19966461165E+03  0.12509166373E+03 0.  0.
          5    1    3    3  502    0  0.16907563419E+02  0.64056102450E+02  0.32686161092E+02  0.73992617799E+02  0.41800000000E+01 0. -1.
         -5    1    3    3    0  502  0.62293882842E+02 -0.44056594615E+02  0.99772071594E+02  0.12567199385E+03  0.41800000000E+01 0. -1.
        -11    1    1    2    0    0 -0.28241632325E+02 -0.39397611004E+02  0.33955195968E+02  0.59183755224E+02  0.00000000000E+00 0.  1.
         11    1    1    2    0    0 -0.50959813936E+02  0.19398103169E+02  0.86081129623E+02  0.10189774247E+03  0.00000000000E+00 0. -1.
</event>
<event>
 7    1  0.2810263E-009  0.1208405E+03  0.7561462E-02  0.1241717E+00
          1   -1    0    0  501    0  0.00000000000E+00  0.00000000000E+00  0.43858754682E+02  0.43858754682E+02  0.00000000000E+00 0. -1.
         -1   -1    0    0    0  501 -0.00000000000E+00 -0.00000000000E+00 -0.46799643901E+03  0.46799643901E+03  0.00000000000E+00 0.  1.
         25    2    1    2    0    0 -0.71878572356E+02 -0.59760195179E+02 -0.24745190765E+03  0.29260544024E+03  0.12509071495E+03 0.  0.
          5    1    3    3  502    0  0.71255805957E+01 -0.62804330742E+02 -0.17177199858E+03  0.18307989992E+03  0.41800000000E+01 0.  1.
         -5    1    3    3    0  502 -0.79004152952E+02  0.30441355629E+01 -0.75679909066E+02  0.10952554032E+03  0.41800000000E+01 0.  1.
        -11    1    1    2    0    0  0.37293630771E+02  0.10084335059E+02 -0.72244669048E+01  0.39302692423E+02  0.00000000000E+00 0. -1.
         11    1    1    2    0    0  0.34584941585E+02  0.49675860120E+02 -0.16946130977E+03  0.17994706103E+03  0.00000000000E+00 0.  1.
</event>
<event>
 7    1  0.2810263E-009  0.1194118E+03  0.7561462E-02  0.1244071E+00
         -2   -1    0    0    0  501 -0.00000000000E+00  0.00000000000E+00  0.11346233078E+02  0.11346233078E+02  0.00000000000E+00 0.  1.
          2   -1    0    0  501    0  0.00000000000E+00 -0.00000000000E+00 -0.13039213493E+04  0.13039213493E+04  0.00000000000E+00 0. -1.
         25    2    1    2    0    0  0.34491071292E+02  0.37718267033E+02 -0.80933173447E+03  0.82053480798E+03  0.12508882054E+03 0.  0.
          5    1    3    3  502    0  0.61890658869E+01 -0.45879678052E+02 -0.30491691196E+03  0.30843969426E+03  0.41800000000E+01 0.  1.
         -5    1    3    3    0  502  0.28302005405E+02  0.83597945085E+02 -0.50441482251E+03  0.51209511372E+03  0.41800000000E+01 0.  1.
        -11    1    1    2    0    0  0.29044928442E+02 -0.26789777339E+02 -0.13911792481E+03  0.14462052773E+03  0.00000000000E+00 0.  1.
         11    1    1    2    0    0 -0.63535999734E+02 -0.10928489694E+02 -0.34412545695E+03  0.35011224668E+03  0.00000000000E+00 0. -1.
</event>
<event>
 7    1  0.2810263E-009  0.1288913E+03  0.7561462E-02  0.1229110E+00
         -1   -1    0    0    0  501 -0.00000000000E+00  0.00000000000E+00  0.17289185395E+03  0.17289185395E+03  0.00000000000E+00 0.  1.
          1   -1    0    0  501    0  0.00000000000E+00 -0.00000000000E+00 -0.11967916816E+03  0.11967916816E+03  0.00000000000E+00 0. -1.
         25    2    1    2    0    0 -0.72791045362E+02  0.10658566208E+02 -0.30247349172E+02  0.14824068427E+03  0.12509299350E+03 0.  0.
          5    1    3    3  502    0 -0.61028327988E+02  0.64752140624E+02 -0.24762300063E+02  0.92455072532E+02  0.41800000000E+01 0.  1.
         -5    1    3    3    0  502 -0.11762717373E+02 -0.54093574416E+02 -0.54850491090E+01  0.55785611737E+02  0.41800000000E+01 0.  1.
        -11    1    1    2    0    0  0.80627924208E+01  0.33745259059E+02  0.45275587857E+02  0.57040599457E+02  0.00000000000E+00 0.  1.
         11    1    1    2    0    0  0.64728252941E+02 -0.44403825267E+02  0.38184447099E+02  0.87289738385E+02  0.00000000000E+00 0. -1.
</event>
<event>
 7    1  0.2810263E-009  0.2176876E+03  0.7561462E-02  0.1135619E+00
          2   -1    0    0  501    0  0.00000000000E+00  0.00000000000E+00  0.14231751118E+03  0.14231751118E+03  0.00000000000E+00 0.  1.
         -2   -1    0    0    0  501 -0.00000000000E+00 -0.00000000000E+00 -0.35417532800E+03  0.35417532800E+03  0.00000000000E+00 0. -1.
         25    2    1    2    0    0  0.81460432312E+02 -0.17790704953E+03 -0.98200540889E+02  0.25214452043E+03  0.12508714021E+03 0.  0.
          5    1    3    3  502    0  0.61894058353E+02 -0.19570150838E+03 -0.83811846323E+02  0.22174727242E+03  0.41800000000E+01 0.  1.
         -5    1    3    3    0  502  0.19566373959E+02  0.17794458843E+02 -0.14388694565E+02  0.30397248012E+02  0.41800000000E+01 0.  1.
        -11    1    1    2    0    0 -0.29186968662E+02  0.12708645824E+03 -0.30800933105E+02  0.13398337392E+03  0.00000000000E+00 0.  1.
         11    1    1    2    0    0 -0.52273463650E+02  0.50820591292E+02 -0.82856342818E+02  0.11036494483E+03  0.00000000000E+00 0. -1.
</event>
<event>
 7    1  0.2810263E-009  0.1781919E+03  0.7561462E-02  0.1169564E+00
          1   -1    0    0  501    0  0.00000000000E+00  0.00000000000E+00  0.32409501787E+03  0.32409501787E+03  0.00000000000E+00 0. -1.
         -1   -1    0    0    0  501 -0.00000000000E+00 -0.00000000000E+00 -0.19490259662E+03  0.19490259662E+03  0.00000000000E+00 0.  1.
         25    2    1    2    0    0 -0.58369739926E+02 -0.68492756200E+02  0.10572311186E+03  0.18687748188E+03  0.12509009817E+03 0.  0.
          5    1    3    3  502    0  0.11591191447E+02 -0.64119197257E+02  0.95834370335E+02  0.11596260653E+03  0.41800000000E+01 0.  1.
         -5    1    3    3    0  502 -0.69960931373E+02 -0.43735589433E+01  0.98887415198E+01  0.70914875345E+02  0.41800000000E+01 0.  1.
        -11    1    1    2    0    0 -0.32154125636E+02 -0.57410121466E+02  0.12881847084E+03  0.14465133346E+03  0.00000000000E+00 0. -1.
         11    1    1    2    0    0  0.90523865562E+02  0.12590287767E+03 -0.10534916144E+03  0.18746879916E+03  0.00000000000E+00 0.  1.
</event>
<event>
 7    1  0.2810263E-009  0.1592912E+03  0.7561462E-02  0.1189499E+00
          1   -1    0    0  501    0  0.00000000000E+00  0.00000000000E+00  0.39619302369E+03  0.39619302369E+03  0.00000000000E+00 0. -1.
         -1   -1    0    0    0  501 -0.00000000000E+00 -0.00000000000E+00 -0.91605541687E+02  0.91605541687E+02  0.00000000000E+00 0.  1.
         25    2    1    2    0    0  0.88559531761E+02  0.11273226849E+03  0.10463034152E+03  0.21712898712E+03  0.12508450607E+03 0.  0.
          5    1    3    3  502    0  0.43792688685E+02 -0.73967618848E+01 -0.93013582665E+01  0.45568622255E+02  0.41800000000E+01 0.  1.
         -5    1    3    3    0  502  0.44766843076E+02  0.12012903037E+03  0.11393169978E+03  0.17156036486E+03  0.41800000000E+01 0.  1.
        -11    1    1    2    0    0 -0.78061472354E+02 -0.10995435671E+03  0.21398529888E+03  0.25292936200E+03  0.00000000000E+00 0. -1.
         11    1    1    2    0    0 -0.10498059408E+02 -0.27779117777E+01 -0.14028158390E+02  0.17740216261E+02  0.00000000000E+00 0.  1.
</event>
<event>
 7    1  0.2810263E-009  0.1359190E+03  0.7561462E-02  0.1218928E+00
         -1   -1    0    0    0  501 -0.00000000000E+00  0.00000000000E+00  0.30316893997E+02  0.30316893997E+02  0.00000000000E+00 0.  1.
          1   -1    0    0  501    0  0.00000000000E+00 -0.00000000000E+00 -0.10795533832E+04  0.10795533832E+04  0.00000000000E+00 0. -1.
         25    2    1    2    0    0  0.20017821042E+02  0.84454928451E+02 -0.90885094754E+03  0.92151533226E+03  0.12508842736E+03 0.  0.
          5    1    3    3  502    0  0.12230206109E+02  0.11470884215E+03 -0.59563784064E+03  0.60672036888E+03  0.41800000000E+01 0.  1.
         -5    1    3    3    0  502  0.77876149338E+01 -0.30253913702E+02 -0.31321310690E+03  0.31479496338E+03  0.41800000000E+01 0.  1.
        -11    1    1    2    0    0 -0.20385515649E+02  0.15075156086E+02 -0.20993716428E+02  0.32917559277E+02  0.00000000000E+00 0.  1.
         11    1    1    2    0    0  0.36769460632E+00 -0.99530084536E+02 -0.11939182525E+03  0.15543738567E+03  0.00000000000E+00 0. -1.
</event>
<event>
 7    1  0.2810263E-009  0.2795245E+03  0.7561462E-02  0.1095949E+00
          1   -1    0    0  501    0  0.00000000000E+00  0.00000000000E+00  0.74471117373E+03  0.74471117373E+03  0.00000000000E+00 0. -1.
         -1   -1    0    0    0  501 -0.00000000000E+00 -0.00000000000E+00 -0.11261154934E+03  0.11261154934E+03  0.00000000000E+00 0.  1.
         25    2    1    2    0    0 -0.21545758037E+03 -0.15218613670E+03  0.39620741472E+03  0.49215233557E+03  0.12510402386E+03 0.  0.
          5    1    3    3  502    0 -0.11107483895E+03 -0.21886195184E+02  0.95451948723E+02  0.14813903032E+03  0.41800000000E+01 0.  1.
         -5    1    3    3    0  502 -0.10438274142E+03 -0.13029994152E+03  0.30075546599E+03  0.34401330525E+03  0.41800000000E+01 0.  1.
        -11    1    1    2    0    0  0.14326386500E+03  0.46224199833E+02  0.12707304217E+03  0.19699941551E+03  0.00000000000E+00 0.  1.
         11    1    1    2    0    0  0.72193715369E+02  0.10596193687E+03  0.10881916751E+03  0.16817097199E+03  0.00000000000E+00 0. -1.
</event>
<event>
 7    1  0.2810263E-009  0.2054821E+03  0.7561462E-02  0.1145194E+00
         -1   -1    0    0    0  501 -0.00000000000E+00  0.00000000000E+00  0.85309325066E+03  0.85309325066E+03  0.00000000000E+00 0.  1.
          1   -1    0    0  501    0  0.00000000000E+00 -0.00000000000E+00 -0.70823409680E+02  0.70823409680E+02  0.00000000000E+00 0. -1.
         25    2    1    2    0    0 -0.10548428086E+03  0.16354194667E+03  0.59710954384E+03  0.64036079743E+03  0.12509692925E+03 0.  0.
          5    1    3    3  502    0 -0.11340977154E+03  0.11218581855E+03  0.31111104874E+03  0.34964981226E+03  0.41800000000E+01 0. -1.
         -5    1    3    3    0  502  0.79254906813E+01  0.51356128124E+02  0.28599849511E+03  0.29071098518E+03  0.41800000000E+01 0. -1.
        -11    1    1    2    0    0  0.83757979429E+02 -0.91676409523E+02  0.16370333440E+03  0.20547200508E+03  0.00000000000E+00 0.  1.
         11    1    1    2    0    0  0.21726301429E+02 -0.71865537147E+02  0.21456962743E+02  0.78083857829E+02  0.00000000000E+00 0. -1.
</event>
<event>
 7    1  0.2810263E-009  0.1795396E+03  0.7561462E-02  0.1168249E+00
         -2   -1    0    0    0  501 -0.00000000000E+00  0.00000000000E+00  0.18294052573E+03  0.18294052573E+03  0.00000000000E+00 0.  1.
          2   -1    0    0  501    0  0.00000000000E+00 -0.00000000000E+00 -0.27881508054E+03  0.27881508054E+03  0.00000000000E+00 0. -1.
         25    2    1    2    0    0 -0.16768395097E+03 -0.27656062848E+02  0.54437803296E+02  0.21793159498E+03  0.12509172810E+03 0.  0.
          5    1    3    3  502    0 -0.12070367410E+03 -0.67740215802E+01 -0.24705424409E+02  0.12346292846E+03  0.41800000000E+01 0.  1.
         -5    1    3    3    0  502 -0.46980276866E+02 -0.20882041267E+02  0.79143227705E+02  0.94468666517E+02  0.41800000000E+01 0.  1.
        -11    1    1    2    0    0  0.62773954652E+02  0.48801264702E+02 -0.36152458655E+02  0.87344908758E+02  0.00000000000E+00 0.  1.
         11    1    1    2    0    0  0.10490999631E+03 -0.21145201855E+02 -0.11415989944E+03  0.15647910253E+03  0.00000000000E+00 0. -1.
</event>
<event>
 7    1  0.2810263E-009  0.9646036E+02  0.7561462E-02  0.1287920E+00
         -1   -1    0    0    0  501 -0.00000000000E+00  0.00000000000E+00  0.16747024607E+03  0.16747024607E+03  0.00000000000E+00 0.  1.
          1   -1    0    0  501    0  0.00000000000E+00 -0.00000000000E+00 -0.97059711560E+02  0.97059711560E+02  0.00000000000E+00 0. -1.
         25    2    1    2    0    0  0.63298105160E+02  0.19653487300E+02  0.26214195856E+02  0.14396546499E+03  0.12508381736E+03 0.  0.
          5    1    3    3  502    0  0.19350723241E+02 -0.15390668937E+02 -0.45980644154E+02  0.52373802774E+02  0.41800000000E+01 0. -1.
         -5    1    3    3    0  502  0.43947381920E+02  0.35044156237E+02  0.72194840009E+02  0.91591662218E+02  0.41800000000E+01 0. -1.
        -11    1    1    2    0    0 -0.32109218759E+02  0.35656393177E+02  0.12443714895E+02  0.49570418034E+02  0.00000000000E+00 0. -1.
         11    1    1    2    0    0 -0.31188886401E+02 -0.55309880477E+02  0.31752623762E+02  0.70994074606E+02  0.00000000000E+00 0.  1.
</event>
<event>
 7    1  0.2810263E-009  0.9842831E+02  0.7561462E-02  0.1283636E+00
          2   -1    0    0  501    0  0.00000000000E+00  0.00000000000E+00  0.64685293773E+02  0.64685293773E+02  0.00000000000E+00 0. -1.
         -2   -1    0    0    0  501 -0.00000000000E+00 -0.00000000000E+00 -0.22074712213E+03  0.22074712213E+03  0.00000000000E+00 0.  1.
         25    2    1    2    0    0 -0.33672511439E+02 -0.46888078200E+02 -0.10396760462E+03  0.17258933471E+03  0.12508191611E+03 0.  0.
          5    1    3    3  502    0  0.25911288342E+02 -0.12339828382E+02  0.16787033509E+02  0.33510343508E+02  0.41800000000E+01 0. -1.
         -5    1    3    3    0  502 -0.59583799781E+02 -0.34548249819E+02 -0.12075463813E+03  0.13907899120E+03  0.41800000000E+01 0. -1.
        -11    1    1    2    0    0 -0.26415989907E+02  0.94520993423E+01 -0.70374033974E+01  0.28925278760E+02  0.00000000000E+00 0. -1.
         11    1    1    2    0    0  0.60088501347E+02  0.37435978858E+02 -0.45056820333E+02  0.83917802436E+02  0.00000000000E+00 0.  1.
</event>
<event>
 7    1  0.2810263E-009  0.1029988E+03  0.7561462E-02  0.1274113E+00
          2   -1    0    0  501    0  0.00000000000E+00  0.00000000000E+00  0.73664033866E+03  0.73664033866E+03  0.00000000000E+00 0. -1.
         -2   -1    0    0    0  501 -0.00000000000E+00 -0.00000000000E+00 -0.24495356615E+02  0.24495356615E+02  0.00000000000E+00 0.  1.
         25    2    1    2    0    0 -0.27789345763E+02 -0.57227023049E+02  0.25538490353E+03  0.29140370084E+03  0.12508991969E+03 0.  0.
          5    1    3    3  502    0  0.24863400948E+02 -0.17187494433E+02  0.32305517177E+01  0.30683994785E+02  0.41800000000E+01 0. -1.
         -5    1    3    3    0  502 -0.52652746711E+02 -0.40039528616E+02  0.25215435181E+03  0.26071970605E+03  0.41800000000E+01 0. -1.
        -11    1    1    2    0    0  0.28128173286E+02 -0.18377472127E+02  0.12215797020E+03  0.12669449593E+03  0.00000000000E+00 0.  1.
         11    1    1    2    0    0 -0.33882752351E+00  0.75604495176E+02  0.33460210831E+03  0.34303749851E+03  0.00000000000E+00 0. -1.
</event>
<event>
 7    1  0.3439087E-009  0.1017945E+03  0.7561462E-02  0.1276567E+00
         -1   -1    0    0    0  501 -0.00000000000E+00  0.00000000000E+00  0.20157031026E+02  0.20157031026E+02  0.00000000000E+00 0.  1.
          1   -1    0    0  501    0  0.00000000000E+00 -0.00000000000E+00 -0.95302109928E+03  0.95302109928E+03  0.00000000000E+00 0. -1.
         25    2    1    2    0    0 -0.60513845141E+02  0.35283967761E+02 -0.68689625179E+03  0.70169826817E+03  0.12508842875E+03 0.  0.
          5    1    3    3  502    0 -0.22399055279E+02 -0.29936770231E+02 -0.64111914582E+02  0.74335307093E+02  0.41800000000E+01 0.  1.
         -5    1    3    3    0  502 -0.38114789862E+02  0.65220737992E+02 -0.62278433720E+03  0.62736296108E+03  0.41800000000E+01 0.  1.
        -11    1    1    2    0    0  0.13270987136E+02  0.15863802980E+02 -0.58841244785E+01  0.21503540765E+02  0.00000000000E+00 0.  1.
         11    1    1    2    0    0  0.47242858006E+02 -0.51147770741E+02 -0.24008369199E+03  0.24997632137E+03  0.00000000000E+00 0. -1.
</event>
<event>
 7    1  0.2810263E-009  0.1334065E+03  0.7561462E-02  0.1222487E+00
         -2   -1    0    0    0  501 -0.00000000000E+00  0.00000000000E+00  0.44866600723E+02  0.44866600723E+02  0.00000000000E+00 0.  1.
          2   -1    0    0  501    0  0.00000000000E+00 -0.00000000000E+00 -0.47375840553E+03  0.47375840553E+03  0.00000000000E+00 0. -1.
         25    2    1    2    0    0  0.36108925015E+02 -0.87427478984E+02 -0.22163796788E+03  0.27151061301E+03  0.12508879095E+03 0.  0.
          5    1    3    3  502    0 -0.11488350073E+02 -0.84630115393E+02 -0.20277241666E+03  0.22006445414E+03  0.41800000000E+01 0. -1.
         -5    1    3    3    0  502  0.47597275088E+02 -0.27973635909E+01 -0.18865551224E+02  0.51446158864E+02  0.41800000000E+01 0. -1.
        -11    1    1    2    0    0 -0.26471323943E+02 -0.15091551492E+02 -0.34773531532E+02  0.46235099361E+02  0.00000000000E+00 0. -1.
         11    1    1    2    0    0 -0.96376010718E+01  0.10251903048E+03 -0.17248030539E+03  0.20087929388E+03  0.00000000000E+00 0.  1.
</event>
<event>
 7    1  0.2810263E-009  0.1225191E+03  0.7561462E-02  0.1238998E+00
          2   -1    0    0  501    0  0.00000000000E+00  0.00000000000E+00  0.27677504858E+04  0.27677504858E+04  0.00000000000E+00 0. -1.
         -2   -1    0    0    0  501 -0.00000000000E+00 -0.00000000000E+00 -0.19626854743E+02  0.19626854743E+02  0.00000000000E+00 0.  1.
         25    2    1    2    0    0 -0.10148031871E+03 -0.44641920977E+02  0.24573221439E+04  0.24629998630E+04  0.12508017360E+03 0.  0.
          5    1    3    3  502    0 -0.41369079522E+01  0.74144247037E+01  0.13793187418E+04  0.13793512068E+04  0.41800000000E+01 0. -1.
         -5    1    3    3    0  502 -0.97343410761E+02 -0.52056345681E+02  0.10780034021E+04  0.10836486562E+04  0.41800000000E+01 0. -1.
        -11    1    1    2    0    0  0.33350652495E+01 -0.11544594726E+02 -0.36246207156E+00  0.12022134018E+02  0.00000000000E+00 0.  1.
         11    1    1    2    0    0  0.98145253463E+02  0.56186515703E+02  0.29116394921E+03  0.31235534355E+03  0.00000000000E+00 0. -1.
</event>
<event>
 7    1  0.2810263E-009  0.1085439E+03  0.7561462E-02  0.1263290E+00
         -2   -1    0    0    0  501 -0.00000000000E+00  0.00000000000E+00  0.15684969667E+03  0.15684969667E+03  0.00000000000E+00 0.  1.
          2   -1    0    0  501    0  0.00000000000E+00 -0.00000000000E+00 -0.11862811585E+03  0.11862811585E+03  0.00000000000E+00 0. -1.
         25    2    1    2    0    0 -0.84081793350E+02  0.11484760019E+02  0.22520819894E+02  0.15283033341E+03  0.12509306853E+03 0.  0.
          5    1    3    3  502    0 -0.60069195594E+02 -0.37820365288E+02 -0.29632710903E+02  0.77034136883E+02  0.41800000000E+01 0. -1.
         -5    1    3    3    0  502 -0.24012597755E+02  0.49305125308E+02  0.52153530797E+02  0.75796196522E+02  0.41800000000E+01 0. -1.
        -11    1    1    2    0    0  0.48643813006E+02  0.98288666211E+01  0.48858822120E+02  0.69642025113E+02  0.00000000000E+00 0.  1.
         11    1    1    2    0    0  0.35437980344E+02 -0.21313626640E+02 -0.33158061192E+02  0.53005453997E+02  0.00000000000E+00 0. -1.
</event>
<event>
 7    1  0.2810263E-009  0.1153137E+03  0.7561462E-02  0.1251034E+00
          2   -1    0    0  501    0  0.00000000000E+00  0.00000000000E+00  0.63049147916E+03  0.63049147916E+03  0.00000000000E+00 0. -1.
         -2   -1    0    0    0  501 -0.00000000000E+00 -0.00000000000E+00 -0.26534237570E+02  0.26534237570E+02  0.00000000000E+00 0.  1.
         25    2    1    2    0    0  0.47955109298E+02  0.34753882858E+02  0.23901955749E+03  0.27619765475E+03  0.12508905125E+03 0.  0.
          5    1    3    3  502    0  0.83757395280E+02  0.41897404682E+02  0.12398374317E+03  0.15543530729E+03  0.41800000000E+01 0.  1.
         -5    1    3    3    0  502 -0.35802285981E+02 -0.71435218240E+01  0.11503581433E+03  0.12076234746E+03  0.41800000000E+01 0.  1.
        -11    1    1    2    0    0 -0.43189895681E+02  0.18272109748E+02  0.24725134439E+03  0.25165942141E+03  0.00000000000E+00 0. -1.
         11    1    1    2    0    0 -0.47652136166E+01 -0.53025992606E+02  0.11768633971E+03  0.12916864057E+03  0.00000000000E+00 0.  1.
</event>
<event>
 7    1  0.2810263E-009  0.1296038E+03  0.7561462E-02  0.1228045E+00
         -2   -1    0    0    0  501 -0.00000000000E+00  0.00000000000E+00  0.68152789336E+02  0.68152789336E+02  0.00000000000E+00 0.  1.
          2   -1    0    0  501    0  0.00000000000E+00 -0.00000000000E+00 -0.32417426506E+03  0.32417426506E+03  0.00000000000E+00 0. -1.
         25    2    1    2    0    0 -0.69656226133E+02  0.29948758373E+02 -0.50096981239E+02  0.15461347265E+03  0.12508677159E+03 0.  0.
          5    1    3    3  502    0 -0.63045206022E+02 -0.37850149038E+02 -0.72027185200E+01  0.74004617009E+02  0.41800000000E+01 0.  1.
         -5    1    3    3    0  502 -0.66110201104E+01  0.67798907411E+02 -0.42894262719E+02  0.80608855638E+02  0.41800000000E+01 0.  1.
        -11    1    1    2    0    0  0.53063443382E+02  0.25898060177E+02 -0.12215021272E+03  0.13567281603E+03  0.00000000000E+00 0. -1.
         11    1    1    2    0    0  0.16592782750E+02 -0.55846818550E+02 -0.83774281769E+02  0.10204076571E+03  0.00000000000E+00 0.  1.
</event>
<event>
 7    1  0.2810263E-009  0.1039187E+03  0.7561462E-02  0.1272265E+00
          2   -1    0    0  501    0  0.00000000000E+00  0.00000000000E+00  0.88027091246E+03  0.88027091246E+03  0.00000000000E+00 0. -1.
         -2   -1    0    0    0  501 -0.00000000000E+00 -0.00000000000E+00 -0.26791858186E+02  0.26791858186E+02  0.00000000000E+00 0.  1.
         25    2    1    2    0    0  0.69742077597E+01  0.41890665988E+02  0.67769336422E+03  0.69044858193E+03  0.12508989133E+03 0.  0.
          5    1    3    3  502    0 -0.44429608057E+01  0.60473057499E+02  0.65789877186E+03  0.66070038368E+03  0.41800000000E+01 0.  1.
         -5    1    3    3    0  502  0.11417168565E+02 -0.18582391511E+02  0.19794592360E+02  0.29748198249E+02  0.41800000000E+01 0.  1.
        -11    1    1    2    0    0  0.54964820126E+02 -0.12875511680E+02  0.97443629944E+02  0.11261514671E+03  0.00000000000E+00 0.  1.
         11    1    1    2    0    0 -0.61939027886E+02 -0.29015154309E+02  0.78342060109E+02  0.10399904200E+03  0.00000000000E+00 0. -1.
</event>
<event>
 7    1  0.2810263E-009  0.1641596E+03  0.7561462E-02  0.1184079E+00
         -2   -1    0    0    0  501 -0.00000000000E+00  0.00000000000E+00  0.95274221444E+02  0.95274221444E+02  0.00000000000E+00 0.  1.
          2   -1    0    0  501    0  0.00000000000E+00 -0.00000000000E+00 -0.35663030419E+03  0.35663030419E+03  0.00000000000E+00 0. -1.
         25    2    1    2    0    0 -0.11147514605E+03  0.90960732506E+02 -0.18034250413E+03  0.26243391923E+03  0.12509028786E+03 0.  0.
          5    1    3    3  502    0 -0.10905586377E+03  0.53090973600E+02 -0.18773521246E+03  0.22354823931E+03  0.41800000000E+01 0.  1.
         -5    1    3    3    0  502 -0.24192822809E+01  0.37869758907E+02  0.73927083239E+01  0.38885679919E+02  0.41800000000E+01 0.  1.
        -11    1    1    2    0    0  0.88000951441E+02 -0.10833555696E+03 -0.53898091284E+02  0.14961873078E+03  0.00000000000E+00 0. -1.
         11    1    1    2    0    0  0.23474194614E+02  0.17374824457E+02 -0.27115487331E+02  0.39851875626E+02  0.00000000000E+00 0.  1.
</event>
<event>
 7    1  0.2810263E-009  0.7916946E+02  0.7561462E-02  0.1331425E+00
         -2   -1    0    0    0  501 -0.00000000000E+00  0.00000000000E+00  0.54514607772E+02  0.54514607772E+02  0.00000000000E+00 0.  1.
          2   -1    0    0  501    0  0.00000000000E+00 -0.00000000000E+00 -0.24373097491E+03  0.24373097491E+03  0.00000000000E+00 0. -1.
         25    2    1    2    0    0  0.36205991890E+02  0.13056336242E+02 -0.10637658427E+03  0.16865491386E+03  0.12508861068E+03 0.  0.
          5    1    3    3  502    0  0.16449432669E+02  0.49359274204E+02  0.23643060841E+01  0.52249250026E+02  0.41800000000E+01 0. -1.
         -5    1    3    3    0  502  0.19756559221E+02 -0.36302937962E+02 -0.10874089035E+03  0.11640566383E+03  0.41800000000E+01 0. -1.
        -11    1    1    2    0    0 -0.33354234755E+02  0.14878069307E+02  0.54652161597E+01  0.36928722021E+02  0.00000000000E+00 0.  1.
         11    1    1    2    0    0 -0.28517571345E+01 -0.27934405548E+02 -0.88304999025E+02  0.92661946800E+02  0.00000000000E+00 0. -1.
</event>
<event>
 7    1  0.2810263E-009  0.1431620E+03  0.7561462E-02  0.1209137E+00
         -2   -1    0    0    0  501 -0.00000000000E+00  0.00000000000E+00  0.29533228003E+02  0.29533228003E+02  0.00000000000E+00 0.  1.
          2   -1    0    0  501    0  0.00000000000E+00 -0.00000000000E+00 -0.81400829929E+03  0.81400829929E+03  0.00000000000E+00 0. -1.
         25    2    1    2    0    0  0.10772524768E+03  0.17482980948E+02 -0.46464111367E+03  0.49340566345E+03  0.12508957029E+03 0.  0.
          5    1    3    3  502    0  0.11188260788E+03 -0.19692436988E+02 -0.23913899706E+03  0.26478376525E+03  0.41800000000E+01 0.  1.
         -5    1    3    3    0  502 -0.41573601995E+01  0.37175417935E+02 -0.22550211661E+03  0.22862189820E+03  0.41800000000E+01 0.  1.
        -11    1    1    2    0    0 -0.87552347917E+02 -0.46909564640E+02 -0.17752983984E+03  0.20342754217E+03  0.00000000000E+00 0. -1.
         11    1    1    2    0    0 -0.20172899765E+02  0.29426583692E+02 -0.14230411778E+03  0.14670832168E+03  0.00000000000E+00 0.  1.
</event>
<event>
 7    1  0.2810263E-009  0.1296046E+03  0.7561462E-02  0.1228044E+00
          1   -1    0    0  501    0  0.00000000000E+00  0.00000000000E+00  0.94557927492E+02  0.94557927492E+02  0.00000000000E+00 0. -1.
         -1   -1    0    0    0  501 -0.00000000000E+00 -0.00000000000E+00 -0.22633011758E+03  0.22633011758E+03  0.00000000000E+00 0.  1.
         25    2    1    2    0    0 -0.56485963473E+02 -0.78527009715E+02 -0.57700352529E+02  0.16832658284E+03  0.12508937799E+03 0.  0.
          5    1    3    3  502    0 -0.49384799729E+02  0.14419363690E+01 -0.71246094555E+02  0.86801013900E+02  0.41800000000E+01 0. -1.
         -5    1    3    3    0  502 -0.71011637438E+01 -0.79968946084E+02  0.13545742026E+02  0.81525568942E+02  0.41800000000E+01 0. -1.
        -11    1    1    2    0    0  0.58779341743E+02  0.87585177244E+01 -0.15445801070E+02  0.61402731366E+02  0.00000000000E+00 0. -1.
         11    1    1    2    0    0 -0.22933782703E+01  0.69768491990E+02 -0.58626036487E+02  0.91158730864E+02  0.00000000000E+00 0.  1.
</event>
<event>
 7    1  0.2810263E-009  0.1910397E+03  0.7561462E-02  0.1157527E+00
          1   -1    0    0  501    0  0.00000000000E+00  0.00000000000E+00  0.96418223123E+02  0.96418223123E+02  0.00000000000E+00 0. -1.
         -1   -1    0    0    0  501 -0.00000000000E+00 -0.00000000000E+00 -0.41262217564E+03  0.41262217564E+03  0.00000000000E+00 0.  1.
         25    2    1    2    0    0  0.10392110276E+03  0.12862588223E+03 -0.19502564475E+03  0.28464443676E+03  0.12507293909E+03 0.  0.
          5    1    3    3  502    0  0.10913559008E+03  0.42318072902E+02 -0.13789692673E+03  0.18092659041E+03  0.41800000000E+01 0.  1.
         -5    1    3    3    0  502 -0.52144873222E+01  0.86307809326E+02 -0.57128718012E+02  0.10371784634E+03  0.41800000000E+01 0.  1.
        -11    1    1    2    0    0 -0.16118938784E+02 -0.72287695463E+02 -0.87795187514E+02  0.11486220463E+03  0.00000000000E+00 0.  1.
         11    1    1    2    0    0 -0.87802163971E+02 -0.56338186765E+02 -0.33383120257E+02  0.10953375737E+03  0.00000000000E+00 0. -1.
</event>
<event>
 7    1  0.2810263E-009  0.1203087E+03  0.7561462E-02  0.1242589E+00
          1   -1    0    0  501    0  0.00000000000E+00  0.00000000000E+00  0.11546275542E+03  0.11546275542E+03  0.00000000000E+00 0. -1.
         -1   -1    0    0    0  501 -0.00000000000E+00 -0.00000000000E+00 -0.16277314533E+03  0.16277314533E+03  0.00000000000E+00 0.  1.
         25    2    1    2    0    0  0.55916751629E+02  0.61729184094E+02 -0.13545511426E+02  0.15088959930E+03  0.12508802906E+03 0.  0.
          5    1    3    3  502    0  0.80455557010E+02  0.37917343832E+02  0.31263392718E+02  0.94369983264E+02  0.41800000000E+01 0.  1.
         -5    1    3    3    0  502 -0.24538805380E+02  0.23811840261E+02 -0.44808904144E+02  0.56519616035E+02  0.41800000000E+01 0.  1.
        -11    1    1    2    0    0 -0.76365846895E+01  0.20443055613E+02 -0.22553479606E+02  0.31383043047E+02  0.00000000000E+00 0.  1.
         11    1    1    2    0    0 -0.48280166940E+02 -0.82172239707E+02 -0.11211398876E+02  0.95963258401E+02  0.00000000000E+00 0. -1.
</event>
<event>
 7    1  0.3272192E-009  0.1198873E+03  0.7561462E-02  0.1243283E+00
          2   -1    0    0  501    0  0.00000000000E+00  0.00000000000E+00  0.47463346555E+02  0.47463346555E+02  0.00000000000E+00 0. -1.
         -2   -1    0    0    0  501 -0.00000000000E+00 -0.00000000000E+00 -0.39750866966E+03  0.39750866966E+03  0.00000000000E+00 0.  1.
         25    2    1    2    0    0  0.76969177927E+02  0.33741946112E+02 -0.19044387578E+03  0.24285894700E+03  0.12509526386E+03 0.  0.
          5    1    3    3  502    0  0.99627451006E+02  0.59043894363E+02 -0.15570030935E+03  0.19409242434E+03  0.41800000000E+01 0.  1.
         -5    1    3    3    0  502 -0.22658273079E+02 -0.25301948251E+02 -0.34743566437E+02  0.48766522666E+02  0.41800000000E+01 0.  1.
        -11    1    1    2    0    0 -0.60151211651E+02 -0.10625922695E+02 -0.16228591929E+03  0.17340068655E+03  0.00000000000E+00 0.  1.
         11    1    1    2    0    0 -0.16817966276E+02 -0.23116023417E+02  0.26844719676E+01  0.28712382660E+02  0.00000000000E+00 0. -1.
</event>
<event>
 7    1  0.2810263E-009  0.9994235E+02  0.7561462E-02  0.1280417E+00
         -1   -1    0    0    0  501 -0.00000000000E+00  0.00000000000E+00  0.98223208588E+02  0.98223208588E+02  0.00000000000E+00 0.  1.
          1   -1    0    0  501    0  0.00000000000E+00 -0.00000000000E+00 -0.14735254688E+03  0.14735254688E+03  0.00000000000E+00 0. -1.
         25    2    1    2    0    0 -0.43786887700E+02 -0.88121298877E+01 -0.15257276805E+01  0.13283000570E+03  0.12508611994E+03 0.  0.
          5    1    3    3  502    0  0.43344361065E+02  0.40782976650E+01  0.67903300615E+01  0.44259994694E+02  0.41800000000E+01 0.  1.
         -5    1    3    3    0  502 -0.87131248765E+02 -0.12890427553E+02 -0.83160577420E+01  0.88570011009E+02  0.41800000000E+01 0.  1.
        -11    1    1    2    0    0  0.46943199644E+02 -0.10747091256E+02  0.12255848574E+02  0.49692753874E+02  0.00000000000E+00 0.  1.
         11    1    1    2    0    0 -0.31563119436E+01  0.19559221144E+02 -0.59859459189E+02  0.63052995894E+02  0.00000000000E+00 0. -1.
</event>
<event>
 7    1  0.2810263E-009  0.1223813E+03  0.7561462E-02  0.1239220E+00
          1   -1    0    0  501    0  0.00000000000E+00  0.00000000000E+00  0.15836435371E+03  0.15836435371E+03  0.00000000000E+00 0. -1.
         -1   -1    0    0    0  501 -0.00000000000E+00 -0.00000000000E+00 -0.22496727617E+03  0.22496727617E+03  0.00000000000E+00 0.  1.
         25    2    1    2    0    0  0.16851900014E+02  0.10018502478E+03 -0.15344051957E+03  0.22251451047E+03  0.12509072147E+03 0.  0.
          5    1    3    3  502    0  0.81171257810E+01 -0.16548211028E+01 -0.11160733884E+03  0.11199239548E+03  0.41800000000E+01 0. -1.
         -5    1    3    3    0  502  0.87347742328E+01  0.10183984588E+03 -0.41833180736E+02  0.11052211498E+03  0.41800000000E+01 0. -1.
        -11    1    1    2    0    0  0.10658669776E+02  0.12938707950E+02  0.21673098039E+02  0.27399645681E+02  0.00000000000E+00 0. -1.
         11    1    1    2    0    0 -0.27510569790E+02 -0.11312373273E+03  0.65164499082E+02  0.13341747373E+03  0.00000000000E+00 0.  1.
</event>
<event>
 7    1  0.2810263E-009  0.1043390E+03  0.7561462E-02  0.1271427E+00
          2   -1    0    0  501    0  0.00000000000E+00  0.00000000000E+00  0.28825424882E+03  0.28825424882E+03  0.00000000000E+00 0. -1.
         -2   -1    0    0    0  501 -0.00000000000E+00 -0.00000000000E+00 -0.52690221301E+02  0.52690221301E+02  0.00000000000E+00 0.  1.
         25    2    1    2    0    0  0.20495444833E+02  0.39483191736E+02  0.79096297692E+02  0.15453978572E+03  0.12508930959E+03 0.  0.
          5    1    3    3  502    0  0.67694657762E+02  0.45209085430E+02  0.32237759783E+02  0.87653714415E+02  0.41800000000E+01 0.  1.
         -5    1    3    3    0  502 -0.47199212928E+02 -0.57258936939E+01  0.46858537909E+02  0.66886071305E+02  0.41800000000E+01 0.  1.
        -11    1    1    2    0    0 -0.43136289365E+02 -0.36684908761E+02  0.15323576137E+03  0.16336376756E+03  0.00000000000E+00 0. -1.
         11    1    1    2    0    0  0.22640844532E+02 -0.27982829747E+01  0.32319684641E+01  0.23040916841E+02  0.00000000000E+00 0.  1.
</event>
<event>
 7    1  0.2810263E-009  0.1157059E+03  0.7561462E-02  0.1250354E+00
         -2   -1    0    0    0  501 -0.00000000000E+00  0.00000000000E+00  0.23919620088E+03  0.23919620088E+03  0.00000000000E+00 0.  1.
          2   -1    0    0  501    0  0.00000000000E+00 -0.00000000000E+00 -0.10186976423E+03  0.10186976423E+03  0.00000000000E+00 0. -1.
         25    2    1    2    0    0 -0.77209526630E+02 -0.40776441630E+02  0.14788181515E+03  0.21245942499E+03  0.12508375922E+03 0.  0.
          5    1    3    3  502    0  0.67808213152E+01 -0.44085537373E+02  0.29898772918E+01  0.44899063569E+02  0.41800000000E+01 0. -1.
         -5    1    3    3    0  502 -0.83990347946E+02  0.33090957421E+01  0.14489193786E+03  0.16756036142E+03  0.41800000000E+01 0. -1.
        -11    1    1    2    0    0  0.14114584996E+00 -0.10103323438E+02  0.27064547876E+02  0.28889216299E+02  0.00000000000E+00 0.  1.
         11    1    1    2    0    0  0.77068380780E+02  0.50879765068E+02 -0.37619926380E+02  0.99717323823E+02  0.00000000000E+00 0. -1.
</event>
<event>
 7    1  0.2810263E-009  0.8425321E+02  0.7561462E-02  0.1317397E+00
          2   -1    0    0  501    0  0.00000000000E+00  0.00000000000E+00  0.92176205179E+02  0.92176205179E+02  0.00000000000E+00 0. -1.
         -2   -1    0    0    0  501 -0.00000000000E+00 -0.00000000000E+00 -0.19333589761E+03  0.19333589761E+03  0.00000000000E+00 0.  1.
         25    2    1    2    0    0  0.79591652597E+01 -0.24313085307E+01 -0.13599775018E+03  0.18496538331E+03  0.12509014908E+03 0.  0.
          5    1    3    3  502    0  0.56528951375E+02 -0.95349933720E+01 -0.23396475355E+02  0.62058890589E+02  0.41800000000E+01 0.  1.
         -5    1    3    3    0  502 -0.48569786115E+02  0.71036848413E+01 -0.11260127483E+03  0.12290649273E+03  0.41800000000E+01 0.  1.
        -11    1    1    2    0    0 -0.22813591414E+02  0.25568944494E+02  0.56135269859E+02  0.65767768685E+02  0.00000000000E+00 0. -1.
         11    1    1    2    0    0  0.14854426154E+02 -0.23137635963E+02 -0.21297212107E+02  0.34778950788E+02  0.00000000000E+00 0.  1.
</event>
<event>
 7    1  0.2810263E-009  0.1498844E+03  0.7561462E-02  0.1200615E+00
          2   -1    0    0  501    0  0.00000000000E+00  0.00000000000E+00  0.53027612555E+03  0.53027612555E+03  0.00000000000E+00 0. -1.
         -2   -1    0    0    0  501 -0.00000000000E+00 -0.00000000000E+00 -0.55333505471E+02  0.55333505471E+02  0.00000000000E+00 0.  1.
         25    2    1    2    0    0  0.13091367499E+03 -0.12612769654E+02  0.31267615794E+03  0.36154040866E+03  0.12509042767E+03 0.  0.
          5    1    3    3  502    0  0.13702533189E+03  0.16613694043E+02  0.29705580241E+03  0.32758446018E+03  0.41800000000E+01 0. -1.
         -5    1    3    3    0  502 -0.61116569000E+01 -0.29226463697E+02  0.15620355531E+02  0.33955948481E+02  0.41800000000E+01 0. -1.
        -11    1    1    2    0    0 -0.85121064490E+02  0.88519906392E+01  0.15568109921E+03  0.17765291444E+03  0.00000000000E+00 0. -1.
         11    1    1    2    0    0 -0.45792610497E+02  0.37607790152E+01  0.65853629207E+01  0.46416307907E+02  0.00000000000E+00 0.  1.
</event>
<event>
 7    1  0.2810263E-009  0.6323730E+02  0.7561462E-02  0.1384727E+00
          1   -1    0    0  501    0  0.00000000000E+00  0.00000000000E+00  0.78746265125E+02  0.78746265125E+02  0.00000000000E+00 0. -1.
         -1   -1    0    0    0  501 -0.00000000000E+00 -0.00000000000E+00 -0.18559959525E+03  0.18559959525E+03  0.00000000000E+00 0.  1.
         25    2    1    2    0    0 -0.49293702496E+02 -0.13337459498E+02 -0.49066093527E+02  0.14374675985E+03  0.12509153649E+03 0.  0.
          5    1    3    3  502    0 -0.12553386995E+02 -0.16075939187E+02 -0.87736023755E+02  0.90172643358E+02  0.41800000000E+01 0. -1.
         -5    1    3    3    0  502 -0.36740315500E+02  0.27384796888E+01  0.38669930228E+02  0.53574116492E+02  0.41800000000E+01 0. -1.
        -11    1    1    2    0    0  0.20673106508E+02 -0.17075445722E+02  0.19224345562E+02  0.32992781658E+02  0.00000000000E+00 0. -1.
         11    1    1    2    0    0  0.28620595988E+02  0.30412905220E+02 -0.77011582155E+02  0.87606318862E+02  0.00000000000E+00 0.  1.
</event>
<event>
 7    1  0.2810263E-009  0.3249062E+03  0.7561462E-02  0.1073413E+00
          2   -1    0    0  501    0  0.00000000000E+00  0.00000000000E+00  0.19987036765E+04  0.19987036765E+04  0.00000000000E+00 0. -1.
         -2   -1    0    0    0  501 -0.00000000000E+00 -0.00000000000E+00 -0.69058134086E+02  0.69058134086E+02  0.00000000000E+00 0.  1.
         25    2    1    2    0    0 -0.27683995645E+03  0.16448478246E+03  0.13972455185E+04  0.14393193184E+04  0.12509778737E+03 0.  0.
          5    1    3    3  502    0 -0.17658604108E+03  0.11876391076E+03  0.64950682707E+03  0.68349402867E+03  0.41800000000E+01 0. -1.
         -5    1    3    3    0  502 -0.10025391536E+03  0.45720871702E+02  0.74773869138E+03  0.75582528976E+03  0.41800000000E+01 0. -1.
        -11    1    1    2    0    0  0.14193089918E+03 -0.52379132794E+02  0.31214036752E+03  0.34687110391E+03  0.00000000000E+00 0.  1.
         11    1    1    2    0    0  0.13490905727E+03 -0.11210564967E+03  0.22025965641E+03  0.28157138822E+03  0.00000000000E+00 0. -1.
</event>
<event>
 7    1  0.2810263E-009  0.2155351E+03  0.7561462E-02  0.1137256E+00
         -2   -1    0    0    0  501 -0.00000000000E+00  0.00000000000E+00  0.10134809736E+03  0.10134809736E+03  0.00000000000E+00 0.  1.
          2   -1    0    0  501    0  0.00000000000E+00 -0.00000000000E+00 -0.51051881530E+03  0.51051881530E+03  0.00000000000E+00 0. -1.
         25    2    1    2    0    0  0.26829934653E+02  0.19377947052E+03 -0.15901043242E+03  0.28142853093E+03  0.12508945525E+03 0.  0.
          5    1    3    3  502    0  0.67731463987E+02  0.83939321656E+02 -0.11061634091E+03  0.15455357715E+03  0.41800000000E+01 0. -1.
         -5    1    3    3    0  502 -0.40901529334E+02  0.10984014886E+03 -0.48394091514E+02  0.12687495378E+03  0.41800000000E+01 0. -1.
        -11    1    1    2    0    0 -0.11971916088E+02 -0.48297450793E+00  0.22276324271E+01  0.12186976057E+02  0.00000000000E+00 0.  1.
         11    1    1    2    0    0 -0.14858018565E+02 -0.19329649601E+03 -0.25238791795E+03  0.31825140568E+03  0.00000000000E+00 0. -1.
</event>
<event>
 7    1  0.2810263E-009  0.1145023E+03  0.7561462E-02  0.1252452E+00
         -1   -1    0    0    0  501 -0.00000000000E+00  0.00000000000E+00  0.50302546817E+02  0.50302546817E+02  0.00000000000E+00 0.  1.
          1   -1    0    0  501    0  0.00000000000E+00 -0.00000000000E+00 -0.27392068212E+03  0.27392068212E+03  0.00000000000E+00 0. -1.
         25    2    1    2    0    0  0.52720893592E+02 -0.12332232987E+02 -0.13271003131E+03  0.19023999593E+03  0.12509087517E+03 0.  0.
          5    1    3    3  502    0  0.38130683271E+02 -0.65282708005E+02 -0.10244600864E+03  0.12739088687E+03  0.41800000000E+01 0.  1.
         -5    1    3    3    0  502  0.14590210321E+02  0.52950475018E+02 -0.30264022661E+02  0.62849109059E+02  0.41800000000E+01 0.  1.
        -11    1    1    2    0    0 -0.17811856226E+02  0.46231255572E+02 -0.50337584661E+02  0.70629056651E+02  0.00000000000E+00 0.  1.
         11    1    1    2    0    0 -0.34909037366E+02 -0.33899022585E+02 -0.40570519336E+02  0.63354176352E+02  0.00000000000E+00 0. -1.
</event>
<event>
 7    1  0.2810263E-009  0.9637272E+02  0.7561462E-02  0.1288114E+00
         -1   -1    0    0    0  501 -0.00000000000E+00  0.00000000000E+00  0.12293981298E+04  0.12293981298E+04  0.00000000000E+00 0.  1.
          1   -1    0    0  501    0  0.00000000000E+00 -0.00000000000E+00 -0.20808572452E+02  0.20808572452E+02  0.00000000000E+00 0. -1.
         25    2    1    2    0    0 -0.31511254296E+02  0.68960306586E+02  0.99453521893E+03  0.10052344650E+04  0.12509014691E+03 0.  0.
          5    1    3    3  502    0 -0.25164547748E+02  0.40426653627E+02  0.10681684374E+03  0.11702512249E+03  0.41800000000E+01 0.  1.
         -5    1    3    3    0  502 -0.63467065486E+01  0.28533652960E+02  0.88771837518E+03  0.88820934248E+03  0.41800000000E+01 0.  1.
        -11    1    1    2    0    0 -0.24720035573E+02 -0.50509097495E+02  0.74118323352E+02  0.93036417305E+02  0.00000000000E+00 0. -1.
         11    1    1    2    0    0  0.56231289869E+02 -0.18451209091E+02  0.13993601507E+03  0.15193581997E+03  0.00000000000E+00 0.  1.
</event>
<event>
 7    1  0.2810263E-009  0.1281271E+03  0.7561462E-02  0.1230262E+00
          2   -1    0    0  501    0  0.00000000000E+00  0.00000000000E+00  0.73922924800E+03  0.73922924800E+03  0.00000000000E+00 0. -1.
         -2   -1    0    0    0  501 -0.00000000000E+00 -0.00000000000E+00 -0.27099873941E+02  0.27099873941E+02  0.00000000000E+00 0.  1.
         25    2    1    2    0    0  0.59927853201E+02 -0.32543042432E+02  0.54859511035E+03  0.56679355812E+03  0.12509174722E+03 0.  0.
          5    1    3    3  502    0  0.29842038881E+02  0.47688056138E+02  0.23500690230E+03  0.24168246629E+03  0.41800000000E+01 0. -1.
         -5    1    3    3    0  502  0.30085814320E+02 -0.80231098570E+02  0.31358820805E+03  0.32511109183E+03  0.41800000000E+01 0. -1.
        -11    1    1    2    0    0 -0.52130916531E+02  0.63484836322E+02  0.11141596926E+03  0.13842498007E+03  0.00000000000E+00 0.  1.
         11    1    1    2    0    0 -0.77969366697E+01 -0.30941793890E+02  0.52118294446E+02  0.61110583752E+02  0.00000000000E+00 0. -1.
</event>
<event>
 7    1  0.2810263E-009  0.1198404E+03  0.7561462E-02  0.1243361E+00
          1   -1    0    0  501    0  0.00000000000E+00  0.00000000000E+00  0.25420140013E+03  0.25420140013E+03  0.00000000000E+00 0. -1.
         -1   -1    0    0    0  501 -0.00000000000E+00 -0.00000000000E+00 -0.78501086502E+02  0.78501086502E+02  0.00000000000E+00 0.  1.
         25    2    1    2    0    0  0.58656011306E+02 -0.52062450331E+02  0.14890091283E+03  0.20969263831E+03  0.12509394199E+03 0.  0.
          5    1    3    3  502    0 -0.25998847601E+01 -0.77952372041E+02  0.10075662166E+03  0.12748608126E+03  0.41800000000E+01 0. -1.
         -5    1    3    3    0  502  0.61255896066E+02  0.25889921710E+02  0.48144291172E+02  0.82206557047E+02  0.41800000000E+01 0. -1.
        -11    1    1    2    0    0  0.54226165259E+01  0.24657129336E+02 -0.25494060258E+02  0.35879324207E+02  0.00000000000E+00 0.  1.
         11    1    1    2    0    0 -0.64078627832E+02  0.27405320994E+02  0.52293461057E+02  0.87130524117E+02  0.00000000000E+00 0. -1.
</event>
<event>
 7    1  0.2810263E-009  0.8912044E+02  0.7561462E-02  0.1304996E+00
         -1   -1    0    0    0  501 -0.00000000000E+00  0.00000000000E+00  0.36302712032E+03  0.36302712032E+03  0.00000000000E+00 0.  1.
          1   -1    0    0  501    0  0.00000000000E+00 -0.00000000000E+00 -0.39519058127E+02  0.39519058127E+02  0.00000000000E+00 0. -1.
         25    2    1    2    0    0  0.42710778653E+02 -0.12474200676E+02  0.14168085673E+03  0.19416859724E+03  0.12509261647E+03 0.  0.
          5    1    3    3  502    0  0.58873728845E+02 -0.75837034375E+01  0.88005428743E+01  0.60154388542E+02  0.41800000000E+01 0.  1.
         -5    1    3    3    0  502 -0.16162950193E+02 -0.48904972382E+01  0.13288031385E+03  0.13401420870E+03  0.41800000000E+01 0.  1.
        -11    1    1    2    0    0 -0.13529974824E+02  0.51138063995E+02  0.85132945562E+02  0.10022863976E+03  0.00000000000E+00 0. -1.
         11    1    1    2    0    0 -0.29180803829E+02 -0.38663863320E+02  0.96694259906E+02  0.10814894145E+03  0.00000000000E+00 0.  1.
</event>
<event>
 7    1  0.2810263E-009  0.8915045E+02  0.7561462E-02  0.1304922E+00
         -2   -1    0    0    0  501 -0.00000000000E+00  0.00000000000E+00  0.29646245343E+03  0.29646245343E+03  0.00000000000E+00 0.  1.
          2   -1    0    0  501    0  0.00000000000E+00 -0.00000000000E+00 -0.44938918955E+02  0.44938918955E+02  0.00000000000E+00 0. -1.
         25    2    1    2    0    0 -0.31148892241E+02  0.15318581113E+01  0.10434113981E+03  0.16585277678E+03  0.12508984784E+03 0.  0.
          5    1    3    3  502    0 -0.66080445090E+02 -0.31458331958E+02  0.34603250504E+02  0.81062378563E+02  0.41800000000E+01 0.  1.
         -5    1    3    3    0  502  0.34931552848E+02  0.32990190069E+02  0.69737889308E+02  0.84790398220E+02  0.41800000000E+01 0.  1.
        -11    1    1    2    0    0 -0.83172611294E+01  0.12384625323E+02 -0.64982458480E+01  0.16272153398E+02  0.00000000000E+00 0. -1.
         11    1    1    2    0    0  0.39466153371E+02 -0.13916483435E+02  0.15368064051E+03  0.15927644220E+03  0.00000000000E+00 0.  1.
</event>
<event>
 7    1  0.2810263E-009  0.1137696E+03  0.7561462E-02  0.1253744E+00
          2   -1    0    0  501    0  0.00000000000E+00  0.00000000000E+00  0.68015427682E+03  0.68015427682E+03  0.00000000000E+00 0. -1.
         -2   -1    0    0    0  501 -0.00000000000E+00 -0.00000000000E+00 -0.20568353270E+02  0.20568353270E+02  0.00000000000E+00 0.  1.
         25    2    1    2    0    0 -0.36419977583E+02  0.13767605467E+02  0.44418398264E+03  0.46310129973E+03  0.12508973440E+03 0.  0.
          5    1    3    3  502    0 -0.12329451638E+02  0.67202735784E+02  0.18287413263E+03  0.19526557265E+03  0.41800000000E+01 0. -1.
         -5    1    3    3    0  502 -0.24090525945E+02 -0.53435130317E+02  0.26130985001E+03  0.26783572709E+03  0.41800000000E+01 0. -1.
        -11    1    1    2    0    0 -0.16303365427E+02  0.28443415104E+02  0.71547266743E+02  0.78700946407E+02  0.00000000000E+00 0.  1.
         11    1    1    2    0    0  0.52723343010E+02 -0.42211020571E+02  0.14385467416E+03  0.15892038395E+03  0.00000000000E+00 0. -1.
</event>
<event>
 7    1  0.2810263E-009  0.6999522E+02  0.7561462E-02  0.1360109E+00
          2   -1    0    0  501    0  0.00000000000E+00  0.00000000000E+00  0.15949527362E+03  0.15949527362E+03  0.00000000000E+00 0. -1.
         -2   -1    0    0    0  501 -0.00000000000E+00 -0.00000000000E+00 -0.12150886800E+03  0.12150886800E+03  0.00000000000E+00 0.  1.
         25    2    1    2    0    0 -0.26681857055E+02 -0.20606355008E+02 -0.59729829362E+02  0.14266006844E+03  0.12509076404E+03 0.  0.
          5    1    3    3  502    0 -0.13602094572E+01 -0.16659764578E+02  0.37901885910E+02  0.41634400213E+02  0.41800000000E+01 0.  1.
         -5    1    3    3    0  502 -0.25321647598E+02 -0.39465904294E+01 -0.97631715273E+02  0.10102566822E+03  0.41800000000E+01 0.  1.
        -11    1    1    2    0    0  0.36513752879E+02 -0.28746610948E+02  0.57461898734E+02  0.73901905229E+02  0.00000000000E+00 0.  1.
         11    1    1    2    0    0 -0.98318958244E+01  0.49352965956E+02  0.40254336242E+02  0.64442167953E+02  0.00000000000E+00 0. -1.
</event>
<event>
 7    1  0.2810263E-009  0.2438809E+03  0.7561462E-02  0.1117234E+00
         -2   -1    0    0    0  501 -0.00000000000E+00  0.00000000000E+00  0.16170411867E+03  0.16170411867E+03  0.00000000000E+00 0.  1.
          2   -1    0    0  501    0  0.00000000000E+00 -0.00000000000E+00 -0.43505713456E+03  0.43505713456E+03  0.00000000000E+00 0. -1.
         25    2    1    2    0    0 -0.71478700920E+02 -0.21876735112E+03 -0.22503232505E+03  0.34533381631E+03  0.12509012259E+03 0.  0.
          5    1    3    3  502    0  0.28119916711E+02 -0.18542818979E+02 -0.53945122800E+02  0.63734719937E+02  0.41800000000E+01 0. -1.
         -5    1    3    3    0  502 -0.99598617631E+02 -0.20022453214E+03 -0.17108720225E+03  0.28159909638E+03  0.41800000000E+01 0. -1.
        -11    1    1    2    0    0  0.26004088734E+02  0.81655049832E+02 -0.62805548250E+02  0.10624639610E+03  0.00000000000E+00 0.  1.
         11    1    1    2    0    0  0.45474612185E+02  0.13711230129E+03  0.14484857409E+02  0.14518104082E+03  0.00000000000E+00 0. -1.
</event>
<event>
 7    1  0.2810263E-009  0.1447581E+03  0.7561462E-02  0.1207066E+00
         -2   -1    0    0    0  501 -0.00000000000E+00  0.00000000000E+00  0.50047835691E+02  0.50047835691E+02  0.00000000000E+00 0.  1.
          2   -1    0    0  501    0  0.00000000000E+00 -0.00000000000E+00 -0.70372175760E+03  0.70372175760E+03  0.00000000000E+00 0. -1.
         25    2    1    2    0    0 -0.11838620293E+03 -0.56225712222E+02 -0.50068476025E+03  0.53245502613E+03  0.12508597823E+03 0.  0.
          5    1    3    3  502    0 -0.17853420201E+02 -0.32655124673E+01 -0.30915742222E+03  0.30971792376E+03  0.41800000000E+01 0.  1.
         -5    1    3    3    0  502 -0.10053278273E+03 -0.52960199755E+02 -0.19152733803E+03  0.22273710237E+03  0.41800000000E+01 0.  1.
        -11    1    1    2    0    0  0.70704570536E+02  0.77557842627E+02 -0.82039253171E+02  0.13320958790E+03  0.00000000000E+00 0.  1.
         11    1    1    2    0    0  0.47681632393E+02 -0.21332130405E+02 -0.70949908491E+02  0.88104979259E+02  0.00000000000E+00 0. -1.
</event>
<event>
 7    1  0.2810263E-009  0.1403404E+03  0.7561462E-02  0.1212872E+00
         -1   -1    0    0    0  501 -0.00000000000E+00  0.00000000000E+00  0.44431799973E+02  0.44431799973E+02  0.00000000000E+00 0.  1.
          1   -1    0    0  501    0  0.00000000000E+00 -0.00000000000E+00 -0.11580841547E+04  0.11580841547E+04  0.00000000000E+00 0. -1.
         25    2    1    2    0    0  0.96908431997E+02 -0.66141224217E+02 -0.10000855141E+04  0.10146835457E+04  0.12508299901E+03 0.  0.
          5    1    3    3  502    0  0.53752860932E+02  0.81565761625E+00 -0.12714976495E+03  0.13811071821E+03  0.41800000000E+01 0.  1.
         -5    1    3    3    0  502  0.43155571065E+02 -0.66956881834E+02 -0.87293574918E+03  0.87657282751E+03  0.41800000000E+01 0.  1.
        -11    1    1    2    0    0 -0.42270482881E+02  0.80124886389E+02 -0.86572853820E+02  0.12530622555E+03  0.00000000000E+00 0.  1.
         11    1    1    2    0    0 -0.54637949116E+02 -0.13983662172E+02 -0.26993986797E+02  0.62526183432E+02  0.00000000000E+00 0. -1.
</event>
<event>
 7    1  0.2810263E-009  0.2087311E+03  0.7561462E-02  0.1142575E+00
          2   -1    0    0  501    0  0.00000000000E+00  0.00000000000E+00  0.57983095706E+02  0.57983095706E+02  0.00000000000E+00 0. -1.
         -2   -1    0    0    0  501 -0.00000000000E+00 -0.00000000000E+00 -0.10694539482E+04  0.10694539482E+04  0.00000000000E+00 0.  1.
         25    2    1    2    0    0  0.96800070562E+02 -0.17389783478E+03 -0.73431218823E+03  0.77102060799E+03  0.12509067737E+03 0.  0.
          5    1    3    3  502    0  0.10209821622E+03 -0.18087969476E+03 -0.57441064502E+03  0.61082450118E+03  0.41800000000E+01 0.  1.
         -5    1    3    3    0  502 -0.52981456578E+01  0.69818599818E+01 -0.15990154321E+03  0.16019610681E+03  0.41800000000E+01 0.  1.
        -11    1    1    2    0    0 -0.47440833177E+02  0.10530845884E+03 -0.76089214663E+02  0.13831150618E+03  0.00000000000E+00 0. -1.
         11    1    1    2    0    0 -0.49359237385E+02  0.68589375944E+02 -0.20106944956E+03  0.21810492968E+03  0.00000000000E+00 0.  1.
</event>
<event>
 7    1  0.2810263E-009  0.8558792E+02  0.7561462E-02  0.1313902E+00
          2   -1    0    0  501    0  0.00000000000E+00  0.00000000000E+00  0.42453282131E+03  0.42453282131E+03  0.00000000000E+00 0. -1.
         -2   -1    0    0    0  501 -0.00000000000E+00 -0.00000000000E+00 -0.40321104204E+02  0.40321104204E+02  0.00000000000E+00 0.  1.
         25    2    1    2    0    0 -0.42112623130E+02 -0.57600426269E+02  0.19320549160E+03  0.24097133908E+03  0.12509013607E+03 0.  0.
          5    1    3    3  502    0  0.28727012475E+01 -0.14118572559E+02 -0.16377090445E+02  0.22209637435E+02  0.41800000000E+01 0. -1.
         -5    1    3    3    0  502 -0.44985324378E+02 -0.43481853710E+02  0.20958258204E+03  0.21876170164E+03  0.41800000000E+01 0. -1.
        -11    1    1    2    0    0  0.22010600874E+02  0.67546068223E+02  0.66291862866E+02  0.97167633322E+02  0.00000000000E+00 0.  1.
         11    1    1    2    0    0  0.20102022256E+02 -0.99456419532E+01  0.12471436265E+03  0.12671495312E+03  0.00000000000E+00 0. -1.
</event>
<event>
 7    1  0.2810263E-009  0.2939831E+03  0.7561462E-02  0.1088288E+00
          2   -1    0    0  501    0  0.00000000000E+00  0.00000000000E+00  0.27886964670E+03  0.27886964670E+03  0.00000000000E+00 0.  1.
         -2   -1    0    0    0  501 -0.00000000000E+00 -0.00000000000E+00 -0.35135741151E+03  0.35135741151E+03  0.00000000000E+00 0. -1.
         25    2    1    2    0    0  0.69355651248E+02  0.27940700220E+03  0.20248717051E+02  0.31454209253E+03  0.12509291825E+03 0.  0.
          5    1    3    3  502    0  0.34573013576E+02  0.42735499725E+02  0.48761560219E+02  0.73598766019E+02  0.41800000000E+01 0.  1.
         -5    1    3    3    0  502  0.34782637671E+02  0.23667150247E+03 -0.28512843168E+02  0.24094332651E+03  0.41800000000E+01 0.  1.
        -11    1    1    2    0    0  0.53593156149E+01 -0.87283023659E+02 -0.62160209926E+02  0.10728904968E+03  0.00000000000E+00 0. -1.
         11    1    1    2    0    0 -0.74714966862E+02 -0.19212397854E+03 -0.30576271934E+02  0.20839591600E+03  0.00000000000E+00 0.  1.
</event>
<event>
 7    1  0.2810263E-009  0.9821099E+02  0.7561462E-02  0.1284104E+00
          1   -1    0    0  501    0  0.00000000000E+00  0.00000000000E+00  0.36373399134E+03  0.36373399134E+03  0.00000000000E+00 0. -1.
         -1   -1    0    0    0  501 -0.00000000000E+00 -0.00000000000E+00 -0.52034487491E+02  0.52034487491E+02  0.00000000000E+00 0.  1.
         25    2    1    2    0    0  0.24728042481E+02  0.78275082345E+01  0.29303325503E+03  0.31967392463E+03  0.12510069370E+03 0.  0.
          5    1    3    3  502    0 -0.41162391633E+02 -0.12636239750E+02  0.45974520662E+02  0.63128012720E+02  0.41800000000E+01 0. -1.
         -5    1    3    3    0  502  0.65890434114E+02  0.20463747985E+02  0.24705873437E+03  0.25654591191E+03  0.41800000000E+01 0. -1.
        -11    1    1    2    0    0 -0.24194983628E+02  0.34263685191E+02 -0.12443208043E+02  0.43751923181E+02  0.00000000000E+00 0.  1.
         11    1    1    2    0    0 -0.53305885384E+00 -0.42091193426E+02  0.31109456858E+02  0.52342631016E+02  0.00000000000E+00 0. -1.
</event>
<event>
 7    1  0.2919107E-009  0.9973727E+02  0.7561462E-02  0.1280849E+00
          2   -1    0    0  501    0  0.00000000000E+00  0.00000000000E+00  0.83172336927E+03  0.83172336927E+03  0.00000000000E+00 0. -1.
         -2   -1    0    0    0  501 -0.00000000000E+00 -0.00000000000E+00 -0.18756899892E+02  0.18756899892E+02  0.00000000000E+00 0.  1.
         25    2    1    2    0    0 -0.69506618403E+01 -0.29028664518E+02  0.63876304489E+03  0.65158038277E+03  0.12509113729E+03 0.  0.
          5    1    3    3  502    0  0.78665936342E+01  0.46215746776E+02  0.33345097276E+03  0.33675629494E+03  0.41800000000E+01 0. -1.
         -5    1    3    3    0  502 -0.14817255474E+02 -0.75244411294E+02  0.30531207212E+03  0.31482408783E+03  0.41800000000E+01 0. -1.
        -11    1    1    2    0    0 -0.40151935045E+01 -0.22534026780E+02  0.75411804553E+01  0.24099243649E+02  0.00000000000E+00 0.  1.
         11    1    1    2    0    0  0.10965855345E+02  0.51562691298E+02  0.16666224404E+03  0.17480064275E+03  0.00000000000E+00 0. -1.
</event>
<event>
 7    1  0.2810263E-009  0.1023574E+03  0.7561462E-02  0.1275415E+00
          2   -1    0    0  501    0  0.00000000000E+00  0.00000000000E+00  0.38230735318E+03  0.38230735318E+03  0.00000000000E+00 0. -1.
         -2   -1    0    0    0  501 -0.00000000000E+00 -0.00000000000E+00 -0.37522133965E+02  0.37522133965E+02  0.00000000000E+00 0.  1.
         25    2    1    2    0    0 -0.20521832017E+02  0.45384588504E+02  0.22013058827E+03  0.25804866537E+03  0.12510288305E+03 0.  0.
          5    1    3    3  502    0 -0.26137924666E+02  0.85124663676E+02  0.11546101347E+03  0.14587020773E+03  0.41800000000E+01 0. -1.
         -5    1    3    3    0  502  0.56160926490E+01 -0.39740075172E+02  0.10466957480E+03  0.11217845765E+03  0.41800000000E+01 0. -1.
        -11    1    1    2    0    0 -0.10969585130E+02 -0.42157289001E+02  0.12254176042E+03  0.13005403438E+03  0.00000000000E+00 0. -1.
         11    1    1    2    0    0  0.31491417148E+02 -0.32272995032E+01  0.21128705358E+01  0.31726787388E+02  0.00000000000E+00 0.  1.
</event>
<event>
 7    1  0.2810263E-009  0.2508961E+03  0.7561462E-02  0.1112740E+00
          2   -1    0    0  501    0  0.00000000000E+00  0.00000000000E+00  0.24784219764E+04  0.24784219764E+04  0.00000000000E+00 0. -1.
         -2   -1    0    0    0  501 -0.00000000000E+00 -0.00000000000E+00 -0.88450970173E+02  0.88450970173E+02  0.00000000000E+00 0.  1.
         25    2    1    2    0    0  0.26352889829E+02 -0.24260661046E+03  0.22572066842E+04  0.22738043121E+04  0.12510632518E+03 0.  0.
          5    1    3    3  502    0 -0.94691736798E+01 -0.10698159380E+03  0.14897283215E+04  0.14936005727E+04  0.41800000000E+01 0. -1.
         -5    1    3    3    0  502  0.35822063509E+02 -0.13562501667E+03  0.76747836268E+03  0.78020373939E+03  0.41800000000E+01 0. -1.
        -11    1    1    2    0    0 -0.49656052069E+02  0.13425855055E+03  0.40235097286E+02  0.14869413222E+03  0.00000000000E+00 0.  1.
         11    1    1    2    0    0  0.23303162241E+02  0.10834805991E+03  0.92529224821E+02  0.14437450226E+03  0.00000000000E+00 0. -1.
</event>
<event>
 7    1  0.2810263E-009  0.9719884E+02  0.7561462E-02  0.1286299E+00
         -1   -1    0    0    0  501 -0.00000000000E+00  0.00000000000E+00  0.18001785088E+02  0.18001785088E+02  0.00000000000E+00 0.  1.
          1   -1    0    0  501    0  0.00000000000E+00 -0.00000000000E+00 -0.67071550215E+03  0.67071550215E+03  0.00000000000E+00 0. -1.
         25    2    1    2    0    0 -0.24433550823E+00  0.16260298971E+02 -0.36463163651E+03  0.38583459176E+03  0.12509054653E+03 0.  0.
          5    1    3    3  502    0 -0.49715041993E+02  0.38814640980E+01 -0.65865805609E+02  0.82718969484E+02  0.41800000000E+01 0.  1.
         -5    1    3    3    0  502  0.49470706485E+02  0.12378834873E+02 -0.29876583090E+03  0.30311562227E+03  0.41800000000E+01 0.  1.
        -11    1    1    2    0    0  0.26991833966E+02  0.29625015800E+02 -0.11137483420E+03  0.11836618755E+03  0.00000000000E+00 0. -1.
         11    1    1    2    0    0 -0.26747498457E+02 -0.45885314771E+02 -0.17670724635E+03  0.18451650793E+03  0.00000000000E+00 0.  1.
</event>
<event>
 7    1  0.2810263E-009  0.1049000E+03  0.7561462E-02  0.1270317E+00
         -2   -1    0    0    0  501 -0.00000000000E+00  0.00000000000E+00  0.17275675035E+02  0.17275675035E+02  0.00000000000E+00 0.  1.
          2   -1    0    0  501    0  0.00000000000E+00 -0.00000000000E+00 -0.10352323171E+04  0.10352323171E+04  0.00000000000E+00 0. -1.
         25    2    1    2    0    0 -0.12520717159E+02 -0.75372185683E+02 -0.63714703508E+03  0.65379102380E+03  0.12509445936E+03 0.  0.
          5    1    3    3  502    0 -0.34166354885E+02 -0.50481169531E+02 -0.11191317520E+03  0.12750576248E+03  0.41800000000E+01 0. -1.
         -5    1    3    3    0  502  0.21645637726E+02 -0.24891016152E+02 -0.52523385988E+03  0.52628526132E+03  0.41800000000E+01 0. -1.
        -11    1    1    2    0    0  0.45083804350E+02  0.16192959950E+02 -0.11769272921E+03  0.12706824889E+03  0.00000000000E+00 0.  1.
         11    1    1    2    0    0 -0.32563087191E+02  0.59179225733E+02 -0.26311687783E+03  0.27164871950E+03  0.00000000000E+00 0. -1.
</event>
<event>
 7    1  0.2810263E-009  0.1157612E+03  0.7561462E-02  0.1250258E+00
          2   -1    0    0  501    0  0.00000000000E+00  0.00000000000E+00  0.43945316050E+03  0.43945316050E+03  0.00000000000E+00 0. -1.
         -2   -1    0    0    0  501 -0.00000000000E+00 -0.00000000000E+00 -0.39430498995E+02  0.39430498995E+02  0.00000000000E+00 0.  1.
         25    2    1    2    0    0 -0.63026645903E+02 -0.63739337966E+01  0.28276853898E+03  0.31562369494E+03  0.12508910841E+03 0.  0.
          5    1    3    3  502    0 -0.91730278003E+02  0.37916764753E+01  0.12649521411E+03  0.15635642714E+03  0.41800000000E+01 0. -1.
         -5    1    3    3    0  502  0.28703632100E+02 -0.10165610272E+02  0.15627332487E+03  0.15926726780E+03  0.41800000000E+01 0. -1.
        -11    1    1    2    0    0  0.71223281403E+02  0.34819933249E+02  0.10413750695E+03  0.13088087683E+03  0.00000000000E+00 0.  1.
         11    1    1    2    0    0 -0.81966354995E+01 -0.28445999452E+02  0.13116615580E+02  0.32379087736E+02  0.00000000000E+00 0. -1.
</event>
<event>
 7    1  0.2810263E-009  0.1418018E+03  0.7561462E-02  0.1210925E+00
         -1   -1    0    0    0  501 -0.00000000000E+00  0.00000000000E+00  0.56969284315E+02  0.56969284315E+02  0.00000000000E+00 0.  1.
          1   -1    0    0  501    0  0.00000000000E+00 -0.00000000000E+00 -0.46378130370E+03  0.46378130370E+03  0.00000000000E+00 0. -1.
         25    2    1    2    0    0  0.81824829897E+02  0.85672986694E+02 -0.24970410247E+03  0.30337257862E+03  0.12509044420E+03 0.  0.
          5    1    3    3  502    0  0.14982707444E+02  0.63067800816E+02 -0.28112056845E+02  0.70779864101E+02  0.41800000000E+01 0.  1.
         -5    1    3    3    0  502  0.66842122453E+02  0.22605185878E+02 -0.22159204563E+03  0.23259271452E+03  0.41800000000E+01 0.  1.
        -11    1    1    2    0    0 -0.94237159628E+01 -0.74033005143E+02 -0.60389004558E+02  0.96002729881E+02  0.00000000000E+00 0. -1.
         11    1    1    2    0    0 -0.72401113935E+02 -0.11639981551E+02 -0.96718912350E+02  0.12137527951E+03  0.00000000000E+00 0.  1.
</event>
<event>
 7    1  0.2810263E-009  0.9506221E+02  0.7561462E-02  0.1291036E+00
          1   -1    0    0  501    0  0.00000000000E+00  0.00000000000E+00  0.17174531038E+03  0.17174531038E+03  0.00000000000E+00 0. -1.
         -1   -1    0    0    0  501 -0.00000000000E+00 -0.00000000000E+00 -0.74001517506E+02  0.74001517506E+02  0.00000000000E+00 0.  1.
         25    2    1    2    0    0 -0.18427925148E+02  0.14946672756E+01  0.34633429853E+02  0.13110706617E+03  0.12509103037E+03 0.  0.
          5    1    3    3  502    0  0.76583045838E+01  0.51173507074E+02  0.50729496306E+02  0.72583273906E+02  0.41800000000E+01 0.  1.
         -5    1    3    3    0  502 -0.26086229732E+02 -0.49678839799E+02 -0.16096066453E+02  0.58523792261E+02  0.41800000000E+01 0.  1.
        -11    1    1    2    0    0  0.36756628016E+02 -0.30413450522E+02  0.60420612788E+01  0.48088815542E+02  0.00000000000E+00 0.  1.
         11    1    1    2    0    0 -0.18328702868E+02  0.28918783246E+02  0.57068301745E+02  0.66550946179E+02  0.00000000000E+00 0. -1.
</event>
<event>
 7    1  0.2810263E-009  0.1307156E+03  0.7561462E-02  0.1226398E+00
         -2   -1    0    0    0  501 -0.00000000000E+00  0.00000000000E+00  0.29018420659E+02  0.29018420659E+02  0.00000000000E+00 0.  1.
          2   -1    0    0  501    0  0.00000000000E+00 -0.00000000000E+00 -0.69910165918E+03  0.69910165918E+03  0.00000000000E+00 0. -1.
         25    2    1    2    0    0  0.73362360898E+02 -0.53186259470E+02 -0.35567597703E+03  0.38776238710E+03  0.12507379429E+03 0.  0.
          5    1    3    3  502    0  0.15405322363E+02 -0.70015477427E+02 -0.89245053067E+02  0.11454974000E+03  0.41800000000E+01 0. -1.
         -5    1    3    3    0  502  0.57957038535E+02  0.16829217957E+02 -0.26643092396E+03  0.27321264710E+03  0.41800000000E+01 0. -1.
        -11    1    1    2    0    0  0.22092156232E+02  0.78024757638E+01 -0.40852908261E+02  0.47094608061E+02  0.00000000000E+00 0.  1.
         11    1    1    2    0    0 -0.95454517131E+02  0.45383783706E+02 -0.27355435323E+03  0.29326308468E+03  0.00000000000E+00 0. -1.
</event>
<event>
 7    1  0.2810263E-009  0.6124710E+02  0.7561462E-02  0.1392672E+00
         -2   -1    0    0    0  501 -0.00000000000E+00  0.00000000000E+00  0.35227102740E+02  0.35227102740E+02  0.00000000000E+00 0.  1.
          2   -1    0    0  501    0  0.00000000000E+00 -0.00000000000E+00 -0.40743205781E+03  0.40743205781E+03  0.00000000000E+00 0. -1.
         25    2    1    2    0    0 -0.40423929893E+01  0.36602493574E+02 -0.28169030896E+03  0.31040786370E+03  0.12509008037E+03 0.  0.
          5    1    3    3  502    0 -0.27387651357E+02  0.16598903719E+02 -0.58427912753E+01  0.32820994218E+02  0.41800000000E+01 0. -1.
         -5    1    3    3    0  502  0.23345258368E+02  0.20003589855E+02 -0.27584751768E+03  0.27758686948E+03  0.41800000000E+01 0. -1.
        -11    1    1    2    0    0  0.24708797230E+02 -0.13432834511E+02  0.77714309181E+01  0.29178088389E+02  0.00000000000E+00 0.  1.
         11    1    1    2    0    0 -0.20666404240E+02 -0.23169659063E+02 -0.98286077032E+02  0.10307320847E+03  0.00000000000E+00 0. -1.
</event>
<event>
 7    1  0.2810263E-009  0.1202695E+03  0.7561462E-02  0.1242653E+00
          1   -1    0    0  501    0  0.00000000000E+00  0.00000000000E+00  0.16408026943E+03  0.16408026943E+03  0.00000000000E+00 0. -1.
         -1   -1    0    0    0  501 -0.00000000000E+00 -0.00000000000E+00 -0.20190060758E+03  0.20190060758E+03  0.00000000000E+00 0.  1.
         25    2    1    2    0    0 -0.54551278246E+02  0.62087991526E+02  0.10169891529E+03  0.18116553168E+03  0.12509004696E+03 0.  0.
          5    1    3    3  502    0  0.11820902723E+02 -0.25523726266E+02 -0.38804503060E+01  0.28700603448E+02  0.41800000000E+01 0. -1.
         -5    1    3    3    0  502 -0.66372180970E+02  0.87611717792E+02  0.10557936560E+03  0.15246492823E+03  0.41800000000E+01 0. -1.
        -11    1    1    2    0    0 -0.13199568115E+02 -0.81912338943E+01 -0.75657243113E+02  0.77235635212E+02  0.00000000000E+00 0.  1.
         11    1    1    2    0    0  0.67750846361E+02 -0.53896757632E+02 -0.63862010329E+02  0.10757971012E+03  0.00000000000E+00 0. -1.
</event>
<event>
 7    1  0.2810263E-009  0.9047794E+02  0.7561462E-02  0.1301698E+00
         -3   -1    0    0    0  501 -0.00000000000E+00  0.00000000000E+00  0.22829932389E+03  0.22829932389E+03  0.00000000000E+00 0. -1.
          3   -1    0    0  501    0  0.00000000000E+00 -0.00000000000E+00 -0.56760196345E+02  0.56760196345E+02  0.00000000000E+00 0.  1.
         25    2    1    2    0    0  0.31500555841E+02 -0.13094479440E+02  0.94668917664E+02  0.16053583125E+03  0.12508316727E+03 0.  0.
          5    1    3    3  502    0  0.61628553607E+02 -0.48193800430E+02  0.79646666812E+02  0.11172190901E+03  0.41800000000E+01 0.  1.
         -5    1    3    3    0  502 -0.30127997766E+02  0.35099320990E+02  0.15022250852E+02  0.48813922236E+02  0.41800000000E+01 0.  1.
        -11    1    1    2    0    0 -0.40186709785E+02 -0.31431225312E+00 -0.55499652128E+01  0.40569354806E+02  0.00000000000E+00 0.  1.
         11    1    1    2    0    0  0.86861539438E+01  0.13408791693E+02  0.82420175094E+02  0.83954334179E+02  0.00000000000E+00 0. -1.
</event>
<event>
 7    1  0.2810263E-009  0.1550175E+03  0.7561462E-02  0.1194440E+00
         -2   -1    0    0    0  501 -0.00000000000E+00  0.00000000000E+00  0.22111830321E+03  0.22111830321E+03  0.00000000000E+00 0.  1.
          2   -1    0    0  501    0  0.00000000000E+00 -0.00000000000E+00 -0.22634128599E+03  0.22634128599E+03  0.00000000000E+00 0. -1.
         25    2    1    2    0    0 -0.75162554943E+02  0.13483331850E+03  0.11645009914E+03  0.23029839203E+03  0.12508912958E+03 0.  0.
          5    1    3    3  502    0 -0.37698138768E+02  0.60265937252E+02  0.12747934010E+03  0.14601913372E+03  0.41800000000E+01 0. -1.
         -5    1    3    3    0  502 -0.37464416175E+02  0.74567381246E+02 -0.11029240961E+02  0.84279258310E+02  0.41800000000E+01 0. -1.
        -11    1    1    2    0    0  0.59402429276E+02 -0.90811230402E+02 -0.27385638472E+02  0.11191649282E+03  0.00000000000E+00 0.  1.
         11    1    1    2    0    0  0.15760125667E+02 -0.44022088096E+02 -0.94287443448E+02  0.10524470435E+03  0.00000000000E+00 0. -1.
</event>
<event>
 7    1  0.3158703E-009  0.1136178E+03  0.7561462E-02  0.1254013E+00
         -2   -1    0    0    0  501 -0.00000000000E+00  0.00000000000E+00  0.30615164241E+02  0.30615164241E+02  0.00000000000E+00 0.  1.
          2   -1    0    0  501    0  0.00000000000E+00 -0.00000000000E+00 -0.76702989827E+03  0.76702989827E+03  0.00000000000E+00 0. -1.
         25    2    1    2    0    0 -0.46822587033E+02  0.75079849177E+02 -0.55699779037E+03  0.57768794009E+03  0.12508988464E+03 0.  0.
          5    1    3    3  502    0 -0.49949470156E+02  0.99405175774E+02 -0.30895708431E+03  0.32840263532E+03  0.41800000000E+01 0. -1.
         -5    1    3    3    0  502  0.31268831227E+01 -0.24325326596E+02 -0.24804070606E+03  0.24928530477E+03  0.41800000000E+01 0. -1.
        -11    1    1    2    0    0  0.16083532237E+02 -0.96964773649E+01  0.69896674090E+01  0.20038890513E+02  0.00000000000E+00 0.  1.
         11    1    1    2    0    0  0.30739054797E+02 -0.65383371812E+02 -0.18640661107E+03  0.19991823191E+03  0.00000000000E+00 0. -1.
</event>
<event>
 7    1  0.2810263E-009  0.1080084E+03  0.7561462E-02  0.1264303E+00
          1   -1    0    0  501    0  0.00000000000E+00  0.00000000000E+00  0.74338995977E+03  0.74338995977E+03  0.00000000000E+00 0. -1.
         -1   -1    0    0    0  501 -0.00000000000E+00 -0.00000000000E+00 -0.19754116658E+02  0.19754116658E+02  0.00000000000E+00 0.  1.
         25    2    1    2    0    0 -0.42333252828E+02 -0.20881309418E+02  0.32232038723E+03  0.34895402300E+03  0.12510133797E+03 0.  0.
          5    1    3    3  502    0 -0.74022509265E+02 -0.30525240420E+02  0.12278681720E+03  0.14664650374E+03  0.41800000000E+01 0. -1.
         -5    1    3    3    0  502  0.31689256438E+02  0.96439310017E+01  0.19953357003E+03  0.20230751925E+03  0.41800000000E+01 0. -1.
        -11    1    1    2    0    0  0.26530046660E+02  0.57085093089E+02  0.24998259805E+03  0.25778644370E+03  0.00000000000E+00 0. -1.
         11    1    1    2    0    0  0.15803206167E+02 -0.36203783671E+02  0.15133285783E+03  0.15640360973E+03  0.00000000000E+00 0.  1.
</event>
<event>
 7    1  0.2810263E-009  0.1362807E+03  0.7561462E-02  0.1218423E+00
          2   -1    0    0  501    0  0.00000000000E+00  0.00000000000E+00  0.89886008898E+02  0.89886008898E+02  0.00000000000E+00 0. -1.
         -2   -1    0    0    0  501 -0.00000000000E+00 -0.00000000000E+00 -0.26861297690E+03  0.26861297690E+03  0.00000000000E+00 0.  1.
         25    2    1    2    0    0 -0.57267715024E+02  0.81606572326E+02 -0.15108631452E+03  0.22003277047E+03  0.12509245306E+03 0.  0.
          5    1    3    3  502    0 -0.32224379701E+01  0.90255349547E+02 -0.13563843799E+03  0.16300819148E+03  0.41800000000E+01 0.  1.
         -5    1    3    3    0  502 -0.54045277054E+02 -0.86487772208E+01 -0.15447876529E+02  0.57024578986E+02  0.41800000000E+01 0.  1.
        -11    1    1    2    0    0 -0.85307178144E+01  0.10836106868E+02  0.11991671228E+02  0.18275517429E+02  0.00000000000E+00 0. -1.
         11    1    1    2    0    0  0.65798432839E+02 -0.92442679193E+02 -0.39632324706E+02  0.12019069790E+03  0.00000000000E+00 0.  1.
</event>
<event>
 7    1  0.2810263E-009  0.1040798E+03  0.7561462E-02  0.1271943E+00
          1   -1    0    0  501    0  0.00000000000E+00  0.00000000000E+00  0.20697866778E+03  0.20697866778E+03  0.00000000000E+00 0. -1.
         -1   -1    0    0    0  501 -0.00000000000E+00 -0.00000000000E+00 -0.12328956329E+03  0.12328956329E+03  0.00000000000E+00 0.  1.
         25    2    1    2    0    0  0.65539858398E+02 -0.67420316783E+01  0.14398163400E+03  0.20179128775E+03  0.12509230533E+03 0.  0.
          5    1    3    3  502    0 -0.36695597131E+02 -0.89384701791E+01  0.28596201946E+02  0.47557105291E+02  0.41800000000E+01 0.  1.
         -5    1    3    3    0  502  0.10223545553E+03  0.21964385007E+01  0.11538543205E+03  0.15423418246E+03  0.41800000000E+01 0.  1.
        -11    1    1    2    0    0 -0.39385121902E+02 -0.39028961173E+01  0.19293198123E+02  0.44030079709E+02  0.00000000000E+00 0. -1.
         11    1    1    2    0    0 -0.26154736495E+02  0.10644927796E+02 -0.79585727632E+02  0.84446863599E+02  0.00000000000E+00 0.  1.
</event>
<event>
 7    1  0.2810263E-009  0.1221521E+03  0.7561462E-02  0.1239588E+00
         -2   -1    0    0    0  501 -0.00000000000E+00  0.00000000000E+00  0.64270779704E+02  0.64270779704E+02  0.00000000000E+00 0.  1.
          2   -1    0    0  501    0  0.00000000000E+00 -0.00000000000E+00 -0.30313984151E+03  0.30313984151E+03  0.00000000000E+00 0. -1.
         25    2    1    2    0    0  0.82509894557E+02  0.11017897716E+02 -0.88260627366E+02  0.17426203709E+03  0.12509213587E+03 0.  0.
          5    1    3    3  502    0  0.79105537673E+02 -0.46070241644E+02 -0.43081944212E+02  0.10126045414E+03  0.41800000000E+01 0. -1.
         -5    1    3    3    0  502  0.34043568844E+01  0.57088139360E+02 -0.45178683154E+02  0.73001582948E+02  0.41800000000E+01 0. -1.
        -11    1    1    2    0    0 -0.59625448874E+02  0.14176433117E+02 -0.14657763534E+03  0.15887469462E+03  0.00000000000E+00 0. -1.
         11    1    1    2    0    0 -0.22884445683E+02 -0.25194330834E+02 -0.40307991028E+01  0.34273889505E+02  0.00000000000E+00 0.  1.
</event>
<event>
 7    1  0.2810263E-009  0.1094030E+03  0.7561462E-02  0.1261680E+00
         -2   -1    0    0    0  501 -0.00000000000E+00  0.00000000000E+00  0.86547486406E+02  0.86547486406E+02  0.00000000000E+00 0. -1.
          2   -1    0    0  501    0  0.00000000000E+00 -0.00000000000E+00 -0.18310752324E+03  0.18310752324E+03  0.00000000000E+00 0.  1.
         25    2    1    2    0    0  0.59361167309E+01 -0.33617135060E+02  0.35820672006E+01  0.12971516046E+03  0.12509133622E+03 0.  0.
          5    1    3    3  502    0  0.64600398537E+02 -0.18368413704E+02  0.12077982143E+02  0.68366367212E+02  0.41800000000E+01 0. -1.
         -5    1    3    3    0  502 -0.58664281806E+02 -0.15248721356E+02 -0.84959149420E+01  0.61348793252E+02  0.41800000000E+01 0. -1.
        -11    1    1    2    0    0  0.59092844377E-01 -0.28425513970E+02 -0.58317396501E+02  0.64876282809E+02  0.00000000000E+00 0.  1.
         11    1    1    2    0    0 -0.59952095752E+01  0.62042649030E+02 -0.41824707536E+02  0.75063566375E+02  0.00000000000E+00 0. -1.
</event>
<event>
 7    1  0.2810263E-009  0.1013039E+03  0.7561462E-02  0.1277578E+00
         -2   -1    0    0    0  501 -0.00000000000E+00  0.00000000000E+00  0.19332713548E+02  0.19332713548E+02  0.00000000000E+00 0.  1.
          2   -1    0    0  501    0  0.00000000000E+00 -0.00000000000E+00 -0.67618878180E+03  0.67618878180E+03  0.00000000000E+00 0. -1.
         25    2    1    2    0    0  0.22947985286E+02 -0.35634853935E+02 -0.37577517039E+03  0.39830995766E+03  0.12508953129E+03 0.  0.
          5    1    3    3  502    0 -0.16023557522E+02  0.40687274692E+02 -0.93919543602E+02  0.10368491591E+03  0.41800000000E+01 0.  1.
         -5    1    3    3    0  502  0.38971542808E+02 -0.76322128627E+02 -0.28185562679E+03  0.29462504174E+03  0.41800000000E+01 0.  1.
        -11    1    1    2    0    0 -0.31584896746E+02  0.48204524648E+02 -0.27469880439E+03  0.28067902492E+03  0.00000000000E+00 0. -1.
         11    1    1    2    0    0  0.86369114599E+01 -0.12569670713E+02 -0.63820934676E+01  0.16532512768E+02  0.00000000000E+00 0.  1.
</event>
<event>
 7    1  0.2810263E-009  0.1779198E+03  0.7561462E-02  0.1169832E+00
          2   -1    0    0  501    0  0.00000000000E+00  0.00000000000E+00  0.59041215727E+03  0.59041215727E+03  0.00000000000E+00 0. -1.
         -2   -1    0    0    0  501 -0.00000000000E+00 -0.00000000000E+00 -0.63766048668E+02  0.63766048668E+02  0.00000000000E+00 0.  1.
         25    2    1    2    0    0 -0.14253387974E+02  0.14875472387E+03  0.36073537391E+03  0.41000980385E+03  0.12508757861E+03 0.  0.
          5    1    3    3  502    0  0.39701339013E+02  0.48854403138E+02  0.22145370829E+03  0.23026542585E+03  0.41800000000E+01 0. -1.
         -5    1    3    3    0  502 -0.53954726988E+02  0.99900320728E+02  0.13928166562E+03  0.17974437800E+03  0.41800000000E+01 0. -1.
        -11    1    1    2    0    0  0.52076027855E+02 -0.45444669861E+02  0.65219055604E+02  0.95029763285E+02  0.00000000000E+00 0.  1.
         11    1    1    2    0    0 -0.37822639881E+02 -0.10331005401E+03  0.10069167909E+03  0.14913863880E+03  0.00000000000E+00 0. -1.
</event>
<event>
 7    1  0.2810263E-009  0.1619057E+03  0.7561462E-02  0.1186562E+00
         -1   -1    0    0    0  501 -0.00000000000E+00  0.00000000000E+00  0.16692580829E+03  0.16692580829E+03  0.00000000000E+00 0.  1.
          1   -1    0    0  501    0  0.00000000000E+00 -0.00000000000E+00 -0.21954627689E+03  0.21954627689E+03  0.00000000000E+00 0. -1.
         25    2    1    2    0    0  0.12032264019E+03 -0.37744153348E+02  0.67144492990E+02  0.18988761723E+03  0.12508703124E+03 0.  0.
          5    1    3    3  502    0 -0.12325244502E+02  0.24259283894E+02 -0.25917712654E+01  0.27651657914E+02  0.41800000000E+01 0. -1.
         -5    1    3    3    0  502  0.13264788469E+03 -0.62003437242E+02  0.69736264255E+02  0.16223595931E+03  0.41800000000E+01 0. -1.
        -11    1    1    2    0    0 -0.11568801393E+03  0.40208240982E+01 -0.11321788145E+03  0.16192026517E+03  0.00000000000E+00 0. -1.
         11    1    1    2    0    0 -0.46346262594E+01  0.33723329250E+02 -0.65470801515E+01  0.34664202785E+02  0.00000000000E+00 0.  1.
</event>
<event>
 7    1  0.2810263E-009  0.2088150E+03  0.7561462E-02  0.1142508E+00
         -1   -1    0    0    0  501 -0.00000000000E+00  0.00000000000E+00  0.29151256926E+03  0.29151256926E+03  0.00000000000E+00 0.  1.
          1   -1    0    0  501    0  0.00000000000E+00 -0.00000000000E+00 -0.22487427460E+03  0.22487427460E+03  0.00000000000E+00 0. -1.
         25    2    1    2    0    0  0.17576232690E+03 -0.10157082504E+03 -0.64580564149E+02  0.24703470981E+03  0.12508585262E+03 0.  0.
          5    1    3    3  502    0  0.17470720222E+03 -0.84749762979E+02 -0.15346843657E+02  0.19482845491E+03  0.41800000000E+01 0.  1.
         -5    1    3    3    0  502  0.10551246816E+01 -0.16821062061E+02 -0.49233720492E+02  0.52206254897E+02  0.41800000000E+01 0.  1.
        -11    1    1    2    0    0 -0.93425027827E+02  0.33631628699E+02  0.12872956162E+03  0.16257497443E+03  0.00000000000E+00 0.  1.
         11    1    1    2    0    0 -0.82337299074E+02  0.67939196341E+02  0.24892971898E+01  0.10677715963E+03  0.00000000000E+00 0. -1.
</event>
<event>
 7    1  0.3125736E-009  0.7095365E+02  0.7561462E-02  0.1356880E+00
         -1   -1    0    0    0  501 -0.00000000000E+00  0.00000000000E+00  0.59722237198E+03  0.59722237198E+03  0.00000000000E+00 0.  1.
          1   -1    0    0  501    0  0.00000000000E+00 -0.00000000000E+00 -0.29927565362E+02  0.29927565362E+02  0.00000000000E+00 0. -1.
         25    2    1    2    0    0 -0.31784266687E+02  0.34145580846E+02  0.45852083072E+03  0.47756133231E+03  0.12508922261E+03 0.  0.
          5    1    3    3  502    0 -0.21413199679E+02  0.61701523487E+02  0.11164313349E+03  0.12941122353E+03  0.41800000000E+01 0.  1.
         -5    1    3    3    0  502 -0.10371067009E+02 -0.27555942641E+02  0.34687769723E+03  0.34815010878E+03  0.41800000000E+01 0.  1.
        -11    1    1    2    0    0  0.17243675380E+02 -0.20440343396E+02 -0.10442763242E+02  0.28708940818E+02  0.00000000000E+00 0. -1.
         11    1    1    2    0    0  0.14540591308E+02 -0.13705237450E+02  0.11921673914E+03  0.12087966421E+03  0.00000000000E+00 0.  1.
</event>
<event>
 7    1  0.2810263E-009  0.1784000E+03  0.7561462E-02  0.1169361E+00
         -1   -1    0    0    0  501 -0.00000000000E+00  0.00000000000E+00  0.60527979179E+03  0.60527979179E+03  0.00000000000E+00 0.  1.
          1   -1    0    0  501    0  0.00000000000E+00 -0.00000000000E+00 -0.61989494249E+02  0.61989494249E+02  0.00000000000E+00 0. -1.
         25    2    1    2    0    0 -0.12373847169E+03 -0.95405010743E+02  0.22996311865E+03  0.30486134792E+03  0.12507629697E+03 0.  0.
          5    1    3    3  502    0 -0.17209076878E+02 -0.74259335370E+02  0.40457202000E+02  0.86399414409E+02  0.41800000000E+01 0.  1.
         -5    1    3    3    0  502 -0.10652939481E+03 -0.21145675373E+02  0.18950591665E+03  0.21846193351E+03  0.41800000000E+01 0.  1.
        -11    1    1    2    0    0  0.84886362042E+02  0.10163530379E+03  0.28392702589E+03  0.31328898076E+03  0.00000000000E+00 0.  1.
         11    1    1    2    0    0  0.38852109648E+02 -0.62302930426E+01  0.29400152994E+02  0.49118957355E+02  0.00000000000E+00 0. -1.
</event>
<event>
 7    1  0.2810263E-009  0.1046572E+03  0.7561462E-02  0.1270796E+00
          2   -1    0    0  501    0  0.00000000000E+00  0.00000000000E+00  0.20040771882E+03  0.20040771882E+03  0.00000000000E+00 0. -1.
         -2   -1    0    0    0  501 -0.00000000000E+00 -0.00000000000E+00 -0.14451143863E+03  0.14451143863E+03  0.00000000000E+00 0.  1.
         25    2    1    2    0    0  0.18007253171E+02  0.21985310296E+02  0.15689435961E+03  0.20265188712E+03  0.12507730505E+03 0.  0.
          5    1    3    3  502    0  0.62933414687E-01  0.65173586790E+02  0.39764193129E+02  0.76460864701E+02  0.41800000000E+01 0.  1.
         -5    1    3    3    0  502  0.17944319756E+02 -0.43188276494E+02  0.11713016648E+03  0.12619102242E+03  0.41800000000E+01 0.  1.
        -11    1    1    2    0    0  0.13023630076E+02 -0.52164977266E+02 -0.73197281108E+02  0.90822033423E+02  0.00000000000E+00 0.  1.
         11    1    1    2    0    0 -0.31030883247E+02  0.30179666970E+02 -0.27800798315E+02  0.51445236908E+02  0.00000000000E+00 0. -1.
</event>
<event>
 7    1  0.2810263E-009  0.1185101E+03  0.7561462E-02  0.1245575E+00
          1   -1    0    0  501    0  0.00000000000E+00  0.00000000000E+00  0.13907949642E+02  0.13907949642E+02  0.00000000000E+00 0. -1.
         -1   -1    0    0    0  501 -0.00000000000E+00 -0.00000000000E+00 -0.16876675841E+04  0.16876675841E+04  0.00000000000E+00 0.  1.
         25    2    1    2    0    0 -0.70458419914E+02  0.72372911313E+02 -0.10934283938E+04  0.11051859937E+04  0.12509276999E+03 0.  0.
          5    1    3    3  502    0 -0.59823489465E+02  0.51770166999E+02 -0.26906682202E+03  0.28048783787E+03  0.41800000000E+01 0. -1.
         -5    1    3    3    0  502 -0.10634930449E+02  0.20602744314E+02 -0.82436157180E+03  0.82469815586E+03  0.41800000000E+01 0. -1.
        -11    1    1    2    0    0  0.42183492629E+02 -0.91051868010E+02 -0.48338660154E+03  0.49369271442E+03  0.00000000000E+00 0.  1.
         11    1    1    2    0    0  0.28274927285E+02  0.18678956697E+02 -0.96944639049E+02  0.10269682554E+03  0.00000000000E+00 0. -1.
</event>
<event>
 7    1  0.2810263E-009  0.1844350E+03  0.7561462E-02  0.1163579E+00
         -1   -1    0    0    0  501 -0.00000000000E+00  0.00000000000E+00  0.14976434787E+04  0.14976434787E+04  0.00000000000E+00 0.  1.
          1   -1    0    0  501    0  0.00000000000E+00 -0.00000000000E+00 -0.27774386295E+02  0.27774386295E+02  0.00000000000E+00 0. -1.
         25    2    1    2    0    0  0.15102085058E+03  0.13619020448E+02  0.10716280729E+04  0.10895079155E+04  0.12509195102E+03 0.  0.
          5    1    3    3  502    0  0.16343392028E+02  0.53375962581E+02  0.28921775401E+03  0.29458527030E+03  0.41800000000E+01 0.  1.
         -5    1    3    3    0  502  0.13467745856E+03 -0.39756942134E+02  0.78241031890E+03  0.79492264517E+03  0.41800000000E+01 0.  1.
        -11    1    1    2    0    0 -0.33368087099E+02 -0.39737617792E+02  0.17085125987E+03  0.17855716313E+03  0.00000000000E+00 0.  1.
         11    1    1    2    0    0 -0.11765276348E+03  0.26118597345E+02  0.22738975966E+03  0.25735278642E+03  0.00000000000E+00 0. -1.
</event>
<event>
 7    1  0.2810263E-009  0.1324034E+03  0.7561462E-02  0.1223933E+00
         -4   -1    0    0    0  501 -0.00000000000E+00  0.00000000000E+00  0.76594937524E+03  0.76594937524E+03  0.00000000000E+00 0.  1.
          4   -1    0    0  501    0  0.00000000000E+00 -0.00000000000E+00 -0.32081779710E+02  0.32081779710E+02  0.00000000000E+00 0. -1.
         25    2    1    2    0    0 -0.83740893636E+02  0.74522564244E+02  0.35032488347E+03  0.38851146425E+03  0.12508990379E+03 0.  0.
          5    1    3    3  502    0 -0.66871159320E+02  0.29405240067E+02  0.32652347799E+03  0.33462138929E+03  0.41800000000E+01 0.  1.
         -5    1    3    3    0  502 -0.16869734316E+02  0.45117324177E+02  0.23801405481E+02  0.53890074964E+02  0.41800000000E+01 0.  1.
        -11    1    1    2    0    0 -0.16538868776E+02 -0.28499572240E+02  0.98611985398E+02  0.10397155122E+03  0.00000000000E+00 0. -1.
         11    1    1    2    0    0  0.10027976241E+03 -0.46022992004E+02  0.28493072666E+03  0.30554813948E+03  0.00000000000E+00 0.  1.
</event>
<event>
 7    1  0.2810263E-009  0.1437649E+03  0.7561462E-02  0.1208351E+00
          2   -1    0    0  501    0  0.00000000000E+00  0.00000000000E+00  0.77194521369E+03  0.77194521369E+03  0.00000000000E+00 0. -1.
         -2   -1    0    0    0  501 -0.00000000000E+00 -0.00000000000E+00 -0.34320995374E+02  0.34320995374E+02  0.00000000000E+00 0.  1.
         25    2    1    2    0    0 -0.34983049838E+02  0.11093384179E+03  0.30927896875E+03  0.35331461091E+03  0.12509037829E+03 0.  0.
          5    1    3    3  502    0 -0.27127233376E+02 -0.18324334675E+02  0.26706515805E+02  0.42454427547E+02  0.41800000000E+01 0. -1.
         -5    1    3    3    0  502 -0.78558164618E+01  0.12925817647E+03  0.28257245295E+03  0.31086018336E+03  0.41800000000E+01 0. -1.
        -11    1    1    2    0    0 -0.10014086667E+02 -0.37727247632E+02  0.42715668278E+02  0.57864112040E+02  0.00000000000E+00 0.  1.
         11    1    1    2    0    0  0.44997136504E+02 -0.73206594159E+02  0.38562958129E+03  0.39508748612E+03  0.00000000000E+00 0. -1.
</event>
<event>
 7    1  0.2810263E-009  0.1674801E+03  0.7561462E-02  0.1180501E+00
         -2   -1    0    0    0  501 -0.00000000000E+00  0.00000000000E+00  0.40359878759E+02  0.40359878759E+02  0.00000000000E+00 0.  1.
          2   -1    0    0  501    0  0.00000000000E+00 -0.00000000000E+00 -0.80974307477E+03  0.80974307477E+03  0.00000000000E+00 0. -1.
         25    2    1    2    0    0 -0.80950698756E+02 -0.11211768618E+03 -0.50490226412E+03  0.53823969868E+03  0.12510909536E+03 0.  0.
          5    1    3    3  502    0 -0.10754440149E+03 -0.74856494111E+02 -0.28675483968E+03  0.31530160717E+03  0.41800000000E+01 0. -1.
         -5    1    3    3    0  502  0.26593702730E+02 -0.37261192065E+02 -0.21814742444E+03  0.22293809152E+03  0.41800000000E+01 0. -1.
        -11    1    1    2    0    0 -0.97459757973E+01  0.42377824270E+02 -0.36449539367E+02  0.56740047181E+02  0.00000000000E+00 0.  1.
         11    1    1    2    0    0  0.90696674553E+02  0.69739861906E+02 -0.22803139253E+03  0.25512320767E+03  0.00000000000E+00 0. -1.
</event>
<event>
 7    1  0.2810263E-009  0.1096076E+03  0.7561462E-02  0.1261298E+00
          3   -1    0    0  501    0  0.00000000000E+00  0.00000000000E+00  0.25663292101E+03  0.25663292101E+03  0.00000000000E+00 0. -1.
         -3   -1    0    0    0  501 -0.00000000000E+00 -0.00000000000E+00 -0.70245151592E+02  0.70245151592E+02  0.00000000000E+00 0.  1.
         25    2    1    2    0    0 -0.16726164296E+02  0.65617746990E+02  0.52281372970E+02  0.15154754460E+03  0.12509141867E+03 0.  0.
          5    1    3    3  502    0  0.27904079218E+02  0.85039858223E+02  0.50082586108E+02  0.10264576443E+03  0.41800000000E+01 0.  1.
         -5    1    3    3    0  502 -0.44630243513E+02 -0.19422111233E+02  0.21987868618E+01  0.48901780177E+02  0.41800000000E+01 0.  1.
        -11    1    1    2    0    0 -0.52690521422E+01 -0.56838007499E+02  0.22691830552E+02  0.61426713901E+02  0.00000000000E+00 0.  1.
         11    1    1    2    0    0  0.21995216438E+02 -0.87797394916E+01  0.11141456590E+03  0.11390381410E+03  0.00000000000E+00 0. -1.
</event>
<event>
 7    1  0.2810263E-009  0.1863716E+03  0.7561462E-02  0.1161775E+00
          2   -1    0    0  501    0  0.00000000000E+00  0.00000000000E+00  0.16498572925E+04  0.16498572925E+04  0.00000000000E+00 0. -1.
         -2   -1    0    0    0  501 -0.00000000000E+00 -0.00000000000E+00 -0.26132106183E+02  0.26132106183E+02  0.00000000000E+00 0.  1.
         25    2    1    2    0    0 -0.11806135560E+03  0.89729392178E+02  0.11624737336E+04  0.11785515553E+04  0.12509492305E+03 0.  0.
          5    1    3    3  502    0  0.22345334611E+02  0.62559571702E+01  0.68547303108E+02  0.72489007045E+02  0.41800000000E+01 0.  1.
         -5    1    3    3    0  502 -0.14040669021E+03  0.83473435008E+02  0.10939264305E+04  0.11060625483E+04  0.41800000000E+01 0.  1.
        -11    1    1    2    0    0  0.99706597308E+02 -0.58243017443E+01  0.22990713868E+03  0.25066435816E+03  0.00000000000E+00 0. -1.
         11    1    1    2    0    0  0.18354758295E+02 -0.83905090434E+02  0.23134431410E+03  0.24677348524E+03  0.00000000000E+00 0.  1.
</event>
<event>
 7    1  0.2810263E-009  0.1190478E+03  0.7561462E-02  0.1244676E+00
         -1   -1    0    0    0  501 -0.00000000000E+00  0.00000000000E+00  0.14937313715E+02  0.14937313715E+02  0.00000000000E+00 0.  1.
          1   -1    0    0  501    0  0.00000000000E+00 -0.00000000000E+00 -0.97535016225E+03  0.97535016225E+03  0.00000000000E+00 0. -1.
         25    2    1    2    0    0  0.14482466480E+02  0.46743267049E+02 -0.45932957944E+03  0.47856633778E+03  0.12508957694E+03 0.  0.
          5    1    3    3  502    0 -0.45327278518E+02 -0.15300842344E+02 -0.16811088520E+03  0.17483540853E+03  0.41800000000E+01 0.  1.
         -5    1    3    3    0  502  0.59809744997E+02  0.62044109393E+02 -0.29121869425E+03  0.30373092926E+03  0.41800000000E+01 0.  1.
        -11    1    1    2    0    0 -0.41105908529E+02 -0.61027642805E+02 -0.35305192991E+03  0.36063795435E+03  0.00000000000E+00 0.  1.
         11    1    1    2    0    0  0.26623442050E+02  0.14284375756E+02 -0.14803133918E+03  0.15108318383E+03  0.00000000000E+00 0. -1.
</event>
<event>
 7    1  0.2810263E-009  0.9612634E+02  0.7561462E-02  0.1288659E+00
         -1   -1    0    0    0  501 -0.00000000000E+00  0.00000000000E+00  0.12183294522E+03  0.12183294522E+03  0.00000000000E+00 0.  1.
          1   -1    0    0  501    0  0.00000000000E+00 -0.00000000000E+00 -0.20666609591E+03  0.20666609591E+03  0.00000000000E+00 0. -1.
         25    2    1    2    0    0 -0.54372342880E+02  0.10586826822E+02 -0.14926536801E+03  0.20247812580E+03  0.12509519883E+03 0.  0.
          5    1    3    3  502    0 -0.84419200139E+02  0.40437655010E+02 -0.11085156551E+03  0.14514595162E+03  0.41800000000E+01 0. -1.
         -5    1    3    3    0  502  0.30046857259E+02 -0.29850828188E+02 -0.38413802495E+02  0.57332174185E+02  0.41800000000E+01 0. -1.
        -11    1    1    2    0    0  0.15305003136E+02  0.72694237396E+00 -0.24119708730E+02  0.28575022580E+02  0.00000000000E+00 0. -1.
         11    1    1    2    0    0  0.39067339744E+02 -0.11313769196E+02  0.88551926037E+02  0.97445892746E+02  0.00000000000E+00 0.  1.
</event>
<event>
 7    1  0.2810263E-009  0.1344441E+03  0.7561462E-02  0.1221007E+00
         -1   -1    0    0    0  501 -0.00000000000E+00  0.00000000000E+00  0.49944480979E+02  0.49944480979E+02  0.00000000000E+00 0.  1.
          1   -1    0    0  501    0  0.00000000000E+00 -0.00000000000E+00 -0.43783678257E+03  0.43783678257E+03  0.00000000000E+00 0. -1.
         25    2    1    2    0    0  0.60997707591E+02 -0.77134895230E+02 -0.17858313560E+03  0.23918680485E+03  0.12509148212E+03 0.  0.
          5    1    3    3  502    0  0.82451806917E+02 -0.46843387628E+01 -0.81613373092E+02  0.11618286690E+03  0.41800000000E+01 0. -1.
         -5    1    3    3    0  502 -0.21454099327E+02 -0.72450556467E+02 -0.96969762505E+02  0.12300393795E+03  0.41800000000E+01 0. -1.
        -11    1    1    2    0    0 -0.41345148876E+02  0.80581492366E+02 -0.20992845255E+03  0.22863235431E+03  0.00000000000E+00 0. -1.
         11    1    1    2    0    0 -0.19652558715E+02 -0.34465971360E+01  0.61928655748E+00  0.19962104390E+02  0.00000000000E+00 0.  1.
</event>
<event>
 7    1  0.2810263E-009  0.2057374E+03  0.7561462E-02  0.1144987E+00
          1   -1    0    0  501    0  0.00000000000E+00  0.00000000000E+00  0.11072653996E+03  0.11072653996E+03  0.00000000000E+00 0. -1.
         -1   -1    0    0    0  501 -0.00000000000E+00 -0.00000000000E+00 -0.42280991131E+03  0.42280991131E+03  0.00000000000E+00 0.  1.
         25    2    1    2    0    0  0.13771267826E+03  0.12336452404E+03 -0.13125117252E+03  0.25895452647E+03  0.12508792485E+03 0.  0.
          5    1    3    3  502    0  0.13283776921E+03  0.14288961670E+03 -0.94440842355E+02  0.21679451237E+03  0.41800000000E+01 0. -1.
         -5    1    3    3    0  502  0.48749090510E+01 -0.19525092656E+02 -0.36810330168E+02  0.42160014096E+02  0.41800000000E+01 0. -1.
        -11    1    1    2    0    0 -0.11560776289E+03 -0.63361474632E+02 -0.16002832058E+03  0.20733763454E+03  0.00000000000E+00 0.  1.
         11    1    1    2    0    0 -0.22104915373E+02 -0.60003049412E+02 -0.20803878248E+02  0.67244290259E+02  0.00000000000E+00 0. -1.
</event>
<event>
 7    1  0.2810263E-009  0.7187273E+02  0.7561462E-02  0.1353838E+00
          2   -1    0    0  501    0  0.00000000000E+00  0.00000000000E+00  0.55105992933E+03  0.55105992933E+03  0.00000000000E+00 0. -1.
         -2   -1    0    0    0  501 -0.00000000000E+00 -0.00000000000E+00 -0.21158573798E+02  0.21158573798E+02  0.00000000000E+00 0.  1.
         25    2    1    2    0    0 -0.24640947737E+02  0.54881840072E+01  0.32850891554E+03  0.35242832642E+03  0.12510124383E+03 0.  0.
          5    1    3    3  502    0  0.53587543669E+01 -0.21950772605E+02  0.30380408077E+03  0.30467186375E+03  0.41800000000E+01 0.  1.
         -5    1    3    3    0  502 -0.29999702104E+02  0.27438956612E+02  0.24704834768E+02  0.47756462675E+02  0.41800000000E+01 0.  1.
        -11    1    1    2    0    0  0.14617834002E+01  0.34041249651E+02  0.13421156966E+03  0.13846909012E+03  0.00000000000E+00 0.  1.
         11    1    1    2    0    0  0.23179164337E+02 -0.39529433658E+02  0.67180870342E+02  0.81321086593E+02  0.00000000000E+00 0. -1.
</event>
<event>
 7    1  0.2810263E-009  0.1032382E+03  0.7561462E-02  0.1273630E+00
         -2   -1    0    0    0  501 -0.00000000000E+00  0.00000000000E+00  0.91534884912E+02  0.91534884912E+02  0.00000000000E+00 0. -1.
          2   -1    0    0  501    0  0.00000000000E+00 -0.00000000000E+00 -0.25946502347E+03  0.25946502347E+03  0.00000000000E+00 0.  1.
         25    2    1    2    0    0  0.73912091367E+01 -0.59250060874E+01 -0.21427869313E+03  0.24830012647E+03  0.12509140179E+03 0.  0.
          5    1    3    3  502    0  0.46814820306E+02  0.34755255113E+02 -0.15744752880E+03  0.16794865847E+03  0.41800000000E+01 0.  1.
         -5    1    3    3    0  502 -0.39423611169E+02 -0.40680261201E+02 -0.56831164337E+02  0.80351467994E+02  0.41800000000E+01 0.  1.
        -11    1    1    2    0    0 -0.13842250166E+02  0.47330467110E+02  0.29981122782E+02  0.57711772887E+02  0.00000000000E+00 0.  1.
         11    1    1    2    0    0  0.64510410293E+01 -0.41405461023E+02  0.16367431793E+02  0.44988009029E+02  0.00000000000E+00 0. -1.
</event>
<event>
 7    1  0.2810263E-009  0.1165024E+03  0.7561462E-02  0.1248981E+00
          1   -1    0    0  501    0  0.00000000000E+00  0.00000000000E+00  0.52363024326E+03  0.52363024326E+03  0.00000000000E+00 0. -1.
         -1   -1    0    0    0  501 -0.00000000000E+00 -0.00000000000E+00 -0.36097959644E+02  0.36097959644E+02  0.00000000000E+00 0.  1.
         25    2    1    2    0    0 -0.55223416781E+02 -0.34239391824E+02  0.37768716064E+03  0.40313491815E+03  0.12509280237E+03 0.  0.
          5    1    3    3  502    0 -0.75740860756E+02  0.61987853994E+01  0.12477094927E+03  0.14615185633E+03  0.41800000000E+01 0. -1.
         -5    1    3    3    0  502  0.20517443975E+02 -0.40438177224E+02  0.25291621138E+03  0.25698306182E+03  0.41800000000E+01 0.  1.
        -11    1    1    2    0    0  0.65319643102E+02 -0.99117240678E+01  0.70230312343E+02  0.96421962336E+02  0.00000000000E+00 0. -1.
         11    1    1    2    0    0 -0.10096226321E+02  0.44151115892E+02  0.39614810631E+02  0.60171322420E+02  0.00000000000E+00 0.  1.
</event>
<event>
 7    1  0.2810263E-009  0.1625351E+03  0.7561462E-02  0.1185864E+00
          2   -1    0    0  501    0  0.00000000000E+00  0.00000000000E+00  0.93240966484E+03  0.93240966484E+03  0.00000000000E+00 0. -1.
         -2   -1    0    0    0  501 -0.00000000000E+00 -0.00000000000E+00 -0.32522937594E+02  0.32522937594E+02  0.00000000000E+00 0.  1.
         25    2    1    2    0    0 -0.69620554569E+02 -0.11351181523E+03  0.53177605142E+03  0.56228632155E+03  0.12509270451E+03 0.  0.
          5    1    3    3  502    0  0.13365163512E+02  0.13329174256E+02  0.15408872622E+03  0.15529682041E+03  0.41800000000E+01 0. -1.
         -5    1    3    3    0  502 -0.82985718082E+02 -0.12684098948E+03  0.37768732520E+03  0.40698950113E+03  0.41800000000E+01 0. -1.
        -11    1    1    2    0    0  0.61739514573E+02  0.12543803738E+03  0.36003602042E+03  0.38622843614E+03  0.00000000000E+00 0. -1.
         11    1    1    2    0    0  0.78810399962E+01 -0.11926222151E+02  0.80746554030E+01  0.16417844746E+02  0.00000000000E+00 0.  1.
</event>
<event>
 7    1  0.2810263E-009  0.1332180E+03  0.7561462E-02  0.1222757E+00
         -2   -1    0    0    0  501 -0.00000000000E+00  0.00000000000E+00  0.28219489877E+02  0.28219489877E+02  0.00000000000E+00 0.  1.
          2   -1    0    0  501    0  0.00000000000E+00 -0.00000000000E+00 -0.90429140659E+03  0.90429140659E+03  0.00000000000E+00 0. -1.
         25    2    1    2    0    0 -0.30862979794E+02 -0.11213699828E+03 -0.51112733012E+03  0.53891149936E+03  0.12508887496E+03 0.  0.
          5    1    3    3  502    0 -0.37142402293E+02 -0.96072153128E+02 -0.51086469271E+03  0.52116180147E+03  0.41800000000E+01 0.  1.
         -5    1    3    3    0  502  0.62794224989E+01 -0.16064845155E+02 -0.26263741278E+00  0.17749697890E+02  0.41800000000E+01 0.  1.
        -11    1    1    2    0    0 -0.30156285556E+01 -0.14346109294E+02 -0.21337121061E+02  0.25887788677E+02  0.00000000000E+00 0.  1.
         11    1    1    2    0    0  0.33878608350E+02  0.12648310758E+03 -0.34360746553E+03  0.36771160843E+03  0.00000000000E+00 0. -1.
</event>
<event>
 7    1  0.2810263E-009  0.1672636E+03  0.7561462E-02  0.1180732E+00
         -3   -1    0    0    0  501 -0.00000000000E+00  0.00000000000E+00  0.22942132565E+03  0.22942132565E+03  0.00000000000E+00 0.  1.
          3   -1    0    0  501    0  0.00000000000E+00 -0.00000000000E+00 -0.19833470703E+03  0.19833470703E+03  0.00000000000E+00 0. -1.
         25    2    1    2    0    0  0.18969451493E+02 -0.13555654505E+03 -0.10590333119E+03  0.21353616433E+03  0.12508701340E+03 0.  0.
          5    1    3    3  502    0  0.53201560688E+02 -0.34459242595E+02 -0.82607242572E+02  0.10420784224E+03  0.41800000000E+01 0.  1.
         -5    1    3    3    0  502 -0.34232109195E+02 -0.10109730246E+03 -0.23296088622E+02  0.10932832208E+03  0.41800000000E+01 0.  1.
        -11    1    1    2    0    0  0.36757445381E+02  0.58509371874E+02  0.49419713301E+02  0.84951541780E+02  0.00000000000E+00 0. -1.
         11    1    1    2    0    0 -0.55726896873E+02  0.77047173181E+02  0.87570236519E+02  0.12926832657E+03  0.00000000000E+00 0.  1.
</event>
<event>
 7    1  0.4024723E-009  0.1027805E+03  0.7561462E-02  0.1274555E+00
         -1   -1    0    0    0  501 -0.00000000000E+00  0.00000000000E+00  0.22483858245E+02  0.22483858245E+02  0.00000000000E+00 0.  1.
          1   -1    0    0  501    0  0.00000000000E+00 -0.00000000000E+00 -0.66760098896E+03  0.66760098896E+03  0.00000000000E+00 0. -1.
         25    2    1    2    0    0  0.39778125359E+02  0.40098967809E+02 -0.38980877414E+03  0.41326566771E+03  0.12508958885E+03 0.  0.
          5    1    3    3  502    0  0.63749635891E+02  0.63312766941E+02 -0.18490752331E+03  0.20562292458E+03  0.41800000000E+01 0.  1.
         -5    1    3    3    0  502 -0.23971510532E+02 -0.23213799132E+02 -0.20490125082E+03  0.20764274313E+03  0.41800000000E+01 0.  1.
        -11    1    1    2    0    0 -0.46275442961E+02 -0.52905251600E+01 -0.49426821521E+02  0.67914777209E+02  0.00000000000E+00 0.  1.
         11    1    1    2    0    0  0.64973176020E+01 -0.34808442649E+02 -0.20588153505E+03  0.20890440228E+03  0.00000000000E+00 0. -1.
</event>
<event>
 7    1  0.2810263E-009  0.9891128E+02  0.7561462E-02  0.1282602E+00
         -2   -1    0    0    0  501 -0.00000000000E+00  0.00000000000E+00  0.20055745016E+03  0.20055745016E+03  0.00000000000E+00 0.  1.
          2   -1    0    0  501    0  0.00000000000E+00 -0.00000000000E+00 -0.87297576350E+02  0.87297576350E+02  0.00000000000E+00 0. -1.
         25    2    1    2    0    0  0.59433369448E+02 -0.44554982933E+02  0.75430538412E+02  0.16387306851E+03  0.12508854683E+03 0.  0.
          5    1    3    3  502    0  0.30406862228E+02 -0.39665707218E+02  0.10842300667E+03  0.11946115006E+03  0.41800000000E+01 0.  1.
         -5    1    3    3    0  502  0.29026507221E+02 -0.48892757148E+01 -0.32992468253E+02  0.44411918444E+02  0.41800000000E+01 0.  1.
        -11    1    1    2    0    0  0.12963370967E+02 -0.18052550452E+02  0.94474009302E+01  0.24149470988E+02  0.00000000000E+00 0.  1.
         11    1    1    2    0    0 -0.72396740415E+02  0.62607533385E+02  0.28381934465E+02  0.99832487014E+02  0.00000000000E+00 0. -1.
</event>
<event>
 7    1  0.3222447E-009  0.1427991E+03  0.7561462E-02  0.1209611E+00
          1   -1    0    0  501    0  0.00000000000E+00  0.00000000000E+00  0.58940062069E+03  0.58940062069E+03  0.00000000000E+00 0. -1.
         -1   -1    0    0    0  501 -0.00000000000E+00 -0.00000000000E+00 -0.57207194249E+02  0.57207194249E+02  0.00000000000E+00 0.  1.
         25    2    1    2    0    0  0.97978888686E+01  0.13124250584E+03  0.39941009585E+03  0.43874403567E+03  0.12508920898E+03 0.  0.
          5    1    3    3  502    0  0.39131649988E+02  0.63092097474E+02  0.32567938512E+03  0.33406052309E+03  0.41800000000E+01 0.  1.
         -5    1    3    3    0  502 -0.29333761119E+02  0.68150408362E+02  0.73730710736E+02  0.10468351258E+03  0.41800000000E+01 0.  1.
        -11    1    1    2    0    0  0.14587367729E+02 -0.45339178198E+02 -0.26264000019E+00  0.47628787059E+02  0.00000000000E+00 0.  1.
         11    1    1    2    0    0 -0.24385256597E+02 -0.85903327639E+02  0.13304597059E+03  0.16023499221E+03  0.00000000000E+00 0. -1.
</event>
<event>
 7    1  0.2810263E-009  0.1173957E+03  0.7561462E-02  0.1247456E+00
         -2   -1    0    0    0  501 -0.00000000000E+00  0.00000000000E+00  0.14719116598E+03  0.14719116598E+03  0.00000000000E+00 0.  1.
          2   -1    0    0  501    0  0.00000000000E+00 -0.00000000000E+00 -0.16429409981E+03  0.16429409981E+03  0.00000000000E+00 0. -1.
         25    2    1    2    0    0 -0.42507278948E+02 -0.52158015619E+02 -0.98090866070E+02  0.17261589014E+03  0.12508836942E+03 0.  0.
          5    1    3    3  502    0 -0.72235985238E+02 -0.42466710329E+01 -0.89909534452E+02  0.11548709263E+03  0.41800000000E+01 0. -1.
         -5    1    3    3    0  502  0.29728706290E+02 -0.47911344586E+02 -0.81813316178E+01  0.57128797509E+02  0.41800000000E+01 0. -1.
        -11    1    1    2    0    0  0.47554494356E+02  0.71450152250E+02  0.43073670592E+02  0.96030699718E+02  0.00000000000E+00 0. -1.
         11    1    1    2    0    0 -0.50472154084E+01 -0.19292136631E+02  0.37914261648E+02  0.42838675931E+02  0.00000000000E+00 0.  1.
</event>
<event>
 7    1  0.2810263E-009  0.1397681E+03  0.7561462E-02  0.1213641E+00
         -1   -1    0    0    0  501 -0.00000000000E+00  0.00000000000E+00  0.16433312048E+03  0.16433312048E+03  0.00000000000E+00 0.  1.
          1   -1    0    0  501    0  0.00000000000E+00 -0.00000000000E+00 -0.14126395024E+03  0.14126395024E+03  0.00000000000E+00 0. -1.
         25    2    1    2    0    0 -0.12919229248E+02 -0.92236613562E+02  0.65335212985E+02  0.16909413411E+03  0.12509850826E+03 0.  0.
          5    1    3    3  502    0 -0.55419717025E+02 -0.76509417937E+01  0.45622943425E+02  0.72310492408E+02  0.41800000000E+01 0. -1.
         -5    1    3    3    0  502  0.42500487777E+02 -0.84585671768E+02  0.19712269560E+02  0.96783641701E+02  0.41800000000E+01 0. -1.
        -11    1    1    2    0    0  0.51192371340E+02  0.47881421365E+02 -0.14100773963E+02  0.71499099447E+02  0.00000000000E+00 0. -1.
         11    1    1    2    0    0 -0.38273142093E+02  0.44355192197E+02 -0.28165268783E+02  0.65003837165E+02  0.00000000000E+00 0.  1.
</event>
<event>
 7    1  0.2810263E-009  0.1129182E+03  0.7561462E-02  0.1255259E+00
         -1   -1    0    0    0  501 -0.00000000000E+00  0.00000000000E+00  0.17843586534E+03  0.17843586534E+03  0.00000000000E+00 0.  1.
          1   -1    0    0  501    0  0.00000000000E+00 -0.00000000000E+00 -0.21623998652E+03  0.21623998652E+03  0.00000000000E+00 0. -1.
         25    2    1    2    0    0  0.56277062710E+02 -0.85006024428E+02  0.10527014076E+03  0.19267122350E+03  0.12508903170E+03 0.  0.
          5    1    3    3  502    0  0.60475471081E+02 -0.93797279282E+02  0.12661944624E+03  0.16883473804E+03  0.41800000000E+01 0. -1.
         -5    1    3    3    0  502 -0.41984083713E+01  0.87912548541E+01 -0.21349305477E+02  0.23836485461E+02  0.41800000000E+01 0. -1.
        -11    1    1    2    0    0 -0.19524098626E+02  0.45941265123E+02 -0.13959967484E+03  0.14825606053E+03  0.00000000000E+00 0.  1.
         11    1    1    2    0    0 -0.36752964084E+02  0.39064759305E+02 -0.34745870979E+01  0.53748567832E+02  0.00000000000E+00 0. -1.
</event>
<event>
 7    1  0.2810263E-009  0.1941284E+03  0.7561462E-02  0.1154790E+00
         -2   -1    0    0    0  501 -0.00000000000E+00  0.00000000000E+00  0.90471109952E+03  0.90471109952E+03  0.00000000000E+00 0.  1.
          2   -1    0    0  501    0  0.00000000000E+00 -0.00000000000E+00 -0.50792642155E+02  0.50792642155E+02  0.00000000000E+00 0. -1.
         25    2    1    2    0    0  0.52753541744E+02 -0.15437791562E+03  0.25213223294E+03  0.32531998997E+03  0.12508779314E+03 0.  0.
          5    1    3    3  502    0 -0.96446050223E-01  0.21328527734E+02  0.21459639553E+02  0.30543476012E+02  0.41800000000E+01 0. -1.
         -5    1    3    3    0  502  0.52849987794E+02 -0.17570644335E+03  0.23067259339E+03  0.29477651396E+03  0.41800000000E+01 0. -1.
        -11    1    1    2    0    0 -0.47256777149E+02  0.24933699521E+02  0.12150456506E+03  0.13273376243E+03  0.00000000000E+00 0.  1.
         11    1    1    2    0    0 -0.54967645948E+01  0.12944421609E+03  0.48028165937E+03  0.49744998927E+03  0.00000000000E+00 0. -1.
</event>
<event>
 7    1  0.2810263E-009  0.8673051E+02  0.7561462E-02  0.1310968E+00
          2   -1    0    0  501    0  0.00000000000E+00  0.00000000000E+00  0.61442593697E+03  0.61442593697E+03  0.00000000000E+00 0. -1.
         -2   -1    0    0    0  501 -0.00000000000E+00 -0.00000000000E+00 -0.22527117141E+02  0.22527117141E+02  0.00000000000E+00 0.  1.
         25    2    1    2    0    0  0.34562561968E+02  0.11533866647E+02  0.25889391461E+03  0.28983029275E+03  0.12509172157E+03 0.  0.
          5    1    3    3  502    0  0.55749539555E+02 -0.10623509264E+02  0.25171572928E+03  0.25806811287E+03  0.41800000000E+01 0.  1.
         -5    1    3    3    0  502 -0.21186977587E+02  0.22157375911E+02  0.71781853287E+01  0.31762179886E+02  0.41800000000E+01 0.  1.
        -11    1    1    2    0    0 -0.26147449213E+01  0.31727405631E+02  0.51639314018E+02  0.60663695167E+02  0.00000000000E+00 0.  1.
         11    1    1    2    0    0 -0.31947817047E+02 -0.43261272278E+02  0.28136559120E+03  0.28645906620E+03  0.00000000000E+00 0. -1.
</event>
<event>
 7    1  0.2810263E-009  0.9277406E+02  0.7561462E-02  0.1296270E+00
         -1   -1    0    0    0  501 -0.00000000000E+00  0.00000000000E+00  0.26784090422E+02  0.26784090422E+02  0.00000000000E+00 0.  1.
          1   -1    0    0  501    0  0.00000000000E+00 -0.00000000000E+00 -0.46852089081E+03  0.46852089081E+03  0.00000000000E+00 0. -1.
         25    2    1    2    0    0  0.18008965533E+02  0.16467622466E+02 -0.33586546426E+03  0.35923369953E+03  0.12509090840E+03 0.  0.
          5    1    3    3  502    0 -0.18755076221E+02 -0.48642024441E+02 -0.14952231297E+03  0.15840515743E+03  0.41800000000E+01 0. -1.
         -5    1    3    3    0  502  0.36764041754E+02  0.65109646907E+02 -0.18634315129E+03  0.20082854210E+03  0.41800000000E+01 0. -1.
        -11    1    1    2    0    0  0.15605741668E+02  0.72622156123E+01  0.49066656992E+01  0.17898444538E+02  0.00000000000E+00 0.  1.
         11    1    1    2    0    0 -0.33614707201E+02 -0.23729838078E+02 -0.11077800182E+03  0.11817283716E+03  0.00000000000E+00 0. -1.
</event>
<event>
 7    1  0.2810263E-009  0.1017333E+03  0.7561462E-02  0.1276693E+00
          1   -1    0    0  501    0  0.00000000000E+00  0.00000000000E+00  0.41982067581E+02  0.41982067581E+02  0.00000000000E+00 0. -1.
         -1   -1    0    0    0  501 -0.00000000000E+00 -0.00000000000E+00 -0.31679958821E+03  0.31679958821E+03  0.00000000000E+00 0.  1.
         25    2    1    2    0    0  0.46161391406E+02 -0.23980890172E+01 -0.15974913304E+03  0.20809886525E+03  0.12509487329E+03 0.  0.
          5    1    3    3  502    0  0.62233547507E+02  0.33117916878E+02 -0.38005708995E+02  0.80197987318E+02  0.41800000000E+01 0.  1.
         -5    1    3    3    0  502 -0.16072156101E+02 -0.35516005896E+02 -0.12174342405E+03  0.12790087793E+03  0.41800000000E+01 0.  1.
        -11    1    1    2    0    0  0.20736921972E+02  0.14962085758E+02 -0.51726602526E+02  0.57702039409E+02  0.00000000000E+00 0. -1.
         11    1    1    2    0    0 -0.66898313378E+02 -0.12563996741E+02 -0.63341785062E+02  0.92980751136E+02  0.00000000000E+00 0.  1.
</event>
<event>
 7    1  0.2810263E-009  0.9905357E+02  0.7561462E-02  0.1282299E+00
         -3   -1    0    0    0  501 -0.00000000000E+00  0.00000000000E+00  0.44479301415E+03  0.44479301415E+03  0.00000000000E+00 0.  1.
          3   -1    0    0  501    0  0.00000000000E+00 -0.00000000000E+00 -0.36197652808E+02  0.36197652808E+02  0.00000000000E+00 0. -1.
         25    2    1    2    0    0  0.70275549682E+01 -0.39504174188E+02  0.22540216494E+03  0.26088895580E+03  0.12508774917E+03 0.  0.
          5    1    3    3  502    0  0.40383083638E+02 -0.99425776174E+00  0.19948342419E+03  0.20357527089E+03  0.41800000000E+01 0. -1.
         -5    1    3    3    0  502 -0.33355528670E+02 -0.38509916426E+02  0.25918740757E+02  0.57313684914E+02  0.41800000000E+01 0. -1.
        -11    1    1    2    0    0 -0.92111023705E+01 -0.32785680485E+02  0.11771309468E+03  0.12254027057E+03  0.00000000000E+00 0.  1.
         11    1    1    2    0    0  0.21835474023E+01  0.72289854673E+02  0.65480101711E+02  0.97561440580E+02  0.00000000000E+00 0. -1.
</event>
<event>
 7    1  0.2810263E-009  0.1368340E+03  0.7561462E-02  0.1217654E+00
          1   -1    0    0  501    0  0.00000000000E+00  0.00000000000E+00  0.10436348625E+03  0.10436348625E+03  0.00000000000E+00 0. -1.
         -1   -1    0    0    0  501 -0.00000000000E+00 -0.00000000000E+00 -0.26841532202E+03  0.26841532202E+03  0.00000000000E+00 0.  1.
         25    2    1    2    0    0 -0.79691053211E+02  0.83116819225E+02 -0.29312819164E+02  0.17252844439E+03  0.12509097951E+03 0.  0.
          5    1    3    3  502    0 -0.75274127889E+02  0.44854760710E+02 -0.73008478168E+02  0.11413086424E+03  0.41800000000E+01 0. -1.
         -5    1    3    3    0  502 -0.44169253225E+01  0.38262058515E+02  0.43695659004E+02  0.58397580146E+02  0.41800000000E+01 0. -1.
        -11    1    1    2    0    0  0.73354168642E+02 -0.10258902243E+02 -0.56534119139E+02  0.93178247243E+02  0.00000000000E+00 0.  1.
         11    1    1    2    0    0  0.63368845693E+01 -0.72857916981E+02 -0.78204897470E+02  0.10707211664E+03  0.00000000000E+00 0. -1.
</event>
<event>
 7    1  0.2810263E-009  0.8667966E+02  0.7561462E-02  0.1311098E+00
          2   -1    0    0  501    0  0.00000000000E+00  0.00000000000E+00  0.12927585355E+04  0.12927585355E+04  0.00000000000E+00 0. -1.
         -2   -1    0    0    0  501 -0.00000000000E+00 -0.00000000000E+00 -0.16377750780E+02  0.16377750780E+02  0.00000000000E+00 0.  1.
         25    2    1    2    0    0 -0.45429225811E+01  0.36772338907E+02  0.10925129113E+04  0.11002751129E+04  0.12509204462E+03 0.  0.
          5    1    3    3  502    0  0.24630155170E+02  0.47291325009E+02  0.19457189505E+03  0.20178902029E+03  0.41800000000E+01 0.  1.
         -5    1    3    3    0  502 -0.29173077751E+02 -0.10518986102E+02  0.89794101621E+03  0.89848609257E+03  0.41800000000E+01 0.  1.
        -11    1    1    2    0    0  0.26692404792E+02  0.16160066464E+02  0.25108932231E+02  0.40051101102E+02  0.00000000000E+00 0.  1.
         11    1    1    2    0    0 -0.22149482211E+02 -0.52932405371E+02  0.15875894125E+03  0.16881007235E+03  0.00000000000E+00 0. -1.
</event>
<event>
 7    1  0.2810263E-009  0.1118839E+03  0.7561462E-02  0.1257120E+00
         -1   -1    0    0    0  501 -0.00000000000E+00  0.00000000000E+00  0.11544774272E+02  0.11544774272E+02  0.00000000000E+00 0.  1.
          1   -1    0    0  501    0  0.00000000000E+00 -0.00000000000E+00 -0.15066573537E+04  0.15066573537E+04  0.00000000000E+00 0. -1.
         25    2    1    2    0    0 -0.21593814874E+02 -0.33866900286E+02 -0.11915807013E+04  0.11988014061E+04  0.12508790426E+03 0.  0.
          5    1    3    3  502    0 -0.20967940290E+00 -0.76583934411E+02 -0.90422735933E+03  0.90747437029E+03  0.41800000000E+01 0.  1.
         -5    1    3    3    0  502 -0.21384135471E+02  0.42717034124E+02 -0.28735334197E+03  0.29132703581E+03  0.41800000000E+01 0.  1.
        -11    1    1    2    0    0  0.38030443605E+02  0.58337022134E+02 -0.20138897815E+03  0.21308928484E+03  0.00000000000E+00 0.  1.
         11    1    1    2    0    0 -0.16436628731E+02 -0.24470121848E+02 -0.10214289995E+03  0.10631143700E+03  0.00000000000E+00 0. -1.
</event>
<event>
 7    1  0.2810263E-009  0.1122830E+03  0.7561462E-02  0.1256400E+00
          1   -1    0    0  501    0  0.00000000000E+00  0.00000000000E+00  0.58258539880E+02  0.58258539880E+02  0.00000000000E+00 0. -1.
         -1   -1    0    0    0  501 -0.00000000000E+00 -0.00000000000E+00 -0.28481619238E+03  0.28481619238E+03  0.00000000000E+00 0.  1.
         25    2    1    2    0    0 -0.62762500983E+02 -0.13406982522E+02 -0.92984999977E+02  0.16856005149E+03  0.12508957602E+03 0.  0.
          5    1    3    3  502    0 -0.63356404077E+02 -0.47451054414E+02 -0.11432678042E+02  0.80086297390E+02  0.41800000000E+01 0.  1.
         -5    1    3    3    0  502  0.59390309379E+00  0.34044071892E+02 -0.81552321936E+02  0.88473754102E+02  0.41800000000E+01 0.  1.
        -11    1    1    2    0    0  0.86115309671E+02  0.53117030827E+01 -0.91827945023E+02  0.12600171521E+03  0.00000000000E+00 0. -1.
         11    1    1    2    0    0 -0.23352808688E+02  0.80952794393E+01 -0.41744707503E+02  0.48512965559E+02  0.00000000000E+00 0.  1.
</event>
<event>
 7    1  0.2810263E-009  0.1544759E+03  0.7561462E-02  0.1195079E+00
         -2   -1    0    0    0  501 -0.00000000000E+00  0.00000000000E+00  0.46847295328E+03  0.46847295328E+03  0.00000000000E+00 0.  1.
          2   -1    0    0  501    0  0.00000000000E+00 -0.00000000000E+00 -0.92109602149E+02  0.92109602149E+02  0.00000000000E+00 0. -1.
         25    2    1    2    0    0  0.10910644485E+03  0.71119845989E+02  0.35700103555E+03  0.40007420491E+03  0.12508949294E+03 0.  0.
          5    1    3    3  502    0  0.40108980573E+02  0.91911900269E+02  0.26338360545E+03  0.28185975902E+03  0.41800000000E+01 0.  1.
         -5    1    3    3    0  502  0.68997464276E+02 -0.20792054280E+02  0.93617430103E+02  0.11821444589E+03  0.41800000000E+01 0.  1.
        -11    1    1    2    0    0 -0.25143644627E+02 -0.39205514759E+02  0.47357795578E+02  0.66423159023E+02  0.00000000000E+00 0.  1.
         11    1    1    2    0    0 -0.83962800222E+02 -0.31914331229E+02 -0.27995479999E+02  0.94085191499E+02  0.00000000000E+00 0. -1.
</event>
<event>
 7    1  0.2810263E-009  0.9855849E+02  0.7561462E-02  0.1283357E+00
         -1   -1    0    0    0  501 -0.00000000000E+00  0.00000000000E+00  0.20662008623E+03  0.20662008623E+03  0.00000000000E+00 0.  1.
          1   -1    0    0  501    0  0.00000000000E+00 -0.00000000000E+00 -0.56828759660E+02  0.56828759660E+02  0.00000000000E+00 0. -1.
         25    2    1    2    0    0  0.48036595953E+01 -0.21678675980E+01  0.70830638538E+02  0.14386406516E+03  0.12510841336E+03 0.  0.
          5    1    3    3  502    0  0.42376773366E+02 -0.42138345006E+02  0.81437460921E+01  0.60458448882E+02  0.41800000000E+01 0. -1.
         -5    1    3    3    0  502 -0.37573113770E+02  0.39970477408E+02  0.62686892446E+02  0.83405616281E+02  0.41800000000E+01 0. -1.
        -11    1    1    2    0    0 -0.41749556550E+02 -0.10649921993E+02  0.17007726450E+02  0.46321799076E+02  0.00000000000E+00 0. -1.
         11    1    1    2    0    0  0.36945896955E+02  0.12817789591E+02  0.61952961587E+02  0.73262981657E+02  0.00000000000E+00 0.  1.
</event>
<event>
 7    1  0.2810263E-009  0.8469869E+02  0.7561462E-02  0.1316222E+00
         -2   -1    0    0    0  501 -0.00000000000E+00  0.00000000000E+00  0.10153126663E+03  0.10153126663E+03  0.00000000000E+00 0.  1.
          2   -1    0    0  501    0  0.00000000000E+00 -0.00000000000E+00 -0.12468074614E+03  0.12468074614E+03  0.00000000000E+00 0. -1.
         25    2    1    2    0    0 -0.26645514596E+02  0.34712815983E+01 -0.26213798597E+02  0.13059460542E+03  0.12508299038E+03 0.  0.
          5    1    3    3  502    0 -0.14763064759E+02 -0.32581501334E+02  0.40206919726E+02  0.53977505537E+02  0.41800000000E+01 0. -1.
         -5    1    3    3    0  502 -0.11882449837E+02  0.36052782932E+02 -0.66420718323E+02  0.76617099878E+02  0.41800000000E+01 0. -1.
        -11    1    1    2    0    0 -0.18270328700E+02  0.32744206291E+02 -0.29223454032E+01  0.37610212165E+02  0.00000000000E+00 0. -1.
         11    1    1    2    0    0  0.44915843296E+02 -0.36215487890E+02  0.59866644898E+01  0.58007195190E+02  0.00000000000E+00 0.  1.
</event>
<event>
 7    1  0.2810263E-009  0.1049333E+03  0.7561462E-02  0.1270251E+00
          2   -1    0    0  501    0  0.00000000000E+00  0.00000000000E+00  0.28998873987E+03  0.28998873987E+03  0.00000000000E+00 0. -1.
         -2   -1    0    0    0  501 -0.00000000000E+00 -0.00000000000E+00 -0.98567141349E+02  0.98567141349E+02  0.00000000000E+00 0.  1.
         25    2    1    2    0    0 -0.10438799869E+02  0.65955330774E+02  0.22384760026E+03  0.26498039228E+03  0.12509111059E+03 0.  0.
          5    1    3    3  502    0 -0.31491110613E+02 -0.16291034723E+02  0.14399462413E+03  0.14835434620E+03  0.41800000000E+01 0.  1.
         -5    1    3    3    0  502  0.21052310745E+02  0.82246365497E+02  0.79852976132E+02  0.11662604607E+03  0.41800000000E+01 0.  1.
        -11    1    1    2    0    0  0.24672388795E+02 -0.32751881734E+01  0.26515110269E+02  0.36366257698E+02  0.00000000000E+00 0. -1.
         11    1    1    2    0    0 -0.14233588926E+02 -0.62680142601E+02 -0.58941112006E+02  0.87209231247E+02  0.00000000000E+00 0.  1.
</event>
<event>
 7    1  0.2810263E-009  0.9292783E+02  0.7561462E-02  0.1295913E+00
          1   -1    0    0  501    0  0.00000000000E+00  0.00000000000E+00  0.20353821537E+02  0.20353821537E+02  0.00000000000E+00 0. -1.
         -1   -1    0    0    0  501 -0.00000000000E+00 -0.00000000000E+00 -0.68574766172E+03  0.68574766172E+03  0.00000000000E+00 0.  1.
         25    2    1    2    0    0 -0.40561660002E+02 -0.22613192924E+01 -0.30227145424E+03  0.32964624486E+03  0.12509297691E+03 0.  0.
          5    1    3    3  502    0  0.25230578297E+02  0.11093425637E+02 -0.22697673002E+03  0.22868221300E+03  0.41800000000E+01 0.  1.
         -5    1    3    3    0  502 -0.65792238299E+02 -0.13354744930E+02 -0.75294724221E+02  0.10096403185E+03  0.41800000000E+01 0.  1.
        -11    1    1    2    0    0  0.53160398429E+02 -0.26438185460E+02 -0.30182791219E+03  0.30761192140E+03  0.00000000000E+00 0.  1.
         11    1    1    2    0    0 -0.12598738427E+02  0.28699504753E+02 -0.61294473754E+02  0.68843317001E+02  0.00000000000E+00 0. -1.
</event>
<event>
 7    1  0.2810263E-009  0.8507963E+02  0.7561462E-02  0.1315224E+00
          2   -1    0    0  501    0  0.00000000000E+00  0.00000000000E+00  0.48813421717E+02  0.48813421717E+02  0.00000000000E+00 0. -1.
         -2   -1    0    0    0  501 -0.00000000000E+00 -0.00000000000E+00 -0.31864545601E+03  0.31864545601E+03  0.00000000000E+00 0.  1.
         25    2    1    2    0    0  0.15247686887E+02  0.37291702576E+01 -0.23881150480E+03  0.27004841678E+03  0.12509521939E+03 0.  0.
          5    1    3    3  502    0 -0.31797837847E+02  0.19533686531E+01 -0.62504831640E+01  0.32733149568E+02  0.41800000000E+01 0. -1.
         -5    1    3    3    0  502  0.47045524733E+02  0.17758016044E+01 -0.23256102163E+03  0.23731526721E+03  0.41800000000E+01 0. -1.
        -11    1    1    2    0    0 -0.12997115735E+02  0.42519093411E+02 -0.62506619653E+01  0.44898430896E+02  0.00000000000E+00 0. -1.
         11    1    1    2    0    0 -0.22505711516E+01 -0.46248263669E+02 -0.24769867534E+02  0.52512030055E+02  0.00000000000E+00 0.  1.
</event>
<event>
 7    1  0.2810263E-009  0.9905891E+02  0.7561462E-02  0.1282287E+00
         -1   -1    0    0    0  501 -0.00000000000E+00  0.00000000000E+00  0.10999218210E+03  0.10999218210E+03  0.00000000000E+00 0.  1.
          1   -1    0    0  501    0  0.00000000000E+00 -0.00000000000E+00 -0.12192948069E+03  0.12192948069E+03  0.00000000000E+00 0. -1.
         25    2    1    2    0    0  0.27073651833E+02  0.17382021182E+01 -0.39791900179E+02  0.13404344601E+03  0.12509294996E+03 0.  0.
          5    1    3    3  502    0  0.69201692878E+02  0.13504503845E+02 -0.52838471405E+02  0.88207836283E+02  0.41800000000E+01 0.  1.
         -5    1    3    3    0  502 -0.42128041046E+02 -0.11766301727E+02  0.13046571226E+02  0.45835609731E+02  0.41800000000E+01 0.  1.
        -11    1    1    2    0    0 -0.41063076322E+02  0.28666035139E+02 -0.58014165172E+01  0.50414028218E+02  0.00000000000E+00 0. -1.
         11    1    1    2    0    0  0.13989424489E+02 -0.30404237257E+02  0.33656018108E+02  0.47464188559E+02  0.00000000000E+00 0.  1.
</event>
<event>
 7    1  0.2810263E-009  0.1128253E+03  0.7561462E-02  0.1255425E+00
         -1   -1    0    0    0  501 -0.00000000000E+00  0.00000000000E+00  0.36149088633E+02  0.36149088633E+02  0.00000000000E+00 0.  1.
          1   -1    0    0  501    0  0.00000000000E+00 -0.00000000000E+00 -0.37897422350E+03  0.37897422350E+03  0.00000000000E+00 0. -1.
         25    2    1    2    0    0  0.30339990019E+02  0.26588312875E+02 -0.15593340037E+03  0.20393765862E+03  0.12509152599E+03 0.  0.
          5    1    3    3  502    0  0.91804650511E+01 -0.48865136030E+02 -0.82775872671E+02  0.96650918021E+02  0.41800000000E+01 0.  1.
         -5    1    3    3    0  502  0.21159524968E+02  0.75453448905E+02 -0.73157527703E+02  0.10728674060E+03  0.41800000000E+01 0.  1.
        -11    1    1    2    0    0 -0.51468042999E+02 -0.45670794639E+02 -0.11725743403E+03  0.13595619430E+03  0.00000000000E+00 0.  1.
         11    1    1    2    0    0  0.21128052980E+02  0.19082481763E+02 -0.69634300465E+02  0.75229459218E+02  0.00000000000E+00 0. -1.
</event>
<event>
 7    1  0.2810263E-009  0.1302270E+03  0.7561462E-02  0.1227119E+00
          1   -1    0    0  501    0  0.00000000000E+00  0.00000000000E+00  0.12907956998E+03  0.12907956998E+03  0.00000000000E+00 0. -1.
         -1   -1    0    0    0  501 -0.00000000000E+00 -0.00000000000E+00 -0.13373456058E+03  0.13373456058E+03  0.00000000000E+00 0.  1.
         25    2    1    2    0    0 -0.64646678116E+02  0.37253107132E+02  0.12574756297E+02  0.14619306156E+03  0.12508916728E+03 0.  0.
          5    1    3    3  502    0  0.17295869593E+02  0.57984844526E+02  0.12015359214E+00  0.60653739675E+02  0.41800000000E+01 0. -1.
         -5    1    3    3    0  502 -0.81942547708E+02 -0.20731737394E+02  0.12454602705E+02  0.85539321887E+02  0.41800000000E+01 0. -1.
        -11    1    1    2    0    0  0.45926392594E+01  0.26904533560E+02 -0.67792775808E+01  0.28123030882E+02  0.00000000000E+00 0. -1.
         11    1    1    2    0    0  0.60054038856E+02 -0.64157640692E+02 -0.10450469319E+02  0.88498038120E+02  0.00000000000E+00 0.  1.
</event>
<event>
 7    1  0.2810263E-009  0.8922085E+02  0.7561462E-02  0.1304750E+00
          1   -1    0    0  501    0  0.00000000000E+00  0.00000000000E+00  0.60773191346E+03  0.60773191346E+03  0.00000000000E+00 0. -1.
         -1   -1    0    0    0  501 -0.00000000000E+00 -0.00000000000E+00 -0.21347483494E+02  0.21347483494E+02  0.00000000000E+00 0.  1.
         25    2    1    2    0    0 -0.22762715598E+02  0.27668827507E+02  0.30484421968E+03  0.33145312629E+03  0.12508985338E+03 0.  0.
          5    1    3    3  502    0  0.33690806238E+02  0.57069108916E+01  0.19181537918E+02  0.39408667242E+02  0.41800000000E+01 0.  1.
         -5    1    3    3    0  502 -0.56453521836E+02  0.21961916615E+02  0.28566268176E+03  0.29204445905E+03  0.41800000000E+01 0.  1.
        -11    1    1    2    0    0 -0.26872064182E+02 -0.86151610928E+00  0.32028833019E+02  0.41817414889E+02  0.00000000000E+00 0.  1.
         11    1    1    2    0    0  0.49634779780E+02 -0.26807311397E+02  0.24951137727E+03  0.25580885578E+03  0.00000000000E+00 0. -1.
</event>
<event>
 7    1  0.2810263E-009  0.1057268E+03  0.7561462E-02  0.1268694E+00
         -3   -1    0    0    0  501 -0.00000000000E+00  0.00000000000E+00  0.82773166419E+02  0.82773166419E+02  0.00000000000E+00 0.  1.
          3   -1    0    0  501    0  0.00000000000E+00 -0.00000000000E+00 -0.18817350154E+03  0.18817350154E+03  0.00000000000E+00 0. -1.
         25    2    1    2    0    0  0.33917457700E+02 -0.98897846329E+01 -0.47354875097E+01  0.13007741152E+03  0.12509798707E+03 0.  0.
          5    1    3    3  502    0  0.17595592313E+02  0.48841894238E+02  0.29685192637E+02  0.59948465898E+02  0.41800000000E+01 0. -1.
         -5    1    3    3    0  502  0.16321865387E+02 -0.58731678871E+02 -0.34420680146E+02  0.70128945625E+02  0.41800000000E+01 0. -1.
        -11    1    1    2    0    0 -0.41749494464E+02  0.45533455153E+02 -0.68271398560E+02  0.92072252539E+02  0.00000000000E+00 0. -1.
         11    1    1    2    0    0  0.78320367643E+01 -0.35643670520E+02 -0.32393449056E+02  0.48797003902E+02  0.00000000000E+00 0.  1.
</event>
<event>
 7    1  0.2810263E-009  0.1493550E+03  0.7561462E-02  0.1201268E+00
         -2   -1    0    0    0  501 -0.00000000000E+00  0.00000000000E+00  0.44358796375E+02  0.44358796375E+02  0.00000000000E+00 0.  1.
          2   -1    0    0  501    0  0.00000000000E+00 -0.00000000000E+00 -0.52489842207E+03  0.52489842207E+03  0.00000000000E+00 0. -1.
         25    2    1    2    0    0  0.10695512525E+03 -0.49168449495E+01 -0.25383067202E+03  0.30255690172E+03  0.12508834694E+03 0.  0.
          5    1    3    3  502    0  0.43682563679E+02 -0.61402433632E+02 -0.85682186805E+02  0.11418114889E+03  0.41800000000E+01 0.  1.
         -5    1    3    3    0  502  0.63272561571E+02  0.56485588683E+02 -0.16814848521E+03  0.18837575284E+03  0.41800000000E+01 0.  1.
        -11    1    1    2    0    0 -0.82049504558E+01  0.34317061479E+02 -0.39147868279E+02  0.52702348252E+02  0.00000000000E+00 0.  1.
         11    1    1    2    0    0 -0.98750174794E+02 -0.29400216529E+02 -0.18756108540E+03  0.21399796847E+03  0.00000000000E+00 0. -1.
</event>
<event>
 7    1  0.2810263E-009  0.1125985E+03  0.7561462E-02  0.1255832E+00
         -1   -1    0    0    0  501 -0.00000000000E+00  0.00000000000E+00  0.10688986105E+03  0.10688986105E+03  0.00000000000E+00 0.  1.
          1   -1    0    0  501    0  0.00000000000E+00 -0.00000000000E+00 -0.15459332162E+03  0.15459332162E+03  0.00000000000E+00 0. -1.
         25    2    1    2    0    0 -0.36684807205E+02  0.60132761462E+02 -0.11725586188E+02  0.14403755381E+03  0.12509038114E+03 0.  0.
          5    1    3    3  502    0 -0.51356588830E+02  0.91930826661E+02  0.39101808092E+01  0.10545870292E+03  0.41800000000E+01 0.  1.
         -5    1    3    3    0  502  0.14671781625E+02 -0.31798065199E+02 -0.15635766997E+02  0.38578850891E+02  0.41800000000E+01 0.  1.
        -11    1    1    2    0    0  0.33433496165E+02 -0.10846196404E+02 -0.54367273673E+02  0.64739779802E+02  0.00000000000E+00 0. -1.
         11    1    1    2    0    0  0.32513110402E+01 -0.49286565058E+02  0.18389399294E+02  0.52705849060E+02  0.00000000000E+00 0.  1.
</event>
<event>
 7    1  0.2810263E-009  0.1216304E+03  0.7561462E-02  0.1240431E+00
         -2   -1    0    0    0  501 -0.00000000000E+00  0.00000000000E+00  0.13962638008E+03  0.13962638008E+03  0.00000000000E+00 0.  1.
          2   -1    0    0  501    0  0.00000000000E+00 -0.00000000000E+00 -0.12129984278E+03  0.12129984278E+03  0.00000000000E+00 0. -1.
         25    2    1    2    0    0  0.40917440222E+02  0.45650578357E+02  0.43233425223E+02  0.14585519423E+03  0.12508555636E+03 0.  0.
          5    1    3    3  502    0  0.21796038481E+02 -0.42155218323E+02  0.25948760372E+02  0.54248873630E+02  0.41800000000E+01 0. -1.
         -5    1    3    3    0  502  0.19121401741E+02  0.87805796680E+02  0.17284664851E+02  0.91606320602E+02  0.41800000000E+01 0. -1.
        -11    1    1    2    0    0  0.12315584710E+02 -0.50712345412E+02  0.72285884493E+01  0.52684609659E+02  0.00000000000E+00 0.  1.
         11    1    1    2    0    0 -0.53233024932E+02  0.50617670550E+01 -0.32135476373E+02  0.62386418961E+02  0.00000000000E+00 0. -1.
</event>
<event>
 7    1  0.2810263E-009  0.7020328E+02  0.7561462E-02  0.1359403E+00
         -4   -1    0    0    0  501 -0.00000000000E+00  0.00000000000E+00  0.26205782469E+02  0.26205782469E+02  0.00000000000E+00 0.  1.
          4   -1    0    0  501    0  0.00000000000E+00 -0.00000000000E+00 -0.82028716820E+03  0.82028716820E+03  0.00000000000E+00 0. -1.
         25    2    1    2    0    0  0.21413472566E+02 -0.29956453722E+02 -0.68992039940E+03  0.70213489113E+03  0.12508925575E+03 0.  0.
          5    1    3    3  502    0  0.27758445774E+02  0.28782526195E+02 -0.53127199949E+03  0.53279111758E+03  0.41800000000E+01 0.  1.
         -5    1    3    3    0  502 -0.63449732079E+01 -0.58738979917E+02 -0.15864839991E+03  0.16934377356E+03  0.41800000000E+01 0.  1.
        -11    1    1    2    0    0 -0.35523344650E+01  0.20418053933E+02  0.13652320029E+02  0.24817369899E+02  0.00000000000E+00 0.  1.
         11    1    1    2    0    0 -0.17861138101E+02  0.95383997890E+01 -0.11781330635E+03  0.11954068964E+03  0.00000000000E+00 0. -1.
</event>
<event>
 7    1  0.2810263E-009  0.6951205E+02  0.7561462E-02  0.1361760E+00
          2   -1    0    0  501    0  0.00000000000E+00  0.00000000000E+00  0.26937751610E+03  0.26937751610E+03  0.00000000000E+00 0. -1.
         -2   -1    0    0    0  501 -0.00000000000E+00 -0.00000000000E+00 -0.50143489452E+02  0.50143489452E+02  0.00000000000E+00 0.  1.
         25    2    1    2    0    0 -0.11839238406E+01 -0.20490370562E+02  0.17299346320E+03  0.21446907920E+03  0.12509592584E+03 0.  0.
          5    1    3    3  502    0  0.11281353572E+02 -0.27817485287E+02  0.18962865329E+03  0.19203536126E+03  0.41800000000E+01 0.  1.
         -5    1    3    3    0  502 -0.12465277413E+02  0.73271147242E+01 -0.16635190090E+02  0.22433717937E+02  0.41800000000E+01 0.  1.
        -11    1    1    2    0    0  0.46027240040E+02  0.15393187529E+02  0.30158776946E+02  0.57140256168E+02  0.00000000000E+00 0. -1.
         11    1    1    2    0    0 -0.44843316200E+02  0.50971830332E+01  0.16081786500E+02  0.47911670183E+02  0.00000000000E+00 0.  1.
</event>
<event>
 7    1  0.2810263E-009  0.1076235E+03  0.7561462E-02  0.1265035E+00
         -2   -1    0    0    0  501 -0.00000000000E+00  0.00000000000E+00  0.82932730013E+01  0.82932730013E+01  0.00000000000E+00 0.  1.
          2   -1    0    0  501    0  0.00000000000E+00 -0.00000000000E+00 -0.21158034256E+04  0.21158034256E+04  0.00000000000E+00 0. -1.
         25    2    1    2    0    0  0.26946221612E+02 -0.36330885465E+02 -0.16532980141E+04  0.16586403049E+04  0.12508919058E+03 0.  0.
          5    1    3    3  502    0 -0.44377611655E+02 -0.83600288544E+01 -0.96775066882E+03  0.96881272282E+03  0.41800000000E+01 0. -1.
         -5    1    3    3    0  502  0.71323833268E+02 -0.27970856611E+02 -0.68554734523E+03  0.68982758206E+03  0.41800000000E+01 0. -1.
        -11    1    1    2    0    0 -0.43780234279E+02  0.53496204644E+02 -0.40294749989E+03  0.40883400115E+03  0.00000000000E+00 0. -1.
         11    1    1    2    0    0  0.16834012666E+02 -0.17165319179E+02 -0.51264638682E+02  0.56622392603E+02  0.00000000000E+00 0.  1.
</event>
<event>
 7    1  0.2810263E-009  0.1767617E+03  0.7561462E-02  0.1170974E+00
          2   -1    0    0  501    0  0.00000000000E+00  0.00000000000E+00  0.46673776837E+02  0.46673776837E+02  0.00000000000E+00 0.  1.
         -2   -1    0    0    0  501 -0.00000000000E+00 -0.00000000000E+00 -0.74973924284E+03  0.74973924284E+03  0.00000000000E+00 0. -1.
         25    2    1    2    0    0 -0.14936222763E+03 -0.28801582487E+02 -0.37580416933E+03  0.42428137733E+03  0.12508919727E+03 0.  0.
          5    1    3    3  502    0 -0.16759261103E+03 -0.41841262673E+02 -0.34611379519E+03  0.38684648913E+03  0.41800000000E+01 0.  1.
         -5    1    3    3    0  502  0.18230383400E+02  0.13039680186E+02 -0.29690374142E+02  0.37434888205E+02  0.41800000000E+01 0.  1.
        -11    1    1    2    0    0  0.36101757013E+02  0.26268118265E+02 -0.18479761478E+03  0.19011446375E+03  0.00000000000E+00 0. -1.
         11    1    1    2    0    0  0.11326047062E+03  0.25334642217E+01 -0.14246368189E+03  0.18201717860E+03  0.00000000000E+00 0.  1.
</event>
<event>
 7    1  0.2810263E-009  0.9606620E+02  0.7561462E-02  0.1288793E+00
         -1   -1    0    0    0  501 -0.00000000000E+00  0.00000000000E+00  0.14447052040E+03  0.14447052040E+03  0.00000000000E+00 0.  1.
          1   -1    0    0  501    0  0.00000000000E+00 -0.00000000000E+00 -0.13341395630E+03  0.13341395630E+03  0.00000000000E+00 0. -1.
         25    2    1    2    0    0 -0.35286704384E+02 -0.63506152042E+02 -0.39937167900E+02  0.15008261698E+03  0.12510648139E+03 0.  0.
          5    1    3    3  502    0 -0.12790737471E+02 -0.63060506163E+02 -0.80723156840E+02  0.10331471750E+03  0.41800000000E+01 0.  1.
         -5    1    3    3    0  502 -0.22495966913E+02 -0.44564587920E+00  0.40785988940E+02  0.46767899476E+02  0.41800000000E+01 0.  1.
        -11    1    1    2    0    0  0.58400506573E+02  0.35068772489E+02  0.59197875742E+02  0.90248692313E+02  0.00000000000E+00 0.  1.
         11    1    1    2    0    0 -0.23113802189E+02  0.28437379553E+02 -0.82041437368E+01  0.37553167402E+02  0.00000000000E+00 0. -1.
</event>
<event>
 7    1  0.2810263E-009  0.1359322E+03  0.7561462E-02  0.1218910E+00
          1   -1    0    0  501    0  0.00000000000E+00  0.00000000000E+00  0.63793794118E+03  0.63793794118E+03  0.00000000000E+00 0. -1.
         -1   -1    0    0    0  501 -0.00000000000E+00 -0.00000000000E+00 -0.33949569545E+02  0.33949569545E+02  0.00000000000E+00 0.  1.
         25    2    1    2    0    0  0.25100570133E+01 -0.97915227509E+02  0.40363644483E+03  0.43377416815E+03  0.12507580579E+03 0.  0.
          5    1    3    3  502    0  0.56004652503E+02 -0.86817662687E+02  0.28227194367E+03  0.30061395550E+03  0.41800000000E+01 0. -1.
         -5    1    3    3    0  502 -0.53494595489E+02 -0.11097564822E+02  0.12136450116E+03  0.13316021266E+03  0.41800000000E+01 0. -1.
        -11    1    1    2    0    0 -0.18213518407E+02  0.42537676207E+01  0.27898229352E+01  0.18910576505E+02  0.00000000000E+00 0.  1.
         11    1    1    2    0    0  0.15703461393E+02  0.93661459889E+02  0.19756210386E+03  0.21920276606E+03  0.00000000000E+00 0. -1.
</event>
<event>
 7    1  0.3635507E-009  0.1022430E+03  0.7561462E-02  0.1275649E+00
          2   -1    0    0  501    0  0.00000000000E+00  0.00000000000E+00  0.56200391813E+03  0.56200391813E+03  0.00000000000E+00 0.  1.
         -2   -1    0    0    0  501 -0.00000000000E+00 -0.00000000000E+00 -0.32810932066E+02  0.32810932066E+02  0.00000000000E+00 0. -1.
         25    2    1    2    0    0 -0.27280678057E+01 -0.74077622616E+02  0.21693317931E+03  0.26115613958E+03  0.12509032109E+03 0.  0.
          5    1    3    3  502    0 -0.17764818219E+02  0.23717972489E+02  0.11581926357E+03  0.11962318003E+03  0.41800000000E+01 0.  1.
         -5    1    3    3    0  502  0.15036750414E+02 -0.97795595106E+02  0.10111391574E+03  0.14153295956E+03  0.41800000000E+01 0.  1.
        -11    1    1    2    0    0  0.75233975310E+01  0.63101864062E+02  0.31502107539E+03  0.32136696267E+03  0.00000000000E+00 0.  1.
         11    1    1    2    0    0 -0.47953297253E+01  0.10975758554E+02 -0.27612686317E+01  0.12291747942E+02  0.00000000000E+00 0. -1.
</event>
<event>
 7    1  0.2810263E-009  0.1080325E+03  0.7561462E-02  0.1264257E+00
         -2   -1    0    0    0  501 -0.00000000000E+00  0.00000000000E+00  0.66526952211E+03  0.66526952211E+03  0.00000000000E+00 0.  1.
          2   -1    0    0  501    0  0.00000000000E+00 -0.00000000000E+00 -0.26701406969E+02  0.26701406969E+02  0.00000000000E+00 0. -1.
         25    2    1    2    0    0 -0.45272795336E+02 -0.12000057021E+02  0.18930287685E+03  0.23168055179E+03  0.12508665607E+03 0.  0.
          5    1    3    3  502    0 -0.78748735883E+02 -0.21714189611E+02  0.17610803613E+03  0.19417616286E+03  0.41800000000E+01 0.  1.
         -5    1    3    3    0  502  0.33475940546E+02  0.97141325890E+01  0.13194840723E+02  0.37504388931E+02  0.41800000000E+01 0.  1.
        -11    1    1    2    0    0 -0.24292629371E+02  0.16637916841E+02  0.16451186278E+03  0.16712601567E+03  0.00000000000E+00 0.  1.
         11    1    1    2    0    0  0.69565424708E+02 -0.46378598195E+01  0.28475337551E+03  0.29316436162E+03  0.00000000000E+00 0. -1.
</event>
<event>
 7    1  0.2810263E-009  0.2018049E+03  0.7561462E-02  0.1148225E+00
         -2   -1    0    0    0  501 -0.00000000000E+00  0.00000000000E+00  0.74126032816E+02  0.74126032816E+02  0.00000000000E+00 0.  1.
          2   -1    0    0  501    0  0.00000000000E+00 -0.00000000000E+00 -0.78383794377E+03  0.78383794377E+03  0.00000000000E+00 0. -1.
         25    2    1    2    0    0 -0.60090791941E+02 -0.16413363683E+03 -0.58784463940E+03  0.62590726235E+03  0.12509127460E+03 0.  0.
          5    1    3    3  502    0  0.16437501603E+02 -0.12984544896E+03 -0.36304097421E+03  0.38593555605E+03  0.41800000000E+01 0.  1.
         -5    1    3    3    0  502 -0.76528293544E+02 -0.34288187872E+02 -0.22480366519E+03  0.23997170630E+03  0.41800000000E+01 0.  1.
        -11    1    1    2    0    0  0.41611985882E+02  0.25425308190E+02 -0.37019187581E+01  0.48905090411E+02  0.00000000000E+00 0. -1.
         11    1    1    2    0    0  0.18478806059E+02  0.13870832864E+03 -0.11816535279E+03  0.18315162382E+03  0.00000000000E+00 0.  1.
</event>
<event>
 7    1  0.2810263E-009  0.9660874E+02  0.7561462E-02  0.1287593E+00
          1   -1    0    0  501    0  0.00000000000E+00  0.00000000000E+00  0.13943420328E+03  0.13943420328E+03  0.00000000000E+00 0. -1.
         -1   -1    0    0    0  501 -0.00000000000E+00 -0.00000000000E+00 -0.12805305108E+03  0.12805305108E+03  0.00000000000E+00 0.  1.
         25    2    1    2    0    0  0.74318273655E+02  0.12385846051E+02  0.25792311079E+02  0.14828250322E+03  0.12508334209E+03 0.  0.
          5    1    3    3  502    0  0.29000428838E+02  0.18377824938E+01  0.74933447729E+02  0.80479166906E+02  0.41800000000E+01 0.  1.
         -5    1    3    3    0  502  0.45317844816E+02  0.10548063558E+02 -0.49141136650E+02  0.67803336311E+02  0.41800000000E+01 0.  1.
        -11    1    1    2    0    0  0.85386850928E+01 -0.31056289163E+02  0.35125014107E+01  0.32399689904E+02  0.00000000000E+00 0.  1.
         11    1    1    2    0    0 -0.82856958748E+02  0.18670443112E+02 -0.17923660294E+02  0.86805061242E+02  0.00000000000E+00 0. -1.
</event>
<event>
 7    1  0.2810263E-009  0.1267794E+03  0.7561462E-02  0.1232314E+00
          1   -1    0    0  501    0  0.00000000000E+00  0.00000000000E+00  0.91460224189E+03  0.91460224189E+03  0.00000000000E+00 0. -1.
         -1   -1    0    0    0  501 -0.00000000000E+00 -0.00000000000E+00 -0.17832982584E+02  0.17832982584E+02  0.00000000000E+00 0.  1.
         25    2    1    2    0    0  0.67419070018E+02 -0.37373690477E+01  0.53020314704E+03  0.54892982101E+03  0.12509705167E+03 0.  0.
          5    1    3    3  502    0 -0.33975038835E+02  0.17482479508E+02  0.13736859065E+03  0.14264481222E+03  0.41800000000E+01 0.  1.
         -5    1    3    3    0  502  0.10139410885E+03 -0.21219848555E+02  0.39283455639E+03  0.40628500880E+03  0.41800000000E+01 0.  1.
        -11    1    1    2    0    0 -0.86050880596E+02 -0.12221421406E+02  0.25963800065E+03  0.27379921215E+03  0.00000000000E+00 0.  1.
         11    1    1    2    0    0  0.18631810578E+02  0.15958790453E+02  0.10692811162E+03  0.10970619131E+03  0.00000000000E+00 0. -1.
</event>
<event>
 7    1  0.2810263E-009  0.2210113E+03  0.7561462E-02  0.1133131E+00
          1   -1    0    0  501    0  0.00000000000E+00  0.00000000000E+00  0.48689031716E+03  0.48689031716E+03  0.00000000000E+00 0. -1.
         -1   -1    0    0    0  501 -0.00000000000E+00 -0.00000000000E+00 -0.17397478458E+03  0.17397478458E+03  0.00000000000E+00 0.  1.
         25    2    1    2    0    0  0.16427966635E+03 -0.10787011373E+03 -0.49409169594E+02  0.23814429308E+03  0.12509063944E+03 0.  0.
          5    1    3    3  502    0  0.42390251665E+02  0.26670630726E+02 -0.12394740971E+01  0.50271907419E+02  0.41800000000E+01 0. -1.
         -5    1    3    3    0  502  0.12188941468E+03 -0.13454074445E+03 -0.48169695497E+02  0.18787238566E+03  0.41800000000E+01 0. -1.
        -11    1    1    2    0    0 -0.13742196596E+03  0.49753358065E+02  0.19594003866E+03  0.24444363791E+03  0.00000000000E+00 0.  1.
         11    1    1    2    0    0 -0.26857700385E+02  0.58116755660E+02  0.16638466351E+03  0.17827717075E+03  0.00000000000E+00 0. -1.
</event>
<event>
 7    1  0.2810263E-009  0.1508133E+03  0.7561462E-02  0.1199477E+00
         -1   -1    0    0    0  501 -0.00000000000E+00  0.00000000000E+00  0.49740948051E+02  0.49740948051E+02  0.00000000000E+00 0.  1.
          1   -1    0    0  501    0  0.00000000000E+00 -0.00000000000E+00 -0.59124967801E+03  0.59124967801E+03  0.00000000000E+00 0. -1.
         25    2    1    2    0    0 -0.51413851398E+02 -0.11081844664E+03 -0.19350684042E+03  0.26080039993E+03  0.12509132297E+03 0.  0.
          5    1    3    3  502    0 -0.22162169845E+02  0.15658701785E+02  0.34622732445E+00  0.27458131531E+02  0.41800000000E+01 0. -1.
         -5    1    3    3    0  502 -0.29251681554E+02 -0.12647714843E+03 -0.19385306775E+03  0.23334226840E+03  0.41800000000E+01 0. -1.
        -11    1    1    2    0    0  0.62681438360E+02  0.44139177203E+02 -0.24713070428E+03  0.25874855493E+03  0.00000000000E+00 0. -1.
         11    1    1    2    0    0 -0.11267586962E+02  0.66679269438E+02 -0.10087118526E+03  0.12144167120E+03  0.00000000000E+00 0.  1.
</event>
<event>
 7    1  0.2810263E-009  0.9902630E+02  0.7561462E-02  0.1282357E+00
         -1   -1    0    0    0  501 -0.00000000000E+00  0.00000000000E+00  0.22555205397E+02  0.22555205397E+02  0.00000000000E+00 0.  1.
          1   -1    0    0  501    0  0.00000000000E+00 -0.00000000000E+00 -0.74885631446E+03  0.74885631446E+03  0.00000000000E+00 0. -1.
         25    2    1    2    0    0  0.15461372442E+02 -0.14197007062E+02 -0.59539248139E+03  0.60875352400E+03  0.12509211419E+03 0.  0.
          5    1    3    3  502    0  0.57782222438E+02 -0.12598298806E+02 -0.50907127365E+03  0.51251198661E+03  0.41800000000E+01 0.  1.
         -5    1    3    3    0  502 -0.42320849996E+02 -0.15987082557E+01 -0.86321207742E+02  0.96241537387E+02  0.41800000000E+01 0.  1.
        -11    1    1    2    0    0 -0.55043432578E+02  0.32436576787E+01 -0.68268327880E+02  0.87754574677E+02  0.00000000000E+00 0. -1.
         11    1    1    2    0    0  0.39582060136E+02  0.10953349383E+02 -0.62640299790E+02  0.74903421184E+02  0.00000000000E+00 0.  1.
</event>
<event>
 7    1  0.3333381E-009  0.1809200E+03  0.7561462E-02  0.1166916E+00
          2   -1    0    0  501    0  0.00000000000E+00  0.00000000000E+00  0.11553112588E+04  0.11553112588E+04  0.00000000000E+00 0. -1.
         -2   -1    0    0    0  501 -0.00000000000E+00 -0.00000000000E+00 -0.32053593962E+02  0.32053593962E+02  0.00000000000E+00 0.  1.
         25    2    1    2    0    0 -0.97769706806E+02  0.12392214543E+03  0.55464397736E+03  0.59008078971E+03  0.12509909298E+03 0.  0.
          5    1    3    3  502    0 -0.52443913097E+02 -0.10428863098E+02  0.22327008725E+03  0.22962170949E+03  0.41800000000E+01 0. -1.
         -5    1    3    3    0  502 -0.45325793710E+02  0.13435100853E+03  0.33137389011E+03  0.36045908022E+03  0.41800000000E+01 0. -1.
        -11    1    1    2    0    0 -0.27697338571E+01 -0.25529307626E+02  0.25279706499E+02  0.36034435394E+02  0.00000000000E+00 0.  1.
         11    1    1    2    0    0  0.10053944066E+03 -0.98392837807E+02  0.54333398096E+03  0.56124962764E+03  0.00000000000E+00 0. -1.
</event>
<event>
 7    1  0.2810263E-009  0.2084389E+03  0.7561462E-02  0.1142808E+00
          1   -1    0    0  501    0  0.00000000000E+00  0.00000000000E+00  0.57215819888E+03  0.57215819888E+03  0.00000000000E+00 0. -1.
         -1   -1    0    0    0  501 -0.00000000000E+00 -0.00000000000E+00 -0.13341643176E+03  0.13341643176E+03  0.00000000000E+00 0.  1.
         25    2    1    2    0    0 -0.11843278533E+03  0.16602964281E+03  0.30829596849E+02  0.24122244228E+03  0.12508251550E+03 0.  0.
          5    1    3    3  502    0 -0.66123449368E+02  0.56501888079E+02  0.71996132451E+02  0.11298535038E+03  0.41800000000E+01 0. -1.
         -5    1    3    3    0  502 -0.52309335958E+02  0.10952775473E+03 -0.41166535601E+02  0.12823709190E+03  0.41800000000E+01 0. -1.
        -11    1    1    2    0    0  0.86020476845E+02 -0.84348371230E+02  0.15312993961E+03  0.19484082881E+03  0.00000000000E+00 0. -1.
         11    1    1    2    0    0  0.32412308481E+02 -0.81681271583E+02  0.25478223066E+03  0.26951135955E+03  0.00000000000E+00 0.  1.
</event>
<event>
 7    1  0.2810263E-009  0.1393440E+03  0.7561462E-02  0.1214214E+00
         -1   -1    0    0    0  501 -0.00000000000E+00  0.00000000000E+00  0.23752247837E+02  0.23752247837E+02  0.00000000000E+00 0.  1.
          1   -1    0    0  501    0  0.00000000000E+00 -0.00000000000E+00 -0.95595819010E+03  0.95595819010E+03  0.00000000000E+00 0. -1.
         25    2    1    2    0    0 -0.89828099647E+02  0.10703173106E+02 -0.36198892589E+03  0.39353124677E+03  0.12508882570E+03 0.  0.
          5    1    3    3  502    0  0.13281912131E+02  0.41457761059E+02 -0.14235289431E+03  0.14891935422E+03  0.41800000000E+01 0.  1.
         -5    1    3    3    0  502 -0.10311001178E+03 -0.30754587953E+02 -0.21963603158E+03  0.24461189255E+03  0.41800000000E+01 0.  1.
        -11    1    1    2    0    0  0.19692508253E+02 -0.45060468311E+02 -0.12804977639E+03  0.13716772915E+03  0.00000000000E+00 0.  1.
         11    1    1    2    0    0  0.70135591395E+02  0.34357295205E+02 -0.44216723998E+03  0.44901146202E+03  0.00000000000E+00 0. -1.
</event>
<event>
 7    1  0.2810263E-009  0.2362897E+03  0.7561462E-02  0.1122289E+00
         -2   -1    0    0    0  501 -0.00000000000E+00  0.00000000000E+00  0.31344448790E+03  0.31344448790E+03  0.00000000000E+00 0.  1.
          2   -1    0    0  501    0  0.00000000000E+00 -0.00000000000E+00 -0.31805952665E+03  0.31805952665E+03  0.00000000000E+00 0. -1.
         25    2    1    2    0    0 -0.21889940475E+03 -0.77905931935E+02  0.18162685601E+03  0.32034723023E+03  0.12509096475E+03 0.  0.
          5    1    3    3  502    0 -0.17584532034E+03 -0.41350529109E+02  0.19101912310E+03  0.26293957620E+03  0.41800000000E+01 0. -1.
         -5    1    3    3    0  502 -0.43054084406E+02 -0.36555402826E+02 -0.93922670894E+01  0.57407654027E+02  0.41800000000E+01 0. -1.
        -11    1    1    2    0    0  0.44317508297E+02  0.32227302508E+02 -0.93222835424E+02  0.10813481222E+03  0.00000000000E+00 0. -1.
         11    1    1    2    0    0  0.17458189645E+03  0.45678629427E+02 -0.93019059336E+02  0.20302197210E+03  0.00000000000E+00 0.  1.
</event>
<event>
 7    1  0.2810263E-009  0.8670756E+02  0.7561462E-02  0.1311027E+00
          2   -1    0    0  501    0  0.00000000000E+00  0.00000000000E+00  0.45730136852E+03  0.45730136852E+03  0.00000000000E+00 0. -1.
         -2   -1    0    0    0  501 -0.00000000000E+00 -0.00000000000E+00 -0.48151053473E+02  0.48151053473E+02  0.00000000000E+00 0.  1.
         25    2    1    2    0    0 -0.43721081446E+02  0.24357558348E+02  0.37026054179E+03  0.39401260678E+03  0.12509293301E+03 0.  0.
          5    1    3    3  502    0  0.12046874379E+02  0.19105744832E+02  0.31285639057E+03  0.31369850205E+03  0.41800000000E+01 0.  1.
         -5    1    3    3    0  502 -0.55767955825E+02  0.52518135161E+01  0.57404151214E+02  0.80314104731E+02  0.41800000000E+01 0.  1.
        -11    1    1    2    0    0  0.42211713282E+02  0.22199310377E+02  0.43602680670E+02  0.64620676884E+02  0.00000000000E+00 0. -1.
         11    1    1    2    0    0  0.15093681635E+01 -0.46556868725E+02 -0.47129074056E+01  0.46819138330E+02  0.00000000000E+00 0.  1.
</event>
<event>
 7    1  0.2810263E-009  0.1514301E+03  0.7561462E-02  0.1198727E+00
          2   -1    0    0  501    0  0.00000000000E+00  0.00000000000E+00  0.28451770918E+03  0.28451770918E+03  0.00000000000E+00 0. -1.
         -2   -1    0    0    0  501 -0.00000000000E+00 -0.00000000000E+00 -0.11428881781E+03  0.11428881781E+03  0.00000000000E+00 0.  1.
         25    2    1    2    0    0  0.24997033154E+02  0.11559989369E+03 -0.13676879896E+00  0.17215095210E+03  0.12509094497E+03 0.  0.
          5    1    3    3  502    0 -0.37650520005E+02  0.50261029750E+02 -0.38465402570E+02  0.73761726953E+02  0.41800000000E+01 0.  1.
         -5    1    3    3    0  502  0.62647553159E+02  0.65338863937E+02  0.38328633771E+02  0.98389225143E+02  0.41800000000E+01 0.  1.
        -11    1    1    2    0    0 -0.58713424123E+02 -0.57797158758E+02  0.88335971085E+02  0.12079330081E+03  0.00000000000E+00 0.  1.
         11    1    1    2    0    0  0.33716390969E+02 -0.57802734929E+02  0.82029689085E+02  0.10586227409E+03  0.00000000000E+00 0. -1.
</event>
<event>
 7    1  0.2810263E-009  0.9857352E+02  0.7561462E-02  0.1283325E+00
          3   -1    0    0  501    0  0.00000000000E+00  0.00000000000E+00  0.15779217626E+03  0.15779217626E+03  0.00000000000E+00 0. -1.
         -3   -1    0    0    0  501 -0.00000000000E+00 -0.00000000000E+00 -0.13676084327E+03  0.13676084327E+03  0.00000000000E+00 0.  1.
         25    2    1    2    0    0 -0.62082482270E+02 -0.54177198489E+02  0.63630351392E+02  0.16274322617E+03  0.12508849910E+03 0.  0.
          5    1    3    3  502    0 -0.21938989568E+02 -0.56258558368E+02  0.94268437482E+02  0.11202836854E+03  0.41800000000E+01 0. -1.
         -5    1    3    3    0  502 -0.40143492703E+02  0.20813598788E+01 -0.30638086091E+02  0.50714857632E+02  0.41800000000E+01 0. -1.
        -11    1    1    2    0    0  0.20475008820E+02  0.50429395442E+02 -0.64699601707E+02  0.84548142333E+02  0.00000000000E+00 0.  1.
         11    1    1    2    0    0  0.41607473450E+02  0.37478030469E+01  0.22100583305E+02  0.47261651018E+02  0.00000000000E+00 0. -1.
</event>
<event>
 7    1  0.2810263E-009  0.1184311E+03  0.7561462E-02  0.1245708E+00
          1   -1    0    0  501    0  0.00000000000E+00  0.00000000000E+00  0.16566916853E+03  0.16566916853E+03  0.00000000000E+00 0. -1.
         -1   -1    0    0    0  501 -0.00000000000E+00 -0.00000000000E+00 -0.10658098582E+03  0.10658098582E+03  0.00000000000E+00 0.  1.
         25    2    1    2    0    0  0.53849949566E+01 -0.49605700699E+02  0.88767772836E+02  0.16129629445E+03  0.12508818248E+03 0.  0.
          5    1    3    3  502    0 -0.48230152040E+02 -0.58002517886E+02  0.30259439811E+02  0.81385169070E+02  0.41800000000E+01 0. -1.
         -5    1    3    3    0  502  0.53615146997E+02  0.83968171866E+01  0.58508333025E+02  0.79911125381E+02  0.41800000000E+01 0. -1.
        -11    1    1    2    0    0  0.22835807228E+01  0.77713477419E+02 -0.20444824779E+02  0.80390236806E+02  0.00000000000E+00 0.  1.
         11    1    1    2    0    0 -0.76685756794E+01 -0.28107776720E+02 -0.92347653512E+01  0.30563623087E+02  0.00000000000E+00 0. -1.
</event>
<event>
 7    1  0.2810263E-009  0.8615276E+02  0.7561462E-02  0.1312445E+00
         -1   -1    0    0    0  501 -0.00000000000E+00  0.00000000000E+00  0.87597032570E+02  0.87597032570E+02  0.00000000000E+00 0.  1.
          1   -1    0    0  501    0  0.00000000000E+00 -0.00000000000E+00 -0.17536034217E+03  0.17536034217E+03  0.00000000000E+00 0. -1.
         25    2    1    2    0    0 -0.98703195209E+01 -0.18845177042E+01 -0.10944320737E+03  0.16651421308E+03  0.12509273721E+03 0.  0.
          5    1    3    3  502    0 -0.20511264782E+02 -0.49110826304E+02 -0.10491075243E+03  0.11771288638E+03  0.41800000000E+01 0.  1.
         -5    1    3    3    0  502  0.10640945261E+02  0.47226308600E+02 -0.45324549392E+01  0.48801326701E+02  0.41800000000E+01 0.  1.
        -11    1    1    2    0    0  0.36273712021E+02 -0.14711195954E+02 -0.20341997378E+02  0.44113471044E+02  0.00000000000E+00 0. -1.
         11    1    1    2    0    0 -0.26403392500E+02  0.16595713658E+02  0.42021895155E+02  0.52329690614E+02  0.00000000000E+00 0.  1.
</event>
<event>
 7    1  0.2810263E-009  0.1050801E+03  0.7561462E-02  0.1269962E+00
          1   -1    0    0  501    0  0.00000000000E+00  0.00000000000E+00  0.54396665260E+03  0.54396665260E+03  0.00000000000E+00 0. -1.
         -1   -1    0    0    0  501 -0.00000000000E+00 -0.00000000000E+00 -0.23430801434E+02  0.23430801434E+02  0.00000000000E+00 0.  1.
         25    2    1    2    0    0 -0.23398886844E+02  0.77342018541E+01  0.24603375066E+03  0.27710592875E+03  0.12509102087E+03 0.  0.
          5    1    3    3  502    0 -0.16607828344E+02  0.66166896248E+02  0.13926169704E+03  0.15512952905E+03  0.41800000000E+01 0.  1.
         -5    1    3    3    0  502 -0.67910585008E+01 -0.58432694394E+02  0.10677205362E+03  0.12197639970E+03  0.41800000000E+01 0.  1.
        -11    1    1    2    0    0 -0.17955071611E+02  0.24521773967E+02  0.17689170974E+03  0.17948364541E+03  0.00000000000E+00 0. -1.
         11    1    1    2    0    0  0.41353958455E+02 -0.32255975821E+02  0.97610390775E+02  0.11080787988E+03  0.00000000000E+00 0.  1.
</event>
<event>
 7    1  0.2810263E-009  0.1008761E+03  0.7561462E-02  0.1278464E+00
          1   -1    0    0  501    0  0.00000000000E+00  0.00000000000E+00  0.13124179522E+03  0.13124179522E+03  0.00000000000E+00 0. -1.
         -1   -1    0    0    0  501 -0.00000000000E+00 -0.00000000000E+00 -0.10592720158E+03  0.10592720158E+03  0.00000000000E+00 0.  1.
         25    2    1    2    0    0  0.38725034300E+02 -0.27873023841E+02  0.64995107659E+01  0.13403767461E+03  0.12508925147E+03 0.  0.
          5    1    3    3  502    0  0.71921670116E+02  0.20480832919E+02  0.18066243425E+00  0.74897905099E+02  0.41800000000E+01 0. -1.
         -5    1    3    3    0  502 -0.33196635816E+02 -0.48353856760E+02  0.63188483317E+01  0.59139769507E+02  0.41800000000E+01 0. -1.
        -11    1    1    2    0    0 -0.48180610084E+02  0.12122135705E+02 -0.25002255317E+02  0.55618613188E+02  0.00000000000E+00 0.  1.
         11    1    1    2    0    0  0.94555757837E+01  0.15750888135E+02  0.43817338199E+02  0.47512709008E+02  0.00000000000E+00 0. -1.
</event>
<event>
 7    1  0.2810263E-009  0.1109624E+03  0.7561462E-02  0.1258798E+00
         -4   -1    0    0    0  501 -0.00000000000E+00  0.00000000000E+00  0.29249319727E+02  0.29249319727E+02  0.00000000000E+00 0.  1.
          4   -1    0    0  501    0  0.00000000000E+00 -0.00000000000E+00 -0.47688998289E+03  0.47688998289E+03  0.00000000000E+00 0. -1.
         25    2    1    2    0    0  0.48297548602E+02 -0.26099010206E+01 -0.25220479117E+03  0.28564680230E+03  0.12508946474E+03 0.  0.
          5    1    3    3  502    0  0.88150923869E+02  0.15666418131E+02 -0.15792529950E+03  0.18158715444E+03  0.41800000000E+01 0.  1.
         -5    1    3    3    0  502 -0.39853375268E+02 -0.18276319152E+02 -0.94279491669E+02  0.10405964785E+03  0.41800000000E+01 0.  1.
        -11    1    1    2    0    0 -0.27269753272E+02  0.38187594178E+02 -0.15768397765E+03  0.16451798868E+03  0.00000000000E+00 0. -1.
         11    1    1    2    0    0 -0.21027795329E+02 -0.35577693157E+02 -0.37751894348E+02  0.55974511643E+02  0.00000000000E+00 0.  1.
</event>
<event>
 7    1  0.2810263E-009  0.1326666E+03  0.7561462E-02  0.1223552E+00
         -2   -1    0    0    0  501 -0.00000000000E+00  0.00000000000E+00  0.35977761251E+03  0.35977761251E+03  0.00000000000E+00 0.  1.
          2   -1    0    0  501    0  0.00000000000E+00 -0.00000000000E+00 -0.54733005494E+02  0.54733005494E+02  0.00000000000E+00 0. -1.
         25    2    1    2    0    0  0.75580159287E+02 -0.46448561511E+02  0.12301374565E+03  0.19659425253E+03  0.12508832546E+03 0.  0.
          5    1    3    3  502    0 -0.28991868437E+02 -0.38525056622E+02  0.38471048849E+02  0.61823963176E+02  0.41800000000E+01 0. -1.
         -5    1    3    3    0  502  0.10457202772E+03 -0.79235048894E+01  0.84542696798E+02  0.13477028936E+03  0.41800000000E+01 0. -1.
        -11    1    1    2    0    0  0.73246412716E+00 -0.14376219928E+02  0.40770095970E+01  0.14961089879E+02  0.00000000000E+00 0. -1.
         11    1    1    2    0    0 -0.76312623414E+02  0.60824781439E+02  0.17795385177E+03  0.20295527559E+03  0.00000000000E+00 0.  1.
</event>
<event>
 7    1  0.2810263E-009  0.1005501E+03  0.7561462E-02  0.1279143E+00
         -1   -1    0    0    0  501 -0.00000000000E+00  0.00000000000E+00  0.16016458522E+03  0.16016458522E+03  0.00000000000E+00 0.  1.
          1   -1    0    0  501    0  0.00000000000E+00 -0.00000000000E+00 -0.79635703371E+02  0.79635703371E+02  0.00000000000E+00 0. -1.
         25    2    1    2    0    0  0.22989451083E+02 -0.99134671795E+01  0.53985662187E+02  0.13852239788E+03  0.12508881365E+03 0.  0.
          5    1    3    3  502    0  0.55097962323E+02  0.34725437365E+02  0.62048399486E+01  0.65556188809E+02  0.41800000000E+01 0. -1.
         -5    1    3    3    0  502 -0.32108511241E+02 -0.44638904545E+02  0.47780822238E+02  0.72966209075E+02  0.41800000000E+01 0. -1.
        -11    1    1    2    0    0 -0.25138847893E+02 -0.30893314246E+02 -0.15415921550E+02  0.42708420431E+02  0.00000000000E+00 0. -1.
         11    1    1    2    0    0  0.21493968107E+01  0.40806781425E+02  0.41959141210E+02  0.58569470272E+02  0.00000000000E+00 0.  1.
</event>
<event>
 7    1  0.2810263E-009  0.9677010E+02  0.7561462E-02  0.1287238E+00
         -1   -1    0    0    0  501 -0.00000000000E+00  0.00000000000E+00  0.47535887011E+03  0.47535887011E+03  0.00000000000E+00 0.  1.
          1   -1    0    0  501    0  0.00000000000E+00 -0.00000000000E+00 -0.34605664357E+02  0.34605664357E+02  0.00000000000E+00 0. -1.
         25    2    1    2    0    0 -0.10645697582E+02 -0.59108699847E+02  0.18791009352E+03  0.23358870760E+03  0.12508521814E+03 0.  0.
          5    1    3    3  502    0  0.32085585105E+02  0.17212726622E+02  0.11150176548E+03  0.11737068984E+03  0.41800000000E+01 0.  1.
         -5    1    3    3    0  502 -0.42731282686E+02 -0.76321426469E+02  0.76408328045E+02  0.11621801776E+03  0.41800000000E+01 0.  1.
        -11    1    1    2    0    0 -0.96028910909E+01  0.36364724662E+01 -0.53062802576E+01  0.11558376161E+02  0.00000000000E+00 0. -1.
         11    1    1    2    0    0  0.20248588673E+02  0.55472227381E+02  0.25814939249E+03  0.26481745070E+03  0.00000000000E+00 0.  1.
</event>
<event>
 7    1  0.2810263E-009  0.1174925E+03  0.7561462E-02  0.1247292E+00
         -1   -1    0    0    0  501 -0.00000000000E+00  0.00000000000E+00  0.50437804423E+02  0.50437804423E+02  0.00000000000E+00 0.  1.
          1   -1    0    0  501    0  0.00000000000E+00 -0.00000000000E+00 -0.53235754327E+03  0.53235754327E+03  0.00000000000E+00 0. -1.
         25    2    1    2    0    0  0.73885334610E+02 -0.13042544435E+02 -0.85135565491E+02  0.16889606671E+03  0.12509462899E+03 0.  0.
          5    1    3    3  502    0  0.94310065336E+02 -0.17354353101E+02 -0.10322782046E+03  0.14095750180E+03  0.41800000000E+01 0. -1.
         -5    1    3    3    0  502 -0.20424730726E+02  0.43118086662E+01  0.18092254974E+02  0.27938564910E+02  0.41800000000E+01 0. -1.
        -11    1    1    2    0    0  0.14721547495E+02 -0.18513147632E+02 -0.73747970951E+02  0.77448200852E+02  0.00000000000E+00 0.  1.
         11    1    1    2    0    0 -0.88606882105E+02  0.31555692066E+02 -0.32303620240E+03  0.33645108013E+03  0.00000000000E+00 0. -1.
</event>
<event>
 7    1  0.2810263E-009  0.7743048E+02  0.7561462E-02  0.1336506E+00
          1   -1    0    0  501    0  0.00000000000E+00  0.00000000000E+00  0.60066345408E+02  0.60066345408E+02  0.00000000000E+00 0. -1.
         -1   -1    0    0    0  501 -0.00000000000E+00 -0.00000000000E+00 -0.24763550243E+03  0.24763550243E+03  0.00000000000E+00 0.  1.
         25    2    1    2    0    0 -0.41426564388E+02 -0.25625454242E+02 -0.13639008271E+03  0.19137190186E+03  0.12509246986E+03 0.  0.
          5    1    3    3  502    0 -0.68575817121E+02 -0.70907444807E+01 -0.14186531897E+03  0.15778517826E+03  0.41800000000E+01 0.  1.
         -5    1    3    3    0  502  0.27149252733E+02 -0.18534709761E+02  0.54752362589E+01  0.33586723597E+02  0.41800000000E+01 0.  1.
        -11    1    1    2    0    0  0.63450765303E+01  0.14540071915E+02 -0.72223449789E+02  0.73945252632E+02  0.00000000000E+00 0.  1.
         11    1    1    2    0    0  0.35081487857E+02  0.11085382326E+02  0.21044375476E+02  0.42384693355E+02  0.00000000000E+00 0. -1.
</event>
<event>
 7    1  0.2810263E-009  0.1027643E+03  0.7561462E-02  0.1274588E+00
          2   -1    0    0  501    0  0.00000000000E+00  0.00000000000E+00  0.12184432624E+03  0.12184432624E+03  0.00000000000E+00 0.  1.
         -2   -1    0    0    0  501 -0.00000000000E+00 -0.00000000000E+00 -0.13221847691E+03  0.13221847691E+03  0.00000000000E+00 0. -1.
         25    2    1    2    0    0  0.32026715863E+02 -0.55931065320E+02  0.75777118300E+01  0.14092166990E+03  0.12508997055E+03 0.  0.
          5    1    3    3  502    0  0.73309865934E+02 -0.64457106560E+02  0.11493189234E+02  0.98379981846E+02  0.41800000000E+01 0.  1.
         -5    1    3    3    0  502 -0.41283150070E+02  0.85260412393E+01 -0.39154774038E+01  0.42541688051E+02  0.41800000000E+01 0.  1.
        -11    1    1    2    0    0 -0.85076301170E+01  0.26232975918E+02  0.37153485767E+02  0.46270188030E+02  0.00000000000E+00 0.  1.
         11    1    1    2    0    0 -0.23519085746E+02  0.29698089403E+02 -0.55105348268E+02  0.66870945232E+02  0.00000000000E+00 0. -1.
</event>
<event>
 7    1  0.2810263E-009  0.9879266E+02  0.7561462E-02  0.1282855E+00
         -1   -1    0    0    0  501 -0.00000000000E+00  0.00000000000E+00  0.13087225385E+04  0.13087225385E+04  0.00000000000E+00 0.  1.
          1   -1    0    0  501    0  0.00000000000E+00 -0.00000000000E+00 -0.12024335192E+02  0.12024335192E+02  0.00000000000E+00 0. -1.
         25    2    1    2    0    0  0.47194160784E+02  0.16890539182E+02  0.73835760742E+03  0.75055408862E+03  0.12508758685E+03 0.  0.
          5    1    3    3  502    0 -0.47868061579E+01 -0.18630433797E+02  0.15785047875E+02  0.25231859088E+02  0.41800000000E+01 0.  1.
         -5    1    3    3    0  502  0.51980966942E+02  0.35520972979E+02  0.72257255954E+03  0.72532222953E+03  0.41800000000E+01 0.  1.
        -11    1    1    2    0    0  0.29852967369E+02 -0.22751080797E+02  0.21634162548E+03  0.21957347348E+03  0.00000000000E+00 0.  1.
         11    1    1    2    0    0 -0.77047128153E+02  0.58605416144E+01  0.34199897039E+03  0.35061931158E+03  0.00000000000E+00 0. -1.
</event>
<event>
 7    1  0.2810263E-009  0.1085596E+03  0.7561462E-02  0.1263261E+00
          1   -1    0    0  501    0  0.00000000000E+00  0.00000000000E+00  0.68119267871E+03  0.68119267871E+03  0.00000000000E+00 0. -1.
         -1   -1    0    0    0  501 -0.00000000000E+00 -0.00000000000E+00 -0.30453127293E+02  0.30453127293E+02  0.00000000000E+00 0.  1.
         25    2    1    2    0    0 -0.84397505011E+02 -0.18380377774E+02  0.26087327511E+03  0.30193063421E+03  0.12508583080E+03 0.  0.
          5    1    3    3  502    0 -0.65799145973E+02  0.67529802885E+01  0.26211236292E+03  0.27036178271E+03  0.41800000000E+01 0. -1.
         -5    1    3    3    0  502 -0.18598359038E+02 -0.25133358063E+02 -0.12390878115E+01  0.31568851500E+02  0.41800000000E+01 0. -1.
        -11    1    1    2    0    0 -0.10017343659E+02  0.22671248654E+02  0.37938121537E+02  0.45317036038E+02  0.00000000000E+00 0. -1.
         11    1    1    2    0    0  0.94414848670E+02 -0.42908708795E+01  0.35192815477E+03  0.36439813575E+03  0.00000000000E+00 0.  1.
</event>
<event>
 7    1  0.2810263E-009  0.1854592E+03  0.7561462E-02  0.1162622E+00
          1   -1    0    0  501    0  0.00000000000E+00  0.00000000000E+00  0.82651470452E+02  0.82651470452E+02  0.00000000000E+00 0. -1.
         -1   -1    0    0    0  501 -0.00000000000E+00 -0.00000000000E+00 -0.56817280428E+03  0.56817280428E+03  0.00000000000E+00 0.  1.
         25    2    1    2    0    0  0.23855614917E+02 -0.17479709347E+03 -0.34661988293E+03  0.40855336561E+03  0.12508954816E+03 0.  0.
          5    1    3    3  502    0  0.45836990340E+02 -0.54990245135E+02 -0.48745782054E+02  0.86709748076E+02  0.41800000000E+01 0. -1.
         -5    1    3    3    0  502 -0.21981375423E+02 -0.11980684833E+03 -0.29787410088E+03  0.32184361753E+03  0.41800000000E+01 0. -1.
        -11    1    1    2    0    0 -0.91771054920E+01  0.12694885430E+03 -0.14373430403E+03  0.19198901278E+03  0.00000000000E+00 0.  1.
         11    1    1    2    0    0 -0.14678509425E+02  0.47848239169E+02  0.48328531318E+01  0.50281896343E+02  0.00000000000E+00 0. -1.
</event>
<event>
 7    1  0.2810263E-009  0.1256884E+03  0.7561462E-02  0.1233997E+00
          1   -1    0    0  501    0  0.00000000000E+00  0.00000000000E+00  0.55667239684E+03  0.55667239684E+03  0.00000000000E+00 0. -1.
         -1   -1    0    0    0  501 -0.00000000000E+00 -0.00000000000E+00 -0.41916891962E+02  0.41916891962E+02  0.00000000000E+00 0.  1.
         25    2    1    2    0    0  0.55407864010E+02 -0.98546016307E+02  0.32980866312E+03  0.37040355645E+03  0.12507474418E+03 0.  0.
          5    1    3    3  502    0  0.65137250542E+02 -0.68886630849E+02  0.32496776590E+03  0.33854061882E+03  0.41800000000E+01 0. -1.
         -5    1    3    3    0  502 -0.97293865312E+01 -0.29659385458E+02  0.48408972212E+01  0.31862937622E+02  0.41800000000E+01 0. -1.
        -11    1    1    2    0    0  0.99875048494E+01  0.59520232246E+01  0.43632793969E+00  0.11634741753E+02  0.00000000000E+00 0.  1.
         11    1    1    2    0    0 -0.65395368860E+02  0.92593993082E+02  0.18451051382E+03  0.21655099061E+03  0.00000000000E+00 0. -1.
</event>
<event>
 7    1  0.2810263E-009  0.2550655E+03  0.7561462E-02  0.1110145E+00
          1   -1    0    0  501    0  0.00000000000E+00  0.00000000000E+00  0.11982860087E+04  0.11982860087E+04  0.00000000000E+00 0. -1.
         -1   -1    0    0    0  501 -0.00000000000E+00 -0.00000000000E+00 -0.90719477910E+02  0.90719477910E+02  0.00000000000E+00 0.  1.
         25    2    1    2    0    0  0.45240887663E+02 -0.23910948829E+03  0.18456120163E+03  0.33004605024E+03  0.12508985900E+03 0.  0.
          5    1    3    3  502    0  0.74898478777E+02 -0.21685545230E+03  0.12935523103E+03  0.26341282716E+03  0.41800000000E+01 0.  1.
         -5    1    3    3    0  502 -0.29657591114E+02 -0.22254035986E+02  0.55205970602E+02  0.66633223083E+02  0.41800000000E+01 0.  1.
        -11    1    1    2    0    0 -0.25481180971E+02  0.13749084530E+03  0.35405569331E+03  0.38066843458E+03  0.00000000000E+00 0.  1.
         11    1    1    2    0    0 -0.19759706691E+02  0.10161864299E+03  0.56894963583E+03  0.57829100177E+03  0.00000000000E+00 0. -1.
</event>
<event>
 7    1  0.2810263E-009  0.1231023E+03  0.7561462E-02  0.1238065E+00
          2   -1    0    0  501    0  0.00000000000E+00  0.00000000000E+00  0.13885009300E+03  0.13885009300E+03  0.00000000000E+00 0.  1.
         -2   -1    0    0    0  501 -0.00000000000E+00 -0.00000000000E+00 -0.12438642057E+03  0.12438642057E+03  0.00000000000E+00 0. -1.
         25    2    1    2    0    0 -0.66357832146E+02  0.12667695630E+02  0.34754334796E+02  0.14635360622E+03  0.12509069457E+03 0.  0.
          5    1    3    3  502    0  0.32450620170E+02 -0.18997783477E+02  0.14715040000E+02  0.40595114591E+02  0.41800000000E+01 0.  1.
         -5    1    3    3    0  502 -0.98808452317E+02  0.31665479107E+02  0.20039294796E+02  0.10575849163E+03  0.41800000000E+01 0.  1.
        -11    1    1    2    0    0  0.79770727275E+02  0.76987909531E+01  0.68042805436E+01  0.80429711835E+02  0.00000000000E+00 0.  1.
         11    1    1    2    0    0 -0.13412895129E+02 -0.20366486583E+02 -0.27094942915E+02  0.36453195512E+02  0.00000000000E+00 0. -1.
</event>
<event>
 7    1  0.2810263E-009  0.2464396E+03  0.7561462E-02  0.1115576E+00
          2   -1    0    0  501    0  0.00000000000E+00  0.00000000000E+00  0.94837754729E+03  0.94837754729E+03  0.00000000000E+00 0. -1.
         -2   -1    0    0    0  501 -0.00000000000E+00 -0.00000000000E+00 -0.69385383161E+02  0.69385383161E+02  0.00000000000E+00 0.  1.
         25    2    1    2    0    0  0.20430966841E+03 -0.10980824620E+03  0.44126688341E+03  0.51396889266E+03  0.12508904305E+03 0.  0.
          5    1    3    3  502    0  0.16469435532E+03 -0.12998772933E+03  0.30226999244E+03  0.36797508228E+03  0.41800000000E+01 0. -1.
         -5    1    3    3    0  502  0.39615313085E+02  0.20179483128E+02  0.13899689097E+03  0.14599381038E+03  0.41800000000E+01 0. -1.
        -11    1    1    2    0    0 -0.16081333274E+03  0.58539682513E+02  0.23863145696E+03  0.29365420935E+03  0.00000000000E+00 0. -1.
         11    1    1    2    0    0 -0.43496335662E+02  0.51268563686E+02  0.19909382376E+03  0.21013982844E+03  0.00000000000E+00 0.  1.
</event>
<event>
 7    1  0.2810263E-009  0.1048500E+03  0.7561462E-02  0.1270415E+00
         -1   -1    0    0    0  501 -0.00000000000E+00  0.00000000000E+00  0.48705172874E+02  0.48705172874E+02  0.00000000000E+00 0.  1.
          1   -1    0    0  501    0  0.00000000000E+00 -0.00000000000E+00 -0.30108511145E+03  0.30108511145E+03  0.00000000000E+00 0. -1.
         25    2    1    2    0    0 -0.21904737456E+02 -0.18283742807E+02 -0.21111756371E+03  0.24704809150E+03  0.12509205024E+03 0.  0.
          5    1    3    3  502    0  0.51822431733E+02 -0.84181467023E+01 -0.10391174969E+03  0.11649701175E+03  0.41800000000E+01 0.  1.
         -5    1    3    3    0  502 -0.73727169189E+02 -0.98655961046E+01 -0.10720581402E+03  0.13055107975E+03  0.41800000000E+01 0.  1.
        -11    1    1    2    0    0 -0.19739613053E+02 -0.18435620170E+02  0.83640576182E+01  0.28275110510E+02  0.00000000000E+00 0.  1.
         11    1    1    2    0    0  0.41644350509E+02  0.36719362977E+02 -0.49626432483E+02  0.74467082310E+02  0.00000000000E+00 0. -1.
</event>
<event>
 7    1  0.2810263E-009  0.1294094E+03  0.7561462E-02  0.1228335E+00
         -2   -1    0    0    0  501 -0.00000000000E+00  0.00000000000E+00  0.23850110427E+02  0.23850110427E+02  0.00000000000E+00 0. -1.
          2   -1    0    0  501    0  0.00000000000E+00 -0.00000000000E+00 -0.82734516119E+03  0.82734516119E+03  0.00000000000E+00 0.  1.
         25    2    1    2    0    0  0.85541429125E+02 -0.98587179532E+00 -0.52884373496E+03  0.55012859579E+03  0.12508983915E+03 0.  0.
          5    1    3    3  502    0 -0.41897490413E+01  0.43368064833E+02 -0.91128101346E+02  0.10109473923E+03  0.41800000000E+01 0.  1.
         -5    1    3    3    0  502  0.89731178166E+02 -0.44353936628E+02 -0.43771563361E+03  0.44903385656E+03  0.41800000000E+01 0.  1.
        -11    1    1    2    0    0 -0.12327736415E+02 -0.32202913636E+02 -0.14055003518E+03  0.14471804698E+03  0.00000000000E+00 0.  1.
         11    1    1    2    0    0 -0.73213692710E+02  0.33188785431E+02 -0.13410128062E+03  0.15634862885E+03  0.00000000000E+00 0. -1.
</event>
<event>
 7    1  0.2810263E-009  0.2276847E+03  0.7561462E-02  0.1128280E+00
         -1   -1    0    0    0  501 -0.00000000000E+00  0.00000000000E+00  0.89083792531E+02  0.89083792531E+02  0.00000000000E+00 0.  1.
          1   -1    0    0  501    0  0.00000000000E+00 -0.00000000000E+00 -0.59781544522E+03  0.59781544522E+03  0.00000000000E+00 0. -1.
         25    2    1    2    0    0 -0.60924265199E+02  0.19845571699E+03 -0.26315682360E+03  0.35776419345E+03  0.12508903473E+03 0.  0.
          5    1    3    3  502    0 -0.98730135902E+02  0.16059664141E+03 -0.19970552653E+03  0.27466104692E+03  0.41800000000E+01 0. -1.
         -5    1    3    3    0  502  0.37805870703E+02  0.37859075576E+02 -0.63451297067E+02  0.83103146527E+02  0.41800000000E+01 0. -1.
        -11    1    1    2    0    0  0.24366596090E+01 -0.89029682643E+02 -0.14146749451E+03  0.16716839924E+03  0.00000000000E+00 0. -1.
         11    1    1    2    0    0  0.58487605590E+02 -0.10942603435E+03 -0.10410733458E+03  0.16196664507E+03  0.00000000000E+00 0.  1.
</event>
<event>
 7    1  0.2810263E-009  0.9204227E+02  0.7561462E-02  0.1297980E+00
         -1   -1    0    0    0  501 -0.00000000000E+00  0.00000000000E+00  0.58481817183E+02  0.58481817183E+02  0.00000000000E+00 0.  1.
          1   -1    0    0  501    0  0.00000000000E+00 -0.00000000000E+00 -0.28451604188E+03  0.28451604188E+03  0.00000000000E+00 0. -1.
         25    2    1    2    0    0 -0.21124425745E+02 -0.25474463954E+02 -0.20740010926E+03  0.24445339417E+03  0.12508983541E+03 0.  0.
          5    1    3    3  502    0 -0.14405452784E+02  0.32917852699E+02 -0.87080167948E+01  0.37207580582E+02  0.41800000000E+01 0.  1.
         -5    1    3    3    0  502 -0.67189729607E+01 -0.58392316654E+02 -0.19869209246E+03  0.20724581359E+03  0.41800000000E+01 0.  1.
        -11    1    1    2    0    0  0.39933858419E+02  0.46152693217E+02 -0.30439258997E+02  0.68200679086E+02  0.00000000000E+00 0. -1.
         11    1    1    2    0    0 -0.18809432674E+02 -0.20678229263E+02  0.11805143556E+02  0.30343785811E+02  0.00000000000E+00 0.  1.
</event>
<event>
 7    1  0.2810263E-009  0.1114805E+03  0.7561462E-02  0.1257853E+00
          2   -1    0    0  501    0  0.00000000000E+00  0.00000000000E+00  0.38394465330E+02  0.38394465330E+02  0.00000000000E+00 0. -1.
         -2   -1    0    0    0  501 -0.00000000000E+00 -0.00000000000E+00 -0.36162976287E+03  0.36162976287E+03  0.00000000000E+00 0.  1.
         25    2    1    2    0    0 -0.31114876695E+02 -0.32523729344E+02 -0.19539602405E+03  0.23633121546E+03  0.12508760396E+03 0.  0.
          5    1    3    3  502    0 -0.47339198104E+02  0.34065370019E+02 -0.56103817277E+02  0.81034312638E+02  0.41800000000E+01 0. -1.
         -5    1    3    3    0  502  0.16224321409E+02 -0.66589099363E+02 -0.13929220678E+03  0.15529690283E+03  0.41800000000E+01 0. -1.
        -11    1    1    2    0    0 -0.23208795846E+02  0.34367402085E+02 -0.28066359028E+02  0.50074814425E+02  0.00000000000E+00 0. -1.
         11    1    1    2    0    0  0.54323672541E+02 -0.18436727409E+01 -0.99772914463E+02  0.11361819831E+03  0.00000000000E+00 0.  1.
</event>
<event>
 7    1  0.2810263E-009  0.1134625E+03  0.7561462E-02  0.1254289E+00
          1   -1    0    0  501    0  0.00000000000E+00  0.00000000000E+00  0.90271728017E+03  0.90271728017E+03  0.00000000000E+00 0. -1.
         -1   -1    0    0    0  501 -0.00000000000E+00 -0.00000000000E+00 -0.14598651307E+02  0.14598651307E+02  0.00000000000E+00 0.  1.
         25    2    1    2    0    0 -0.24898881583E+02 -0.27301006901E+02  0.48161578416E+03  0.49896468530E+03  0.12508674728E+03 0.  0.
          5    1    3    3  502    0 -0.75044614227E+02 -0.24723849599E+02  0.32236611906E+03  0.33193425551E+03  0.41800000000E+01 0. -1.
         -5    1    3    3    0  502  0.50145732643E+02 -0.25771573020E+01  0.15924966510E+03  0.16703042979E+03  0.41800000000E+01 0. -1.
        -11    1    1    2    0    0 -0.31176964391E+02 -0.66299358331E+01  0.16852093071E+03  0.17150878475E+03  0.00000000000E+00 0. -1.
         11    1    1    2    0    0  0.56075845974E+02  0.33930942734E+02  0.23798191399E+03  0.24684246143E+03  0.00000000000E+00 0.  1.
</event>
<event>
 7    1  0.2810263E-009  0.1466106E+03  0.7561462E-02  0.1204701E+00
          2   -1    0    0  501    0  0.00000000000E+00  0.00000000000E+00  0.60732355287E+03  0.60732355287E+03  0.00000000000E+00 0. -1.
         -2   -1    0    0    0  501 -0.00000000000E+00 -0.00000000000E+00 -0.35988011651E+02  0.35988011651E+02  0.00000000000E+00 0.  1.
         25    2    1    2    0    0 -0.63043188158E+02  0.78946526668E+02  0.31340835157E+03  0.35224939621E+03  0.12509134524E+03 0.  0.
          5    1    3    3  502    0  0.38295172010E+02  0.18660392293E+02  0.84079047053E+02  0.94347702638E+02  0.41800000000E+01 0.  1.
         -5    1    3    3    0  502 -0.10133836017E+03  0.60286134375E+02  0.22932930452E+03  0.25790169358E+03  0.41800000000E+01 0.  1.
        -11    1    1    2    0    0  0.82235570710E+02 -0.77793590033E+02  0.23697755190E+03  0.26262690617E+03  0.00000000000E+00 0. -1.
         11    1    1    2    0    0 -0.19192382551E+02 -0.11529366347E+01  0.20949637750E+02  0.28435262136E+02  0.00000000000E+00 0.  1.
</event>
<event>
 7    1  0.2810263E-009  0.1037048E+03  0.7561462E-02  0.1272693E+00
         -3   -1    0    0    0  501 -0.00000000000E+00  0.00000000000E+00  0.70067341466E+03  0.70067341466E+03  0.00000000000E+00 0.  1.
          3   -1    0    0  501    0  0.00000000000E+00 -0.00000000000E+00 -0.17509412731E+02  0.17509412731E+02  0.00000000000E+00 0. -1.
         25    2    1    2    0    0 -0.63436745920E+01  0.10802668642E+02  0.38150510484E+03  0.40168343876E+03  0.12508597081E+03 0.  0.
          5    1    3    3  502    0 -0.60054119605E+02 -0.41101645489E+01  0.12054287250E+03  0.13480151055E+03  0.41800000000E+01 0. -1.
         -5    1    3    3    0  502  0.53710445013E+02  0.14912833190E+02  0.26096223234E+03  0.26688192821E+03  0.41800000000E+01 0. -1.
        -11    1    1    2    0    0 -0.41032940348E+02 -0.14813800279E+02  0.19340849134E+03  0.19826748446E+03  0.00000000000E+00 0. -1.
         11    1    1    2    0    0  0.47376614940E+02  0.40111316371E+01  0.10825040574E+03  0.11823190417E+03  0.00000000000E+00 0.  1.
</event>
<event>
 7    1  0.2810263E-009  0.1057739E+03  0.7561462E-02  0.1268602E+00
         -2   -1    0    0    0  501 -0.00000000000E+00  0.00000000000E+00  0.58797874655E+02  0.58797874655E+02  0.00000000000E+00 0.  1.
          2   -1    0    0  501    0  0.00000000000E+00 -0.00000000000E+00 -0.41177237377E+03  0.41177237377E+03  0.00000000000E+00 0. -1.
         25    2    1    2    0    0 -0.10355118106E+03 -0.15264789975E+02 -0.24923597846E+03  0.29786137837E+03  0.12508783655E+03 0.  0.
          5    1    3    3  502    0 -0.88789263709E+01 -0.50535000355E+00 -0.17830240320E+03  0.17857298256E+03  0.41800000000E+01 0.  1.
         -5    1    3    3    0  502 -0.94672254690E+02 -0.14759439971E+02 -0.70933575255E+02  0.11928839581E+03  0.41800000000E+01 0.  1.
        -11    1    1    2    0    0  0.86425315368E+02  0.18505691565E+02 -0.24699306564E+02  0.91770646186E+02  0.00000000000E+00 0.  1.
         11    1    1    2    0    0  0.17125865693E+02 -0.32409015897E+01 -0.79039214098E+02  0.80938223875E+02  0.00000000000E+00 0. -1.
</event>
<event>
 7    1  0.2810263E-009  0.1182275E+03  0.7561462E-02  0.1246050E+00
          2   -1    0    0  501    0  0.00000000000E+00  0.00000000000E+00  0.14752981148E+03  0.14752981148E+03  0.00000000000E+00 0. -1.
         -2   -1    0    0    0  501 -0.00000000000E+00 -0.00000000000E+00 -0.10248412251E+03  0.10248412251E+03  0.00000000000E+00 0.  1.
         25    2    1    2    0    0  0.44442404799E+02 -0.28059703992E+02  0.51337329195E+02  0.14506965545E+03  0.12508880538E+03 0.  0.
          5    1    3    3  502    0  0.86616215898E+02 -0.18347897636E+02  0.49566693673E+02  0.10155463419E+03  0.41800000000E+01 0.  1.
         -5    1    3    3    0  502 -0.42173811099E+02 -0.97118063555E+01  0.17706355221E+01  0.43515021263E+02  0.41800000000E+01 0.  1.
        -11    1    1    2    0    0  0.20139126591E+02 -0.16367998966E+02 -0.56228928503E+01  0.26553958914E+02  0.00000000000E+00 0. -1.
         11    1    1    2    0    0 -0.64581531390E+02  0.44427702958E+02 -0.66874736902E+00  0.78390319618E+02  0.00000000000E+00 0.  1.
</event>
<event>
 7    1  0.2810263E-009  0.1603749E+03  0.7561462E-02  0.1188274E+00
         -1   -1    0    0    0  501 -0.00000000000E+00  0.00000000000E+00  0.24159760532E+02  0.24159760532E+02  0.00000000000E+00 0.  1.
          1   -1    0    0  501    0  0.00000000000E+00 -0.00000000000E+00 -0.12052172384E+04  0.12052172384E+04  0.00000000000E+00 0. -1.
         25    2    1    2    0    0 -0.82500689815E+02  0.10154103071E+03 -0.58492945714E+03  0.61229625531E+03  0.12508912703E+03 0.  0.
          5    1    3    3  502    0 -0.42844311730E-01  0.94434714165E+02 -0.37166001918E+03  0.38349258054E+03  0.41800000000E+01 0.  1.
         -5    1    3    3    0  502 -0.82457845503E+02  0.71063165450E+01 -0.21326943796E+03  0.22880367477E+03  0.41800000000E+01 0.  1.
        -11    1    1    2    0    0  0.32387264791E+02 -0.84381927469E+02 -0.49222756521E+03  0.50045701170E+03  0.00000000000E+00 0.  1.
         11    1    1    2    0    0  0.50113425024E+02 -0.17159103241E+02 -0.10390045556E+03  0.11662373197E+03  0.00000000000E+00 0. -1.
</event>
<event>
 7    1  0.2810263E-009  0.1104899E+03  0.7561462E-02  0.1259665E+00
          2   -1    0    0  501    0  0.00000000000E+00  0.00000000000E+00  0.68114059108E+03  0.68114059108E+03  0.00000000000E+00 0. -1.
         -2   -1    0    0    0  501 -0.00000000000E+00 -0.00000000000E+00 -0.21973598706E+02  0.21973598706E+02  0.00000000000E+00 0.  1.
         25    2    1    2    0    0 -0.23904141789E+02 -0.16494745124E+01  0.51877220538E+03  0.53417907042E+03  0.12509416228E+03 0.  0.
          5    1    3    3  502    0  0.51542558921E+02  0.15580873374E+01  0.20905429285E+03  0.21536070388E+03  0.41800000000E+01 0. -1.
         -5    1    3    3    0  502 -0.75446700709E+02 -0.32075618498E+01  0.30971791253E+03  0.31881836654E+03  0.41800000000E+01 0. -1.
        -11    1    1    2    0    0  0.34029207723E+02 -0.38978896044E+02  0.84741708135E+02  0.99289971361E+02  0.00000000000E+00 0.  1.
         11    1    1    2    0    0 -0.10125065934E+02  0.40628370557E+02  0.55653078854E+02  0.69645148002E+02  0.00000000000E+00 0. -1.
</event>
<event>
 7    1  0.2810263E-009  0.1335388E+03  0.7561462E-02  0.1222297E+00
         -2   -1    0    0    0  501 -0.00000000000E+00  0.00000000000E+00  0.83598552146E+02  0.83598552146E+02  0.00000000000E+00 0.  1.
          2   -1    0    0  501    0  0.00000000000E+00 -0.00000000000E+00 -0.30003767245E+03  0.30003767245E+03  0.00000000000E+00 0. -1.
         25    2    1    2    0    0  0.10069627166E+03  0.54116783348E+02 -0.13784927269E+03  0.21844764018E+03  0.12509430105E+03 0.  0.
          5    1    3    3  502    0  0.10783317983E+03  0.26017578281E+02 -0.42773331777E+02  0.11896192400E+03  0.41800000000E+01 0.  1.
         -5    1    3    3    0  502 -0.71369081694E+01  0.28099205067E+02 -0.95075940911E+02  0.99485716179E+02  0.41800000000E+01 0.  1.
        -11    1    1    2    0    0 -0.15274460605E+02  0.11455235395E+02  0.13590732030E+02  0.23435860595E+02  0.00000000000E+00 0.  1.
         11    1    1    2    0    0 -0.85421811055E+02 -0.65572018743E+02 -0.92180579651E+02  0.14175272382E+03  0.00000000000E+00 0. -1.
</event>
<event>
 7    1  0.2810263E-009  0.9090779E+02  0.7561462E-02  0.1300668E+00
         -1   -1    0    0    0  501 -0.00000000000E+00  0.00000000000E+00  0.43335905591E+02  0.43335905591E+02  0.00000000000E+00 0.  1.
          1   -1    0    0  501    0  0.00000000000E+00 -0.00000000000E+00 -0.38017137848E+03  0.38017137848E+03  0.00000000000E+00 0. -1.
         25    2    1    2    0    0 -0.23930184136E+02 -0.58587853925E+02 -0.22426332151E+03  0.26447356840E+03  0.12508813160E+03 0.  0.
          5    1    3    3  502    0 -0.20939554073E+02 -0.47832843717E+01  0.99980493615E+01  0.24057807988E+02  0.41800000000E+01 0. -1.
         -5    1    3    3    0  502 -0.29906300631E+01 -0.53804569553E+02 -0.23426137087E+03  0.24041576041E+03  0.41800000000E+01 0. -1.
        -11    1    1    2    0    0  0.43702384520E+02  0.70393136027E+02 -0.62062532441E+02  0.10352221957E+03  0.00000000000E+00 0.  1.
         11    1    1    2    0    0 -0.19772200384E+02 -0.11805282102E+02 -0.50509618943E+02  0.55511496101E+02  0.00000000000E+00 0. -1.
</event>
<event>
 7    1  0.2810263E-009  0.2374658E+03  0.7561462E-02  0.1121493E+00
         -1   -1    0    0    0  501 -0.00000000000E+00  0.00000000000E+00  0.37707157483E+03  0.37707157483E+03  0.00000000000E+00 0.  1.
          1   -1    0    0  501    0  0.00000000000E+00 -0.00000000000E+00 -0.16954403633E+03  0.16954403633E+03  0.00000000000E+00 0. -1.
         25    2    1    2    0    0 -0.13104349784E+03 -0.16765115739E+03  0.19063997675E+03  0.31188153905E+03  0.12508870757E+03 0.  0.
          5    1    3    3  502    0 -0.40720652504E+02  0.10986024406E+02  0.13306517610E+02  0.44422967973E+02  0.41800000000E+01 0.  1.
         -5    1    3    3    0  502 -0.90322845337E+02 -0.17863718179E+03  0.17733345914E+03  0.26745857107E+03  0.41800000000E+01 0.  1.
        -11    1    1    2    0    0 -0.67888036724E+01  0.51899986047E+02  0.16034144059E+02  0.54742946419E+02  0.00000000000E+00 0.  1.
         11    1    1    2    0    0  0.13783230151E+03  0.11575117134E+03  0.85341769264E+00  0.17999112569E+03  0.00000000000E+00 0. -1.
</event>
<event>
 7    1  0.2810263E-009  0.8579447E+02  0.7561462E-02  0.1313368E+00
         -2   -1    0    0    0  501 -0.00000000000E+00  0.00000000000E+00  0.49122929992E+02  0.49122929992E+02  0.00000000000E+00 0.  1.
          2   -1    0    0  501    0  0.00000000000E+00 -0.00000000000E+00 -0.24922734838E+03  0.24922734838E+03  0.00000000000E+00 0. -1.
         25    2    1    2    0    0 -0.12323727712E+02 -0.19027118109E+02 -0.11015191183E+03  0.16821063315E+03  0.12508983945E+03 0.  0.
          5    1    3    3  502    0 -0.28286573136E+02 -0.61282214626E+02 -0.25694279082E+02  0.72341609235E+02  0.41800000000E+01 0.  1.
         -5    1    3    3    0  502  0.15962845423E+02  0.42255096516E+02 -0.84457632752E+02  0.95869023911E+02  0.41800000000E+01 0.  1.
        -11    1    1    2    0    0  0.72275558145E+01 -0.18951229960E+02 -0.89550570745E+02  0.91818796555E+02  0.00000000000E+00 0. -1.
         11    1    1    2    0    0  0.50961718980E+01  0.37978348069E+02 -0.40193580405E+00  0.38320848666E+02  0.00000000000E+00 0.  1.
</event>
<event>
 7    1  0.2810263E-009  0.1037518E+03  0.7561462E-02  0.1272599E+00
         -2   -1    0    0    0  501 -0.00000000000E+00  0.00000000000E+00  0.23169680054E+02  0.23169680054E+02  0.00000000000E+00 0. -1.
          2   -1    0    0  501    0  0.00000000000E+00 -0.00000000000E+00 -0.94080966590E+03  0.94080966590E+03  0.00000000000E+00 0.  1.
         25    2    1    2    0    0  0.39443897802E+02 -0.80837601583E+02 -0.66741683358E+03  0.68496971868E+03  0.12509095435E+03 0.  0.
          5    1    3    3  502    0  0.32225198749E+01  0.14510667203E+02 -0.74309116947E+01  0.17135779691E+02  0.41800000000E+01 0. -1.
         -5    1    3    3    0  502  0.36221377927E+02 -0.95348268785E+02 -0.65998592189E+03  0.66783393899E+03  0.41800000000E+01 0. -1.
        -11    1    1    2    0    0 -0.30046876522E+02  0.59123058166E+02 -0.24624173192E+03  0.25501635503E+03  0.00000000000E+00 0.  1.
         11    1    1    2    0    0 -0.93970212807E+01  0.21714543416E+02 -0.39814203433E+01  0.23993272238E+02  0.00000000000E+00 0. -1.
</event>
<event>
 7    1  0.2810263E-009  0.1479825E+03  0.7561462E-02  0.1202974E+00
         -3   -1    0    0    0  501 -0.00000000000E+00  0.00000000000E+00  0.20946916439E+03  0.20946916439E+03  0.00000000000E+00 0.  1.
          3   -1    0    0  501    0  0.00000000000E+00 -0.00000000000E+00 -0.14334448210E+03  0.14334448210E+03  0.00000000000E+00 0. -1.
         25    2    1    2    0    0 -0.12177286453E+03  0.41105343817E+00  0.94558338666E+02  0.19853552420E+03  0.12508507289E+03 0.  0.
          5    1    3    3  502    0 -0.13240633042E+03 -0.91649452796E+01  0.11332222540E+03  0.17457042054E+03  0.41800000000E+01 0. -1.
         -5    1    3    3    0  502  0.10633465891E+02  0.95759987177E+01 -0.18763886735E+02  0.23965103665E+02  0.41800000000E+01 0. -1.
        -11    1    1    2    0    0  0.99307952072E+02 -0.36462445944E+02 -0.53318408223E+01  0.10592453840E+03  0.00000000000E+00 0.  1.
         11    1    1    2    0    0  0.22464912456E+02  0.36051392506E+02 -0.23101815555E+02  0.48353583892E+02  0.00000000000E+00 0. -1.
</event>
<event>
 7    1  0.2810263E-009  0.2785723E+03  0.7561462E-02  0.1096471E+00
         -2   -1    0    0    0  501 -0.00000000000E+00  0.00000000000E+00  0.14369027843E+03  0.14369027843E+03  0.00000000000E+00 0.  1.
          2   -1    0    0  501    0  0.00000000000E+00 -0.00000000000E+00 -0.67878812144E+03  0.67878812144E+03  0.00000000000E+00 0. -1.
         25    2    1    2    0    0 -0.15673799600E+03 -0.21490792069E+03 -0.42634085700E+03  0.51784705488E+03  0.12508729805E+03 0.  0.
          5    1    3    3  502    0 -0.84006180164E+01  0.37147374247E+01  0.55669716013E+01  0.11525329930E+02  0.41800000000E+01 0. -1.
         -5    1    3    3    0  502 -0.14833737799E+03 -0.21862265811E+03 -0.43190782860E+03  0.50632172495E+03  0.41800000000E+01 0. -1.
        -11    1    1    2    0    0 -0.10496332847E+02  0.37826380246E+02 -0.38902563963E+01  0.39447967509E+02  0.00000000000E+00 0.  1.
         11    1    1    2    0    0  0.16723432885E+03  0.17708154044E+03 -0.10486672962E+03  0.26518337748E+03  0.00000000000E+00 0. -1.
</event>
<event>
 7    1  0.2810263E-009  0.1248467E+03  0.7561462E-02  0.1235309E+00
          2   -1    0    0  501    0  0.00000000000E+00  0.00000000000E+00  0.56232599603E+03  0.56232599603E+03  0.00000000000E+00 0. -1.
         -2   -1    0    0    0  501 -0.00000000000E+00 -0.00000000000E+00 -0.42739731241E+02  0.42739731241E+02  0.00000000000E+00 0.  1.
         25    2    1    2    0    0  0.12477738236E+01  0.10187390220E+03  0.37990741003E+03  0.41274069052E+03  0.12508152750E+03 0.  0.
          5    1    3    3  502    0  0.35378047041E+02  0.10610825239E+03  0.19696197457E+03  0.22654372484E+03  0.41800000000E+01 0.  1.
         -5    1    3    3    0  502 -0.34130273217E+02 -0.42343501867E+01  0.18294543547E+03  0.18619696568E+03  0.41800000000E+01 0.  1.
        -11    1    1    2    0    0  0.59198800858E+01 -0.77176587098E+02  0.35747456016E+02  0.85259317308E+02  0.00000000000E+00 0.  1.
         11    1    1    2    0    0 -0.71676539094E+01 -0.24697315104E+02  0.10393139874E+03  0.10706571944E+03  0.00000000000E+00 0. -1.
</event>
<event>
 7    1  0.2810263E-009  0.6479548E+02  0.7561462E-02  0.1378742E+00
         -1   -1    0    0    0  501 -0.00000000000E+00  0.00000000000E+00  0.13473685347E+03  0.13473685347E+03  0.00000000000E+00 0.  1.
          1   -1    0    0  501    0  0.00000000000E+00 -0.00000000000E+00 -0.86169650492E+02  0.86169650492E+02  0.00000000000E+00 0. -1.
         25    2    1    2    0    0  0.73587496163E+01 -0.89791501095E-01  0.34128666533E+02  0.12986134171E+03  0.12508014604E+03 0.  0.
          5    1    3    3  502    0 -0.17170395419E+02 -0.60096598418E+01  0.77387501268E+02  0.79606760031E+02  0.41800000000E+01 0.  1.
         -5    1    3    3    0  502  0.24529145035E+02  0.59198683407E+01 -0.43258834734E+02  0.50254581680E+02  0.41800000000E+01 0.  1.
        -11    1    1    2    0    0  0.35787345558E+02 -0.16129191990E+02  0.20948168963E+02  0.44493940253E+02  0.00000000000E+00 0.  1.
         11    1    1    2    0    0 -0.43146095174E+02  0.16218983491E+02 -0.65096325155E+01  0.46551222001E+02  0.00000000000E+00 0. -1.
</event>
<event>
 7    1  0.2810263E-009  0.1095291E+03  0.7561462E-02  0.1261444E+00
          2   -1    0    0  501    0  0.00000000000E+00  0.00000000000E+00  0.23534665794E+03  0.23534665794E+03  0.00000000000E+00 0. -1.
         -2   -1    0    0    0  501 -0.00000000000E+00 -0.00000000000E+00 -0.79207964531E+02  0.79207964531E+02  0.00000000000E+00 0.  1.
         25    2    1    2    0    0 -0.74708913436E+02  0.17662086919E+02  0.57567232336E+02  0.15765445039E+03  0.12509024113E+03 0.  0.
          5    1    3    3  502    0 -0.49127321816E+02 -0.21200504992E+02 -0.27724820706E+02  0.60407725035E+02  0.41800000000E+01 0. -1.
         -5    1    3    3    0  502 -0.25581591621E+02  0.38862591911E+02  0.85292053042E+02  0.97246725354E+02  0.41800000000E+01 0. -1.
        -11    1    1    2    0    0 -0.20945895636E+02  0.19277816188E+01  0.49092589557E+01  0.21599715495E+02  0.00000000000E+00 0.  1.
         11    1    1    2    0    0  0.95654809072E+02 -0.19589868538E+02  0.93662202122E+02  0.13530045659E+03  0.00000000000E+00 0. -1.
</event>
<event>
 7    1  0.2810263E-009  0.1212645E+03  0.7561462E-02  0.1241025E+00
          2   -1    0    0  501    0  0.00000000000E+00  0.00000000000E+00  0.31432696645E+03  0.31432696645E+03  0.00000000000E+00 0. -1.
         -2   -1    0    0    0  501 -0.00000000000E+00 -0.00000000000E+00 -0.47375483462E+02  0.47375483462E+02  0.00000000000E+00 0.  1.
         25    2    1    2    0    0 -0.33533482636E+01  0.47325710728E+02  0.14848708419E+03  0.19986767269E+03  0.12509078533E+03 0.  0.
          5    1    3    3  502    0  0.56163326749E+02 -0.16217294915E+01  0.68994857916E+02  0.89077000942E+02  0.41800000000E+01 0. -1.
         -5    1    3    3    0  502 -0.59516675013E+02  0.48947440219E+02  0.79492226275E+02  0.11079067175E+03  0.41800000000E+01 0. -1.
        -11    1    1    2    0    0  0.39647945563E+02  0.10252415411E+02  0.33090149493E+02  0.52650067451E+02  0.00000000000E+00 0.  1.
         11    1    1    2    0    0 -0.36294597300E+02 -0.57578126139E+02  0.85374249303E+02  0.10918470977E+03  0.00000000000E+00 0. -1.
</event>
<event>
 7    1  0.2810263E-009  0.1514768E+03  0.7561462E-02  0.1198670E+00
         -2   -1    0    0    0  501 -0.00000000000E+00  0.00000000000E+00  0.54033307812E+02  0.54033307812E+02  0.00000000000E+00 0.  1.
          2   -1    0    0  501    0  0.00000000000E+00 -0.00000000000E+00 -0.59272761012E+03  0.59272761012E+03  0.00000000000E+00 0. -1.
         25    2    1    2    0    0  0.30106392472E+02 -0.13242611647E+03 -0.20997246735E+03  0.27960469710E+03  0.12508908187E+03 0.  0.
          5    1    3    3  502    0 -0.24839258660E+01 -0.61630855133E+02 -0.18890338284E+03  0.19876240248E+03  0.41800000000E+01 0.  1.
         -5    1    3    3    0  502  0.32590318338E+02 -0.70795261333E+02 -0.21069084513E+02  0.80842294616E+02  0.41800000000E+01 0.  1.
        -11    1    1    2    0    0  0.23889290295E+02  0.93538946951E+02 -0.18092607107E+03  0.20507188004E+03  0.00000000000E+00 0.  1.
         11    1    1    2    0    0 -0.53995682768E+02  0.38887169515E+02 -0.14779576388E+03  0.16208434080E+03  0.00000000000E+00 0. -1.
</event>
<event>
 7    1  0.2810263E-009  0.9759764E+02  0.7561462E-02  0.1285430E+00
         -1   -1    0    0    0  501 -0.00000000000E+00  0.00000000000E+00  0.67051542042E+02  0.67051542042E+02  0.00000000000E+00 0. -1.
          1   -1    0    0  501    0  0.00000000000E+00 -0.00000000000E+00 -0.22734886860E+03  0.22734886860E+03  0.00000000000E+00 0.  1.
         25    2    1    2    0    0 -0.40284533312E+02  0.14450171471E+02 -0.13886262029E+03  0.19173464126E+03  0.12509074412E+03 0.  0.
          5    1    3    3  502    0 -0.95520651829E+01 -0.38460144202E+02  0.90367473879E-01  0.39848528299E+02  0.41800000000E+01 0. -1.
         -5    1    3    3    0  502 -0.30732468129E+02  0.52910315673E+02 -0.13895298776E+03  0.15188611296E+03  0.41800000000E+01 0. -1.
        -11    1    1    2    0    0  0.78039103128E+01 -0.47229489827E+02 -0.28903501255E+02  0.55919031736E+02  0.00000000000E+00 0.  1.
         11    1    1    2    0    0  0.32480622999E+02  0.32779318355E+02  0.74687949840E+01  0.46746737648E+02  0.00000000000E+00 0. -1.
</event>
<event>
 7    1  0.2810263E-009  0.7105708E+02  0.7561462E-02  0.1356535E+00
          2   -1    0    0  501    0  0.00000000000E+00  0.00000000000E+00  0.34688040749E+03  0.34688040749E+03  0.00000000000E+00 0. -1.
         -2   -1    0    0    0  501 -0.00000000000E+00 -0.00000000000E+00 -0.37678679020E+02  0.37678679020E+02  0.00000000000E+00 0.  1.
         25    2    1    2    0    0  0.26118961013E+02 -0.30590786135E+02  0.15697867689E+03  0.20471887386E+03  0.12509802554E+03 0.  0.
          5    1    3    3  502    0  0.32524234397E+02 -0.50190193687E+02  0.15825600198E+02  0.62006478590E+02  0.41800000000E+01 0. -1.
         -5    1    3    3    0  502 -0.64052733837E+01  0.19599407552E+02  0.14115307669E+03  0.14271239527E+03  0.41800000000E+01 0. -1.
        -11    1    1    2    0    0 -0.84298822205E+01 -0.12194451147E+02 -0.52311300467E+01  0.15720441297E+02  0.00000000000E+00 0.  1.
         11    1    1    2    0    0 -0.17689078792E+02  0.42785237282E+02  0.15745418162E+03  0.16411977135E+03  0.00000000000E+00 0. -1.
</event>
<event>
 7    1  0.2810263E-009  0.5315042E+02  0.7561462E-02  0.1429054E+00
         -2   -1    0    0    0  501 -0.00000000000E+00  0.00000000000E+00  0.82038246589E+02  0.82038246589E+02  0.00000000000E+00 0.  1.
          2   -1    0    0  501    0  0.00000000000E+00 -0.00000000000E+00 -0.18877707613E+03  0.18877707613E+03  0.00000000000E+00 0. -1.
         25    2    1    2    0    0  0.24622611014E+01  0.18160631459E+02  0.34955091758E+01  0.12647031168E+03  0.12508656957E+03 0.  0.
          5    1    3    3  502    0 -0.19365384964E+02  0.32617547994E+02  0.55932726099E+02  0.67711629879E+02  0.41800000000E+01 0. -1.
         -5    1    3    3    0  502  0.21827646065E+02 -0.14456916535E+02 -0.52437216923E+02  0.58758681802E+02  0.41800000000E+01 0. -1.
        -11    1    1    2    0    0  0.15333548261E+02 -0.18240752011E+02 -0.12114780776E+03  0.12346916239E+03  0.00000000000E+00 0. -1.
         11    1    1    2    0    0 -0.17795809362E+02  0.80120551533E-01  0.10913469045E+02  0.20875848648E+02  0.00000000000E+00 0.  1.
</event>
<event>
 7    1  0.2810263E-009  0.1283403E+03  0.7561462E-02  0.1229939E+00
         -2   -1    0    0    0  501 -0.00000000000E+00  0.00000000000E+00  0.57170328837E+03  0.57170328837E+03  0.00000000000E+00 0.  1.
          2   -1    0    0  501    0  0.00000000000E+00 -0.00000000000E+00 -0.39931479648E+02  0.39931479648E+02  0.00000000000E+00 0. -1.
         25    2    1    2    0    0  0.61205067579E+02  0.28158627806E+02  0.12746552285E+03  0.19087330261E+03  0.12508472934E+03 0.  0.
          5    1    3    3  502    0 -0.29009783446E+02  0.39763124926E+02  0.59009703517E+02  0.76956423699E+02  0.41800000000E+01 0. -1.
         -5    1    3    3    0  502  0.90214851025E+02 -0.11604497119E+02  0.68455819336E+02  0.11391687891E+03  0.41800000000E+01 0. -1.
        -11    1    1    2    0    0 -0.71203303286E+02  0.14286049984E+02  0.26673866122E+03  0.27644803312E+03  0.00000000000E+00 0. -1.
         11    1    1    2    0    0  0.99982357071E+01 -0.42444677790E+02  0.13756762465E+03  0.14431343230E+03  0.00000000000E+00 0.  1.
</event>
<event>
 7    1  0.2810263E-009  0.2129471E+03  0.7561462E-02  0.1139253E+00
          2   -1    0    0  501    0  0.00000000000E+00  0.00000000000E+00  0.11597978072E+04  0.11597978072E+04  0.00000000000E+00 0. -1.
         -2   -1    0    0    0  501 -0.00000000000E+00 -0.00000000000E+00 -0.42697153907E+02  0.42697153907E+02  0.00000000000E+00 0.  1.
         25    2    1    2    0    0 -0.16058852640E+03  0.99951096279E+02  0.69466416915E+03  0.73074147215E+03  0.12508355114E+03 0.  0.
          5    1    3    3  502    0 -0.38054618698E+02 -0.29047431123E+02  0.17328220635E+03  0.17982241989E+03  0.41800000000E+01 0. -1.
         -5    1    3    3    0  502 -0.12253390771E+03  0.12899852740E+03  0.52138196280E+03  0.55091905226E+03  0.41800000000E+01 0. -1.
        -11    1    1    2    0    0  0.92022756396E+02 -0.19322563380E+02  0.12766008101E+03  0.15855171217E+03  0.00000000000E+00 0.  1.
         11    1    1    2    0    0  0.68565770008E+02 -0.80628532898E+02  0.29477640316E+03  0.31320177681E+03  0.00000000000E+00 0. -1.
</event>
<event>
 7    1  0.2810263E-009  0.2055331E+03  0.7561462E-02  0.1145153E+00
          1   -1    0    0  501    0  0.00000000000E+00  0.00000000000E+00  0.20966969068E+04  0.20966969068E+04  0.00000000000E+00 0. -1.
         -1   -1    0    0    0  501 -0.00000000000E+00 -0.00000000000E+00 -0.38310445590E+02  0.38310445590E+02  0.00000000000E+00 0.  1.
         25    2    1    2    0    0 -0.17976785791E+03 -0.58738730110E+02  0.17329077842E+04  0.17476796209E+04  0.12509175588E+03 0.  0.
          5    1    3    3  502    0 -0.36768667469E+02 -0.61047007242E+02  0.33820533412E+03  0.34565733382E+03  0.41800000000E+01 0.  1.
         -5    1    3    3    0  502 -0.14299919044E+03  0.23082771327E+01  0.13947024501E+04  0.14020222870E+04  0.41800000000E+01 0.  1.
        -11    1    1    2    0    0  0.12063720139E+03  0.12008754712E+02  0.26238069832E+03  0.28903490343E+03  0.00000000000E+00 0. -1.
         11    1    1    2    0    0  0.59130656522E+02  0.46729975397E+02  0.63097978618E+02  0.98292828054E+02  0.00000000000E+00 0.  1.
</event>
<event>
 7    1  0.2810263E-009  0.3107765E+03  0.7561462E-02  0.1079974E+00
         -2   -1    0    0    0  501 -0.00000000000E+00  0.00000000000E+00  0.95741191335E+02  0.95741191335E+02  0.00000000000E+00 0.  1.
          2   -1    0    0  501    0  0.00000000000E+00 -0.00000000000E+00 -0.10395346254E+04  0.10395346254E+04  0.00000000000E+00 0. -1.
         25    2    1    2    0    0 -0.29389831624E+03  0.10972731199E+02 -0.42759283821E+03  0.53383515771E+03  0.12509084379E+03 0.  0.
          5    1    3    3  502    0 -0.12505916670E+03 -0.57029255030E+02 -0.18702803908E+03  0.23214023974E+03  0.41800000000E+01 0. -1.
         -5    1    3    3    0  502 -0.16883914954E+03  0.68001986229E+02 -0.24056479914E+03  0.30169491798E+03  0.41800000000E+01 0. -1.
        -11    1    1    2    0    0  0.12487590634E+03  0.29196860075E+02 -0.15933709742E+03  0.20453547183E+03  0.00000000000E+00 0.  1.
         11    1    1    2    0    0  0.16902240990E+03 -0.40169591274E+02 -0.35686349848E+03  0.39690518724E+03  0.00000000000E+00 0. -1.
</event>
<event>
 7    1  0.2810263E-009  0.1043378E+03  0.7561462E-02  0.1271430E+00
         -1   -1    0    0    0  501 -0.00000000000E+00  0.00000000000E+00  0.98485380299E+02  0.98485380299E+02  0.00000000000E+00 0.  1.
          1   -1    0    0  501    0  0.00000000000E+00 -0.00000000000E+00 -0.15794973021E+03  0.15794973021E+03  0.00000000000E+00 0. -1.
         25    2    1    2    0    0 -0.15360424224E+02  0.55481680801E+02 -0.55402322337E+02  0.14843175932E+03  0.12509360622E+03 0.  0.
          5    1    3    3  502    0 -0.53004677041E+02 -0.16964797686E+02 -0.19149727607E+02  0.59004106774E+02  0.41800000000E+01 0. -1.
         -5    1    3    3    0  502  0.37644252817E+02  0.72446478487E+02 -0.36252594731E+02  0.89427652547E+02  0.41800000000E+01 0. -1.
        -11    1    1    2    0    0  0.27120812982E+02 -0.19893841349E+02 -0.42578155529E+02  0.54260508186E+02  0.00000000000E+00 0. -1.
         11    1    1    2    0    0 -0.11760388757E+02 -0.35587839452E+02  0.38516127959E+02  0.53742842998E+02  0.00000000000E+00 0.  1.
</event>
<event>
 7    1  0.2810263E-009  0.1970846E+03  0.7561462E-02  0.1152222E+00
         -2   -1    0    0    0  501 -0.00000000000E+00  0.00000000000E+00  0.31507476175E+03  0.31507476175E+03  0.00000000000E+00 0.  1.
          2   -1    0    0  501    0  0.00000000000E+00 -0.00000000000E+00 -0.13247746165E+03  0.13247746165E+03  0.00000000000E+00 0. -1.
         25    2    1    2    0    0 -0.65622044066E+02 -0.16176112384E+03  0.78259062137E+02  0.22857292686E+03  0.12509271855E+03 0.  0.
          5    1    3    3  502    0 -0.10055010466E+03 -0.11973926121E+03  0.39126669726E+02  0.16123331822E+03  0.41800000000E+01 0. -1.
         -5    1    3    3    0  502  0.34928060590E+02 -0.42021862632E+02  0.39132392411E+02  0.67339608638E+02  0.41800000000E+01 0. -1.
        -11    1    1    2    0    0  0.73603650652E+02  0.12268464255E+03  0.49958448574E+02  0.15154162956E+03  0.00000000000E+00 0. -1.
         11    1    1    2    0    0 -0.79816065864E+01  0.39076481293E+02  0.54379789386E+02  0.67437666979E+02  0.00000000000E+00 0.  1.
</event>
<event>
 7    1  0.2810263E-009  0.2306569E+03  0.7561462E-02  0.1126178E+00
          2   -1    0    0  501    0  0.00000000000E+00  0.00000000000E+00  0.17088574894E+03  0.17088574894E+03  0.00000000000E+00 0. -1.
         -2   -1    0    0    0  501 -0.00000000000E+00 -0.00000000000E+00 -0.34308710716E+03  0.34308710716E+03  0.00000000000E+00 0.  1.
         25    2    1    2    0    0  0.20160871194E+03 -0.41605660373E+02 -0.16185332092E+03  0.29020582352E+03  0.12508324751E+03 0.  0.
          5    1    3    3  502    0  0.13184289079E+03 -0.84397437793E+02 -0.86616650770E+02  0.17895639678E+03  0.41800000000E+01 0.  1.
         -5    1    3    3    0  502  0.69765821156E+02  0.42791777420E+02 -0.75236670152E+02  0.11124942675E+03  0.41800000000E+01 0.  1.
        -11    1    1    2    0    0 -0.97045640516E+02  0.63446723992E+02  0.38406931586E+01  0.11600902574E+03  0.00000000000E+00 0.  1.
         11    1    1    2    0    0 -0.10456307143E+03 -0.21841063618E+02 -0.14188730463E+02  0.10775800684E+03  0.00000000000E+00 0. -1.
</event>
<event>
 7    1  0.2810263E-009  0.1459295E+03  0.7561462E-02  0.1205566E+00
         -1   -1    0    0    0  501 -0.00000000000E+00  0.00000000000E+00  0.18383599005E+03  0.18383599005E+03  0.00000000000E+00 0.  1.
          1   -1    0    0  501    0  0.00000000000E+00 -0.00000000000E+00 -0.13578362142E+03  0.13578362142E+03  0.00000000000E+00 0. -1.
         25    2    1    2    0    0 -0.91120295352E+02 -0.34729431100E+02 -0.34888945255E+02  0.16239649789E+03  0.12508534053E+03 0.  0.
          5    1    3    3  502    0 -0.61905379001E+02  0.42775566103E+02 -0.21667832615E+02  0.78415511061E+02  0.41800000000E+01 0.  1.
         -5    1    3    3    0  502 -0.29214916351E+02 -0.77504997203E+02 -0.13221112640E+02  0.83980986826E+02  0.41800000000E+01 0.  1.
        -11    1    1    2    0    0  0.78616702602E+02 -0.16923815511E+02  0.49409416805E+02  0.94383748222E+02  0.00000000000E+00 0.  1.
         11    1    1    2    0    0  0.12503592751E+02  0.51653246611E+02  0.33531897082E+02  0.62839365362E+02  0.00000000000E+00 0. -1.
</event>
<event>
 7    1  0.2810263E-009  0.8540799E+02  0.7561462E-02  0.1314369E+00
         -1   -1    0    0    0  501 -0.00000000000E+00  0.00000000000E+00  0.26282822738E+02  0.26282822738E+02  0.00000000000E+00 0.  1.
          1   -1    0    0  501    0  0.00000000000E+00 -0.00000000000E+00 -0.63002102241E+03  0.63002102241E+03  0.00000000000E+00 0. -1.
         25    2    1    2    0    0 -0.63221167730E+02 -0.52028875165E+01 -0.26253310086E+03  0.29764733397E+03  0.12508525205E+03 0.  0.
          5    1    3    3  502    0 -0.70539485985E+02  0.77217766119E+00 -0.54202282736E+02  0.89060514232E+02  0.41800000000E+01 0.  1.
         -5    1    3    3    0  502  0.73183182553E+01 -0.59750651777E+01 -0.20833081813E+03  0.20858681974E+03  0.41800000000E+01 0.  1.
        -11    1    1    2    0    0  0.39890279472E+02  0.34238895677E+02 -0.29330272712E+03  0.29797655296E+03  0.00000000000E+00 0. -1.
         11    1    1    2    0    0  0.23330888258E+02 -0.29036008161E+02 -0.47902371679E+02  0.60679958217E+02  0.00000000000E+00 0.  1.
</event>
<event>
 7    1  0.2810263E-009  0.1603955E+03  0.7561462E-02  0.1188251E+00
         -1   -1    0    0    0  501 -0.00000000000E+00  0.00000000000E+00  0.14832571953E+03  0.14832571953E+03  0.00000000000E+00 0.  1.
          1   -1    0    0  501    0  0.00000000000E+00 -0.00000000000E+00 -0.32290053308E+03  0.32290053308E+03  0.00000000000E+00 0. -1.
         25    2    1    2    0    0  0.21211789363E+02 -0.12001590538E+03  0.66465867674E+02  0.18686475269E+03  0.12508783586E+03 0.  0.
          5    1    3    3  502    0 -0.39925740698E+02 -0.10120402317E+03  0.54118424527E+02  0.12158369689E+03  0.41800000000E+01 0. -1.
         -5    1    3    3    0  502  0.61137530061E+02 -0.18811882213E+02  0.12347443148E+02  0.65281055802E+02  0.41800000000E+01 0. -1.
        -11    1    1    2    0    0 -0.53533635947E+02  0.67557670694E+02 -0.16784148292E+03  0.18868135158E+03  0.00000000000E+00 0. -1.
         11    1    1    2    0    0  0.32321846584E+02  0.52458234687E+02 -0.73199198300E+02  0.95680148332E+02  0.00000000000E+00 0.  1.
</event>
<event>
 7    1  0.2810263E-009  0.1116930E+03  0.7561462E-02  0.1257467E+00
         -1   -1    0    0    0  501 -0.00000000000E+00  0.00000000000E+00  0.11740954870E+03  0.11740954870E+03  0.00000000000E+00 0.  1.
          1   -1    0    0  501    0  0.00000000000E+00 -0.00000000000E+00 -0.15401836215E+03  0.15401836215E+03  0.00000000000E+00 0. -1.
         25    2    1    2    0    0 -0.43783126980E+02 -0.45047578315E+02 -0.65936588244E+02  0.15472817689E+03  0.12508768339E+03 0.  0.
          5    1    3    3  502    0  0.28993958964E+02  0.33451904187E+01 -0.60212266224E+02  0.67043488567E+02  0.41800000000E+01 0. -1.
         -5    1    3    3    0  502 -0.72777085944E+02 -0.48392768734E+02 -0.57243220202E+01  0.87684688326E+02  0.41800000000E+01 0. -1.
        -11    1    1    2    0    0  0.16444954113E+02 -0.25726604429E+02  0.27054335127E+02  0.40794996512E+02  0.00000000000E+00 0. -1.
         11    1    1    2    0    0  0.27338172867E+02  0.70774182744E+02  0.22734396697E+01  0.75904737446E+02  0.00000000000E+00 0.  1.
</event>
<event>
 7    1  0.2810263E-009  0.9843983E+02  0.7561462E-02  0.1283611E+00
         -1   -1    0    0    0  501 -0.00000000000E+00  0.00000000000E+00  0.16322963982E+03  0.16322963982E+03  0.00000000000E+00 0.  1.
          1   -1    0    0  501    0  0.00000000000E+00 -0.00000000000E+00 -0.98917306711E+02  0.98917306711E+02  0.00000000000E+00 0. -1.
         25    2    1    2    0    0 -0.45371464715E+02 -0.37784711544E+02  0.61016351548E+01  0.13844851517E+03  0.12507800432E+03 0.  0.
          5    1    3    3  502    0 -0.80585915252E+02  0.43202095265E+01 -0.91498520694E+01  0.81326171312E+02  0.41800000000E+01 0. -1.
         -5    1    3    3    0  502  0.35214450537E+02 -0.42104921070E+02  0.15251487224E+02  0.57122343855E+02  0.41800000000E+01 0. -1.
        -11    1    1    2    0    0  0.12163252890E+02  0.19848045368E+02 -0.23878840600E+02  0.33347993256E+02  0.00000000000E+00 0. -1.
         11    1    1    2    0    0  0.33208211825E+02  0.17936666175E+02  0.82089538553E+02  0.90350438106E+02  0.00000000000E+00 0.  1.
</event>
<event>
 7    1  0.2810263E-009  0.1985104E+03  0.7561462E-02  0.1151002E+00
         -1   -1    0    0    0  501 -0.00000000000E+00  0.00000000000E+00  0.55027209861E+02  0.55027209861E+02  0.00000000000E+00 0.  1.
          1   -1    0    0  501    0  0.00000000000E+00 -0.00000000000E+00 -0.10506474858E+04  0.10506474858E+04  0.00000000000E+00 0. -1.
         25    2    1    2    0    0  0.10033508165E+02 -0.17613549459E+03 -0.23407782058E+03  0.31869120563E+03  0.12508906715E+03 0.  0.
          5    1    3    3  502    0  0.77274342826E+00 -0.18669453422E+03 -0.23893483989E+03  0.30325365019E+03  0.41800000000E+01 0.  1.
         -5    1    3    3    0  502  0.92607647363E+01  0.10559039634E+02  0.48570193077E+01  0.15437555443E+02  0.41800000000E+01 0.  1.
        -11    1    1    2    0    0  0.27060591497E+02  0.14407790643E+03 -0.62321488973E+03  0.64022458365E+03  0.00000000000E+00 0.  1.
         11    1    1    2    0    0 -0.37094099661E+02  0.32057588162E+02 -0.13832756565E+03  0.14675890640E+03  0.00000000000E+00 0. -1.
</event>
<event>
 7    1  0.2810263E-009  0.1258909E+03  0.7561462E-02  0.1233684E+00
         -2   -1    0    0    0  501 -0.00000000000E+00  0.00000000000E+00  0.52892068250E+02  0.52892068250E+02  0.00000000000E+00 0.  1.
          2   -1    0    0  501    0  0.00000000000E+00 -0.00000000000E+00 -0.42138973413E+03  0.42138973413E+03  0.00000000000E+00 0. -1.
         25    2    1    2    0    0  0.36451482147E+02  0.74959600784E+02 -0.10765851597E+03  0.18489177770E+03  0.12508781356E+03 0.  0.
          5    1    3    3  502    0  0.34367721873E+01 -0.30285949712E+02 -0.54022978908E+02  0.62169162798E+02  0.41800000000E+01 0. -1.
         -5    1    3    3    0  502  0.33014709960E+02  0.10524555050E+03 -0.53635537065E+02  0.12272261491E+03  0.41800000000E+01 0. -1.
        -11    1    1    2    0    0 -0.30935344190E+02  0.42564505562E+01 -0.23391599917E+02  0.39016404732E+02  0.00000000000E+00 0.  1.
         11    1    1    2    0    0 -0.55161379572E+01 -0.79216051340E+02 -0.23744754999E+03  0.25037361995E+03  0.00000000000E+00 0. -1.
</event>
<event>
 7    1  0.2810263E-009  0.2056260E+03  0.7561462E-02  0.1145077E+00
         -2   -1    0    0    0  501 -0.00000000000E+00  0.00000000000E+00  0.32411704000E+03  0.32411704000E+03  0.00000000000E+00 0.  1.
          2   -1    0    0  501    0  0.00000000000E+00 -0.00000000000E+00 -0.14453171217E+03  0.14453171217E+03  0.00000000000E+00 0. -1.
         25    2    1    2    0    0  0.17901780686E+03 -0.90245480451E+01  0.15025477739E+03  0.26523675848E+03  0.12508086297E+03 0.  0.
          5    1    3    3  502    0  0.23021889709E+02 -0.50312402003E+02  0.24705685845E+02  0.60738690422E+02  0.41800000000E+01 0.  1.
         -5    1    3    3    0  502  0.15599591715E+03  0.41287853958E+02  0.12554909155E+03  0.20449806806E+03  0.41800000000E+01 0.  1.
        -11    1    1    2    0    0 -0.59721768362E+02  0.39013870820E+02  0.36624741258E+02  0.80188174969E+02  0.00000000000E+00 0.  1.
         11    1    1    2    0    0 -0.11929603849E+03 -0.29989322775E+02 -0.72941908240E+01  0.12322381872E+03  0.00000000000E+00 0. -1.
</event>
<event>
 7    1  0.2810263E-009  0.9035056E+02  0.7561462E-02  0.1302005E+00
         -4   -1    0    0    0  501 -0.00000000000E+00  0.00000000000E+00  0.61662087132E+02  0.61662087132E+02  0.00000000000E+00 0.  1.
          4   -1    0    0  501    0  0.00000000000E+00 -0.00000000000E+00 -0.24085174041E+03  0.24085174041E+03  0.00000000000E+00 0. -1.
         25    2    1    2    0    0 -0.52557223034E+02 -0.20396971670E+01 -0.91981958069E+02  0.16392186813E+03  0.12507308336E+03 0.  0.
          5    1    3    3  502    0 -0.10656744514E+02  0.22008065177E+02  0.26259013666E+02  0.36123805658E+02  0.41800000000E+01 0.  1.
         -5    1    3    3    0  502 -0.41900478520E+02 -0.24047762344E+02 -0.11824097174E+03  0.12779806247E+03  0.41800000000E+01 0.  1.
        -11    1    1    2    0    0  0.12441693394E+02 -0.44356604153E+02 -0.42663999708E+02  0.62789497033E+02  0.00000000000E+00 0.  1.
         11    1    1    2    0    0  0.40115529641E+02  0.46396301320E+02 -0.44543695501E+02  0.75802462384E+02  0.00000000000E+00 0. -1.
</event>
<event>
 7    1  0.2810263E-009  0.8774941E+02  0.7561462E-02  0.1308395E+00
         -4   -1    0    0    0  501 -0.00000000000E+00  0.00000000000E+00  0.10375925910E+04  0.10375925910E+04  0.00000000000E+00 0.  1.
          4   -1    0    0  501    0  0.00000000000E+00 -0.00000000000E+00 -0.12029580076E+02  0.12029580076E+02  0.00000000000E+00 0. -1.
         25    2    1    2    0    0 -0.16215658973E+02  0.24051761640E+02  0.70229703916E+03  0.71393989194E+03  0.12509038033E+03 0.  0.
          5    1    3    3  502    0 -0.47708502085E+02  0.23179235141E+01  0.63181788559E+03  0.63363458467E+03  0.41800000000E+01 0.  1.
         -5    1    3    3    0  502  0.31492843112E+02  0.21733838126E+02  0.70479153576E+02  0.80305307270E+02  0.41800000000E+01 0.  1.
        -11    1    1    2    0    0 -0.34744425365E+02 -0.11181451170E+02  0.16225433498E+03  0.16630895696E+03  0.00000000000E+00 0. -1.
         11    1    1    2    0    0  0.50960084339E+02 -0.12870310470E+02  0.16101163677E+03  0.16937332217E+03  0.00000000000E+00 0.  1.
</event>
<event>
 7    1  0.2810263E-009  0.1536704E+03  0.7561462E-02  0.1196034E+00
          1   -1    0    0  501    0  0.00000000000E+00  0.00000000000E+00  0.34046546411E+03  0.34046546411E+03  0.00000000000E+00 0. -1.
         -1   -1    0    0    0  501 -0.00000000000E+00 -0.00000000000E+00 -0.97778466491E+02  0.97778466491E+02  0.00000000000E+00 0.  1.
         25    2    1    2    0    0 -0.63890156746E+02  0.11658671563E+03  0.20517147208E+03  0.27462241122E+03  0.12509085257E+03 0.  0.
          5    1    3    3  502    0  0.54364326035E+01 -0.47002514208E+01 -0.13053995131E+02  0.15476638904E+02  0.41800000000E+01 0. -1.
         -5    1    3    3    0  502 -0.69326589349E+02  0.12128696705E+03  0.21822546722E+03  0.25914577231E+03  0.41800000000E+01 0. -1.
        -11    1    1    2    0    0 -0.21947409939E+02 -0.31564667040E+02  0.91872530745E+01  0.39527492046E+02  0.00000000000E+00 0. -1.
         11    1    1    2    0    0  0.85837566685E+02 -0.85022048586E+02  0.28328272458E+02  0.12409402734E+03  0.00000000000E+00 0.  1.
</event>
<event>
 7    1  0.2810263E-009  0.7383204E+02  0.7561462E-02  0.1347526E+00
         -3   -1    0    0    0  501 -0.00000000000E+00  0.00000000000E+00  0.22301138413E+03  0.22301138413E+03  0.00000000000E+00 0.  1.
          3   -1    0    0  501    0  0.00000000000E+00 -0.00000000000E+00 -0.63137659214E+02  0.63137659214E+02  0.00000000000E+00 0. -1.
         25    2    1    2    0    0 -0.28906746635E+02  0.25399436522E+02  0.12628780044E+03  0.18186940787E+03  0.12508853506E+03 0.  0.
          5    1    3    3  502    0 -0.31367715690E+02  0.51216726544E+02  0.80398878080E+01  0.60738775600E+02  0.41800000000E+01 0.  1.
         -5    1    3    3    0  502  0.24609690549E+01 -0.25817290022E+02  0.11824791263E+03  0.12113063227E+03  0.41800000000E+01 0.  1.
        -11    1    1    2    0    0 -0.90089966978E+01 -0.21210326083E+02  0.55635406947E+02  0.60219087175E+02  0.00000000000E+00 0.  1.
         11    1    1    2    0    0  0.37915743333E+02 -0.41891104390E+01 -0.22049482472E+02  0.44060548295E+02  0.00000000000E+00 0. -1.
</event>
<event>
 7    1  0.2810263E-009  0.1271556E+03  0.7561462E-02  0.1231738E+00
         -2   -1    0    0    0  501 -0.00000000000E+00  0.00000000000E+00  0.36024935822E+02  0.36024935822E+02  0.00000000000E+00 0.  1.
          2   -1    0    0  501    0  0.00000000000E+00 -0.00000000000E+00 -0.47989272663E+03  0.47989272663E+03  0.00000000000E+00 0. -1.
         25    2    1    2    0    0 -0.40470884731E+02  0.55834950431E+02 -0.22109581437E+03  0.26322338590E+03  0.12509099708E+03 0.  0.
          5    1    3    3  502    0  0.40122213146E+02  0.35181909686E+02 -0.51523354157E+02  0.74294597249E+02  0.41800000000E+01 0.  1.
         -5    1    3    3    0  502 -0.80593097878E+02  0.20653040745E+02 -0.16957246021E+03  0.18892878865E+03  0.41800000000E+01 0.  1.
        -11    1    1    2    0    0  0.47539968265E+02 -0.79585194863E+02 -0.19180777724E+03  0.21303538493E+03  0.00000000000E+00 0.  1.
         11    1    1    2    0    0 -0.70690835341E+01  0.23750244433E+02 -0.30964199207E+02  0.39658891628E+02  0.00000000000E+00 0. -1.
</event>
<event>
 7    1  0.2810263E-009  0.1385103E+03  0.7561462E-02  0.1215348E+00
          1   -1    0    0  501    0  0.00000000000E+00  0.00000000000E+00  0.63601939496E+02  0.63601939496E+02  0.00000000000E+00 0. -1.
         -1   -1    0    0    0  501 -0.00000000000E+00 -0.00000000000E+00 -0.39655889437E+03  0.39655889437E+03  0.00000000000E+00 0.  1.
         25    2    1    2    0    0  0.75994419694E+02  0.68228752683E+02 -0.98448290991E+02  0.18912929779E+03  0.12509001065E+03 0.  0.
          5    1    3    3  502    0 -0.28217225323E+02  0.47084524174E+02 -0.32233887160E+02  0.63793887662E+02  0.41800000000E+01 0.  1.
         -5    1    3    3    0  502  0.10421164502E+03  0.21144228510E+02 -0.66214403831E+02  0.12533541012E+03  0.41800000000E+01 0.  1.
        -11    1    1    2    0    0 -0.54470218374E+02 -0.75264552487E+02 -0.10778395726E+03  0.14229946941E+03  0.00000000000E+00 0. -1.
         11    1    1    2    0    0 -0.21524201320E+02  0.70357998042E+01 -0.12672470662E+03  0.12873206667E+03  0.00000000000E+00 0.  1.
</event>
<event>
 7    1  0.2810263E-009  0.1022777E+03  0.7561462E-02  0.1275578E+00
         -2   -1    0    0    0  501 -0.00000000000E+00  0.00000000000E+00  0.31209789955E+02  0.31209789955E+02  0.00000000000E+00 0.  1.
          2   -1    0    0  501    0  0.00000000000E+00 -0.00000000000E+00 -0.39921326006E+03  0.39921326006E+03  0.00000000000E+00 0. -1.
         25    2    1    2    0    0 -0.15962251982E+02 -0.25222312364E+02 -0.22278019588E+03  0.25723335000E+03  0.12508805758E+03 0.  0.
          5    1    3    3  502    0  0.40334525540E+02  0.22918773400E+02 -0.45767588409E+02  0.65301521219E+02  0.41800000000E+01 0.  1.
         -5    1    3    3    0  502 -0.56296777522E+02 -0.48141085764E+02 -0.17701260747E+03  0.19193182878E+03  0.41800000000E+01 0.  1.
        -11    1    1    2    0    0 -0.23049026373E+02  0.36506973938E+02 -0.34536837286E+02  0.55288424581E+02  0.00000000000E+00 0.  1.
         11    1    1    2    0    0  0.39011278355E+02 -0.11284661574E+02 -0.11068643694E+03  0.11790127543E+03  0.00000000000E+00 0. -1.
</event>
<event>
 7    1  0.2810263E-009  0.1055650E+03  0.7561462E-02  0.1269010E+00
         -2   -1    0    0    0  501 -0.00000000000E+00  0.00000000000E+00  0.11036787848E+04  0.11036787848E+04  0.00000000000E+00 0.  1.
          2   -1    0    0  501    0  0.00000000000E+00 -0.00000000000E+00 -0.14293418242E+02  0.14293418242E+02  0.00000000000E+00 0. -1.
         25    2    1    2    0    0 -0.57203890119E+02 -0.17825123839E+02  0.62687600420E+03  0.64203527763E+03  0.12508298444E+03 0.  0.
          5    1    3    3  502    0 -0.54140371935E+02 -0.47661262244E+02  0.58959188853E+03  0.59400239327E+03  0.41800000000E+01 0.  1.
         -5    1    3    3    0  502 -0.30635181838E+01  0.29836138405E+02  0.37284115672E+02  0.48032884361E+02  0.41800000000E+01 0.  1.
        -11    1    1    2    0    0 -0.11938868060E+02 -0.24691923274E+02  0.71244869622E+02  0.76341725766E+02  0.00000000000E+00 0. -1.
         11    1    1    2    0    0  0.69142758179E+02  0.42517047113E+02  0.39126449274E+03  0.39959519965E+03  0.00000000000E+00 0.  1.
</event>
<event>
 7    1  0.2810263E-009  0.9512155E+02  0.7561462E-02  0.1290903E+00
          2   -1    0    0  501    0  0.00000000000E+00  0.00000000000E+00  0.36670870425E+03  0.36670870425E+03  0.00000000000E+00 0. -1.
         -2   -1    0    0    0  501 -0.00000000000E+00 -0.00000000000E+00 -0.99142498567E+02  0.99142498567E+02  0.00000000000E+00 0.  1.
         25    2    1    2    0    0 -0.21801718369E+02  0.65380264331E+02  0.31257308711E+03  0.34365591012E+03  0.12509019099E+03 0.  0.
          5    1    3    3  502    0  0.34359196949E+02  0.10406794975E+02  0.21634831423E+03  0.21934657797E+03  0.41800000000E+01 0.  1.
         -5    1    3    3    0  502 -0.56160915318E+02  0.54973469356E+02  0.96224772884E+02  0.12430933215E+03  0.41800000000E+01 0.  1.
        -11    1    1    2    0    0  0.84789511530E+01 -0.60685122893E+02  0.12876711823E+02  0.62612989551E+02  0.00000000000E+00 0. -1.
         11    1    1    2    0    0  0.13322767216E+02 -0.46951414382E+01 -0.57883593259E+02  0.59582303145E+02  0.00000000000E+00 0.  1.
</event>
<event>
 7    1  0.2810263E-009  0.1159093E+03  0.7561462E-02  0.1250002E+00
          2   -1    0    0  501    0  0.00000000000E+00  0.00000000000E+00  0.50467637281E+03  0.50467637281E+03  0.00000000000E+00 0.  1.
         -2   -1    0    0    0  501 -0.00000000000E+00 -0.00000000000E+00 -0.33897197185E+02  0.33897197185E+02  0.00000000000E+00 0. -1.
         25    2    1    2    0    0 -0.11269832346E+02  0.18821806599E+02  0.35917927924E+03  0.38097061739E+03  0.12509031597E+03 0.  0.
          5    1    3    3  502    0 -0.50447833412E+02 -0.30511781122E+02  0.22572785279E+03  0.23333771364E+03  0.41800000000E+01 0. -1.
         -5    1    3    3    0  502  0.39178001066E+02  0.49333587721E+02  0.13345142646E+03  0.14763290374E+03  0.41800000000E+01 0. -1.
        -11    1    1    2    0    0  0.17333484197E+02 -0.62817759993E+02  0.52538769396E+02  0.83706887020E+02  0.00000000000E+00 0.  1.
         11    1    1    2    0    0 -0.60636518509E+01  0.43995953393E+02  0.59061126982E+02  0.73896065586E+02  0.00000000000E+00 0. -1.
</event>
<event>
 7    1  0.2810263E-009  0.1260409E+03  0.7561462E-02  0.1233451E+00
          2   -1    0    0  501    0  0.00000000000E+00  0.00000000000E+00  0.36411387506E+03  0.36411387506E+03  0.00000000000E+00 0.  1.
         -2   -1    0    0    0  501 -0.00000000000E+00 -0.00000000000E+00 -0.92267468402E+02  0.92267468402E+02  0.00000000000E+00 0. -1.
         25    2    1    2    0    0 -0.70646466889E+02  0.54774004559E+02 -0.23494723297E+01  0.15377104454E+03  0.12509556051E+03 0.  0.
          5    1    3    3  502    0 -0.55654641035E+02  0.95044965218E+02  0.30412928662E+01  0.11026198957E+03  0.41800000000E+01 0.  1.
         -5    1    3    3    0  502 -0.14991825854E+02 -0.40270960659E+02 -0.53907651958E+01  0.43509054969E+02  0.41800000000E+01 0.  1.
        -11    1    1    2    0    0  0.55203271615E+02 -0.60789665222E+02  0.27399558599E+03  0.28603560222E+03  0.00000000000E+00 0.  1.
         11    1    1    2    0    0  0.15443195274E+02  0.60156606633E+01  0.20029299709E+00  0.16574696702E+02  0.00000000000E+00 0. -1.
</event>
<event>
 7    1  0.2810263E-009  0.1667807E+03  0.7561462E-02  0.1181247E+00
          2   -1    0    0  501    0  0.00000000000E+00  0.00000000000E+00  0.47650024056E+03  0.47650024056E+03  0.00000000000E+00 0. -1.
         -2   -1    0    0    0  501 -0.00000000000E+00 -0.00000000000E+00 -0.12710507118E+03  0.12710507118E+03  0.00000000000E+00 0.  1.
         25    2    1    2    0    0 -0.76358883041E+02 -0.12514024117E+03  0.37915657637E+03  0.42532256688E+03  0.12509523378E+03 0.  0.
          5    1    3    3  502    0  0.18713998322E+02 -0.13809577537E+02  0.15997193230E+03  0.16170779106E+03  0.41800000000E+01 0. -1.
         -5    1    3    3    0  502 -0.95072881363E+02 -0.11133066363E+03  0.21918464407E+03  0.26361477582E+03  0.41800000000E+01 0. -1.
        -11    1    1    2    0    0  0.14994123204E+02 -0.79083533928E+01 -0.26828362012E+02  0.31735261025E+02  0.00000000000E+00 0.  1.
         11    1    1    2    0    0  0.61364759836E+02  0.13304859456E+03 -0.29330449842E+01  0.14654748383E+03  0.00000000000E+00 0. -1.
</event>
<event>
 7    1  0.2810263E-009  0.6263829E+02  0.7561462E-02  0.1387082E+00
         -1   -1    0    0    0  501 -0.00000000000E+00  0.00000000000E+00  0.32949197747E+02  0.32949197747E+02  0.00000000000E+00 0.  1.
          1   -1    0    0  501    0  0.00000000000E+00 -0.00000000000E+00 -0.39632730846E+03  0.39632730846E+03  0.00000000000E+00 0. -1.
         25    2    1    2    0    0  0.18501563346E+02 -0.84167156987E+00 -0.26704885697E+03  0.29547428074E+03  0.12508773846E+03 0.  0.
          5    1    3    3  502    0 -0.56833055423E+01 -0.32376808285E+01  0.12568104711E+02  0.14772007144E+02  0.41800000000E+01 0. -1.
         -5    1    3    3    0  502  0.24184868889E+02  0.23960092586E+01 -0.27961696168E+03  0.28070227359E+03  0.41800000000E+01 0. -1.
        -11    1    1    2    0    0 -0.53419039902E+02  0.14513307277E+02 -0.56468370905E+02  0.79075323742E+02  0.00000000000E+00 0. -1.
         11    1    1    2    0    0  0.34917476556E+02 -0.13671635707E+02 -0.39860882846E+02  0.54726901732E+02  0.00000000000E+00 0.  1.
</event>
<event>
 7    1  0.2810263E-009  0.9461379E+02  0.7561462E-02  0.1292048E+00
         -1   -1    0    0    0  501 -0.00000000000E+00  0.00000000000E+00  0.84517220450E+02  0.84517220450E+02  0.00000000000E+00 0.  1.
          1   -1    0    0  501    0  0.00000000000E+00 -0.00000000000E+00 -0.21650419740E+03  0.21650419740E+03  0.00000000000E+00 0. -1.
         25    2    1    2    0    0  0.10499563774E+02  0.74602581334E+02 -0.27539351100E+02  0.14859890811E+03  0.12508970242E+03 0.  0.
          5    1    3    3  502    0 -0.11530436341E+02  0.40777436390E+02  0.47189558313E+02  0.63561600786E+02  0.41800000000E+01 0. -1.
         -5    1    3    3    0  502  0.22030000115E+02  0.33825144945E+02 -0.74728909413E+02  0.85037307328E+02  0.41800000000E+01 0. -1.
        -11    1    1    2    0    0  0.43114744032E+01  0.14813797162E+02 -0.34968707353E+02  0.38221039910E+02  0.00000000000E+00 0. -1.
         11    1    1    2    0    0 -0.14811038177E+02 -0.89416378496E+02 -0.69478918502E+02  0.11420146983E+03  0.00000000000E+00 0.  1.
</event>
<event>
 7    1  0.2810263E-009  0.1211610E+03  0.7561462E-02  0.1241194E+00
          2   -1    0    0  501    0  0.00000000000E+00  0.00000000000E+00  0.39037077937E+03  0.39037077937E+03  0.00000000000E+00 0. -1.
         -2   -1    0    0    0  501 -0.00000000000E+00 -0.00000000000E+00 -0.47566176924E+02  0.47566176924E+02  0.00000000000E+00 0.  1.
         25    2    1    2    0    0 -0.61645121580E+02  0.12816042282E+02  0.26908338761E+03  0.30334460848E+03  0.12509080722E+03 0.  0.
          5    1    3    3  502    0  0.36256861927E+02  0.18953189903E+02  0.65839267856E+02  0.77627733679E+02  0.41800000000E+01 0. -1.
         -5    1    3    3    0  502 -0.97901983506E+02 -0.61371476210E+01  0.20324411976E+03  0.22571687480E+03  0.41800000000E+01 0. -1.
        -11    1    1    2    0    0  0.73889171452E+02 -0.31785798175E+02  0.77503917730E+02  0.11169961453E+03  0.00000000000E+00 0. -1.
         11    1    1    2    0    0 -0.12244049873E+02  0.18969755893E+02 -0.37827028932E+01  0.22892733282E+02  0.00000000000E+00 0.  1.
</event>
<event>
 7    1  0.2810263E-009  0.1031316E+03  0.7561462E-02  0.1273845E+00
         -2   -1    0    0    0  501 -0.00000000000E+00  0.00000000000E+00  0.79803829132E+02  0.79803829132E+02  0.00000000000E+00 0. -1.
          2   -1    0    0  501    0  0.00000000000E+00 -0.00000000000E+00 -0.17126690344E+03  0.17126690344E+03  0.00000000000E+00 0.  1.
         25    2    1    2    0    0 -0.26941077479E+02 -0.19250828317E+02 -0.20831973901E+02  0.13106024876E+03  0.12508557719E+03 0.  0.
          5    1    3    3  502    0  0.48392877980E+02 -0.14912678807E+02 -0.22258688629E+02  0.55472337682E+02  0.41800000000E+01 0. -1.
         -5    1    3    3    0  502 -0.75333955459E+02 -0.43381495096E+01  0.14267147286E+01  0.75587911078E+02  0.41800000000E+01 0. -1.
        -11    1    1    2    0    0  0.24845615674E+02 -0.25193758477E+02  0.13253066287E+01  0.35408848076E+02  0.00000000000E+00 0. -1.
         11    1    1    2    0    0  0.20954618054E+01  0.44444586794E+02 -0.71956407036E+02  0.84601635734E+02  0.00000000000E+00 0.  1.
</event>
<event>
 7    1  0.2810263E-009  0.1278879E+03  0.7561462E-02  0.1230624E+00
          1   -1    0    0  501    0  0.00000000000E+00  0.00000000000E+00  0.60160262597E+02  0.60160262597E+02  0.00000000000E+00 0. -1.
         -1   -1    0    0    0  501 -0.00000000000E+00 -0.00000000000E+00 -0.44247445257E+03  0.44247445257E+03  0.00000000000E+00 0.  1.
         25    2    1    2    0    0  0.38690025389E+02 -0.87826205766E+02 -0.90898746883E+02  0.18198316286E+03  0.12507969019E+03 0.  0.
          5    1    3    3  502    0  0.61034737505E+01  0.27495804944E+02 -0.45684728773E+02  0.53831575533E+02  0.41800000000E+01 0.  1.
         -5    1    3    3    0  502  0.32586551639E+02 -0.11532201071E+03 -0.45214018111E+02  0.12815158733E+03  0.41800000000E+01 0.  1.
        -11    1    1    2    0    0 -0.42279574518E+02  0.36254000225E+02 -0.53654178222E+02  0.77334893770E+02  0.00000000000E+00 0. -1.
         11    1    1    2    0    0  0.35895491292E+01  0.51572205541E+02 -0.23776126487E+03  0.24331665853E+03  0.00000000000E+00 0.  1.
</event>
<event>
 7    1  0.2810263E-009  0.1319639E+03  0.7561462E-02  0.1224570E+00
         -1   -1    0    0    0  501 -0.00000000000E+00  0.00000000000E+00  0.42706013040E+02  0.42706013040E+02  0.00000000000E+00 0.  1.
          1   -1    0    0  501    0  0.00000000000E+00 -0.00000000000E+00 -0.46561972250E+03  0.46561972250E+03  0.00000000000E+00 0. -1.
         25    2    1    2    0    0 -0.85547439748E+02  0.54609138687E+02 -0.28065983949E+03  0.32360242584E+03  0.12509221409E+03 0.  0.
          5    1    3    3  502    0 -0.94339257617E+02  0.77851838838E+02 -0.26960923777E+03  0.29608684170E+03  0.41800000000E+01 0.  1.
         -5    1    3    3    0  502  0.87918178693E+01 -0.23242700151E+02 -0.11050601725E+02  0.27515584134E+02  0.41800000000E+01 0.  1.
        -11    1    1    2    0    0  0.37788913481E+02  0.69576719315E+01 -0.61423609881E+02  0.72451853196E+02  0.00000000000E+00 0.  1.
         11    1    1    2    0    0  0.47758526266E+02 -0.61566810618E+02 -0.80830260083E+02  0.11227145651E+03  0.00000000000E+00 0. -1.
</event>
<event>
 7    1  0.2810263E-009  0.7374864E+02  0.7561462E-02  0.1347790E+00
          2   -1    0    0  501    0  0.00000000000E+00  0.00000000000E+00  0.16922071714E+03  0.16922071714E+03  0.00000000000E+00 0. -1.
         -2   -1    0    0    0  501 -0.00000000000E+00 -0.00000000000E+00 -0.99918030587E+02  0.99918030587E+02  0.00000000000E+00 0.  1.
         25    2    1    2    0    0  0.34229296495E+02  0.43196849700E+02 -0.12123498952E+02  0.13722554001E+03  0.12508499926E+03 0.  0.
          5    1    3    3  502    0  0.29038055375E+02  0.38626555852E+02  0.52859864146E+02  0.71741599610E+02  0.41800000000E+01 0. -1.
         -5    1    3    3    0  502  0.51912411200E+01  0.45702938477E+01 -0.64983363098E+02  0.65483940396E+02  0.41800000000E+01 0. -1.
        -11    1    1    2    0    0 -0.41509653178E+02  0.53218791159E+01  0.69972076029E+02  0.81531988373E+02  0.00000000000E+00 0. -1.
         11    1    1    2    0    0  0.72803566826E+01 -0.48518728816E+02  0.11454109479E+02  0.50381219351E+02  0.00000000000E+00 0.  1.
</event>
<event>
 7    1  0.2810263E-009  0.7822784E+02  0.7561462E-02  0.1334157E+00
          1   -1    0    0  501    0  0.00000000000E+00  0.00000000000E+00  0.18402179927E+03  0.18402179927E+03  0.00000000000E+00 0. -1.
         -1   -1    0    0    0  501 -0.00000000000E+00 -0.00000000000E+00 -0.77556497382E+02  0.77556497382E+02  0.00000000000E+00 0.  1.
         25    2    1    2    0    0 -0.44025931071E+02 -0.16840218250E+02  0.37429671715E+02  0.13881084356E+03  0.12508235051E+03 0.  0.
          5    1    3    3  502    0  0.18807613986E+02 -0.19836186824E+01 -0.36038782600E+02  0.40913657112E+02  0.41800000000E+01 0.  1.
         -5    1    3    3    0  502 -0.62833545057E+02 -0.14856599568E+02  0.73468454316E+02  0.97897186449E+02  0.41800000000E+01 0.  1.
        -11    1    1    2    0    0  0.49472111518E+02 -0.51426172000E+01 -0.39110188056E+00  0.49740218037E+02  0.00000000000E+00 0.  1.
         11    1    1    2    0    0 -0.54461804468E+01  0.21982835450E+02  0.69426732056E+02  0.73027235056E+02  0.00000000000E+00 0. -1.
</event>
<event>
 7    1  0.2810263E-009  0.1003380E+03  0.7561462E-02  0.1279587E+00
          2   -1    0    0  501    0  0.00000000000E+00  0.00000000000E+00  0.13983056082E+03  0.13983056082E+03  0.00000000000E+00 0. -1.
         -2   -1    0    0    0  501 -0.00000000000E+00 -0.00000000000E+00 -0.16860089804E+03  0.16860089804E+03  0.00000000000E+00 0.  1.
         25    2    1    2    0    0  0.36624976206E+02 -0.27760577508E+02  0.83780972153E+02  0.15741106154E+03  0.12508777900E+03 0.  0.
          5    1    3    3  502    0 -0.29870217930E+02  0.26218390213E+02  0.52840390791E+02  0.66251137375E+02  0.41800000000E+01 0.  1.
         -5    1    3    3    0  502  0.66495194135E+02 -0.53978967721E+02  0.30940581362E+02  0.91159924168E+02  0.41800000000E+01 0.  1.
        -11    1    1    2    0    0 -0.52752816046E+02  0.16425436174E+02 -0.11823269050E+03  0.13050526294E+03  0.00000000000E+00 0.  1.
         11    1    1    2    0    0  0.16127839841E+02  0.11335141333E+02  0.56813811186E+01  0.20515134374E+02  0.00000000000E+00 0. -1.
</event>
<event>
 7    1  0.2810263E-009  0.1218576E+03  0.7561462E-02  0.1240064E+00
          2   -1    0    0  501    0  0.00000000000E+00  0.00000000000E+00  0.36370779491E+03  0.36370779491E+03  0.00000000000E+00 0. -1.
         -2   -1    0    0    0  501 -0.00000000000E+00 -0.00000000000E+00 -0.53930369537E+02  0.53930369537E+02  0.00000000000E+00 0.  1.
         25    2    1    2    0    0 -0.78406670808E+02  0.47155879490E+02  0.18617702045E+03  0.24223324313E+03  0.12507508999E+03 0.  0.
          5    1    3    3  502    0  0.32388535589E+02  0.81374025176E+01  0.66261759012E+02  0.74319093541E+02  0.41800000000E+01 0. -1.
         -5    1    3    3    0  502 -0.11079520640E+03  0.39018476973E+02  0.11991526143E+03  0.16791414958E+03  0.41800000000E+01 0. -1.
        -11    1    1    2    0    0  0.14222272392E+02 -0.15216170224E+02  0.96563098872E+02  0.98783788812E+02  0.00000000000E+00 0. -1.
         11    1    1    2    0    0  0.64184398417E+02 -0.31939709266E+02  0.27037306053E+02  0.76621132507E+02  0.00000000000E+00 0.  1.
</event>
<event>
 7    1  0.2810263E-009  0.2048283E+03  0.7561462E-02  0.1145728E+00
          4   -1    0    0  501    0  0.00000000000E+00  0.00000000000E+00  0.41261996532E+03  0.41261996532E+03  0.00000000000E+00 0.  1.
         -4   -1    0    0    0  501 -0.00000000000E+00 -0.00000000000E+00 -0.14178501877E+03  0.14178501877E+03  0.00000000000E+00 0. -1.
         25    2    1    2    0    0 -0.11784955950E+03  0.14410036056E+03  0.15030331686E+02  0.22478207355E+03  0.12509051574E+03 0.  0.
          5    1    3    3  502    0  0.93714291756E+01  0.47537637891E+02 -0.32019242334E+02  0.58226754852E+02  0.41800000000E+01 0. -1.
         -5    1    3    3    0  502 -0.12722098868E+03  0.96562722667E+02  0.47049574020E+02  0.16655531869E+03  0.41800000000E+01 0. -1.
        -11    1    1    2    0    0  0.13704446068E+02 -0.75061127230E+02  0.13907138914E+03  0.15862797969E+03  0.00000000000E+00 0.  1.
         11    1    1    2    0    0  0.10414511344E+03 -0.69039233328E+02  0.11673322572E+03  0.17099493086E+03  0.00000000000E+00 0. -1.
</event>
<event>
 7    1  0.2810263E-009  0.8958406E+02  0.7561462E-02  0.1303862E+00
          2   -1    0    0  501    0  0.00000000000E+00  0.00000000000E+00  0.26647209260E+03  0.26647209260E+03  0.00000000000E+00 0. -1.
         -2   -1    0    0    0  501 -0.00000000000E+00 -0.00000000000E+00 -0.58202861535E+02  0.58202861535E+02  0.00000000000E+00 0.  1.
         25    2    1    2    0    0  0.12251570670E+01  0.32139177859E+02  0.48929874509E+02  0.13811420112E+03  0.12508785779E+03 0.  0.
          5    1    3    3  502    0 -0.20187574563E+02  0.71786287315E+02  0.54585583470E+02  0.92508743025E+02  0.41800000000E+01 0. -1.
         -5    1    3    3    0  502  0.21412731630E+02 -0.39647109456E+02 -0.56557089601E+01  0.45605458094E+02  0.41800000000E+01 0. -1.
        -11    1    1    2    0    0  0.21344872334E+02 -0.29630086559E+02  0.15972709366E+03  0.16384837519E+03  0.00000000000E+00 0. -1.
         11    1    1    2    0    0 -0.22570029401E+02 -0.25090912999E+01 -0.38773710500E+00  0.22712377823E+02  0.00000000000E+00 0.  1.
</event>
<event>
 7    1  0.2810263E-009  0.1699669E+03  0.7561462E-02  0.1177882E+00
         -1   -1    0    0    0  501 -0.00000000000E+00  0.00000000000E+00  0.20308863204E+03  0.20308863204E+03  0.00000000000E+00 0. -1.
          1   -1    0    0  501    0  0.00000000000E+00 -0.00000000000E+00 -0.15772504969E+03  0.15772504969E+03  0.00000000000E+00 0.  1.
         25    2    1    2    0    0  0.13663285823E+03  0.20498630811E+02  0.55195886201E+02  0.19437910966E+03  0.12509164882E+03 0.  0.
          5    1    3    3  502    0  0.12382737348E+03 -0.35344343938E+02  0.35338300157E+02  0.13359906037E+03  0.41800000000E+01 0.  1.
         -5    1    3    3    0  502  0.12805484743E+02  0.55842974749E+02  0.19857586044E+02  0.60780049291E+02  0.41800000000E+01 0.  1.
        -11    1    1    2    0    0 -0.10998343800E+03  0.13103656278E+02 -0.35672951507E+02  0.11636417795E+03  0.00000000000E+00 0.  1.
         11    1    1    2    0    0 -0.26649420232E+02 -0.33602287089E+02  0.25840647650E+02  0.50070394120E+02  0.00000000000E+00 0. -1.
</event>
<event>
 7    1  0.2810263E-009  0.1736432E+03  0.7561462E-02  0.1174101E+00
         -1   -1    0    0    0  501 -0.00000000000E+00  0.00000000000E+00  0.63165802320E+03  0.63165802320E+03  0.00000000000E+00 0.  1.
          1   -1    0    0  501    0  0.00000000000E+00 -0.00000000000E+00 -0.63437589870E+02  0.63437589870E+02  0.00000000000E+00 0. -1.
         25    2    1    2    0    0 -0.15322520732E+03 -0.33091886787E+02  0.19244361699E+03  0.27794884678E+03  0.12509188053E+03 0.  0.
          5    1    3    3  502    0 -0.75014569946E+01 -0.41529286412E+02  0.90241266990E+02  0.99709137771E+02  0.41800000000E+01 0.  1.
         -5    1    3    3    0  502 -0.14572375033E+03  0.84373996245E+01  0.10220235000E+03  0.17823970901E+03  0.41800000000E+01 0.  1.
        -11    1    1    2    0    0  0.23846787608E+02  0.15104892631E+02  0.12079751097E+02  0.30704192665E+02  0.00000000000E+00 0. -1.
         11    1    1    2    0    0  0.12937841971E+03  0.17986994156E+02  0.36369706524E+03  0.38644257362E+03  0.00000000000E+00 0.  1.
</event>
<event>
 7    1  0.2810263E-009  0.1296846E+03  0.7561462E-02  0.1227924E+00
         -1   -1    0    0    0  501 -0.00000000000E+00  0.00000000000E+00  0.33006379827E+03  0.33006379827E+03  0.00000000000E+00 0.  1.
          1   -1    0    0  501    0  0.00000000000E+00 -0.00000000000E+00 -0.69528591705E+02  0.69528591705E+02  0.00000000000E+00 0. -1.
         25    2    1    2    0    0 -0.89207606586E+02 -0.41899086725E+02  0.18790484524E+03  0.24631106437E+03  0.12508948408E+03 0.  0.
          5    1    3    3  502    0 -0.79674729643E+02  0.30264912991E+02  0.87437630641E+02  0.12217544415E+03  0.41800000000E+01 0. -1.
         -5    1    3    3    0  502 -0.95328769430E+01 -0.72163999715E+02  0.10046721460E+03  0.12413562022E+03  0.41800000000E+01 0. -1.
        -11    1    1    2    0    0  0.61054488687E+02  0.39829818602E+02  0.93221851997E+02  0.11834009772E+03  0.00000000000E+00 0.  1.
         11    1    1    2    0    0  0.28153117899E+02  0.20692681223E+01 -0.20591490671E+02  0.34941227884E+02  0.00000000000E+00 0. -1.
</event>
<event>
 7    1  0.2810263E-009  0.1174817E+03  0.7561462E-02  0.1247310E+00
          1   -1    0    0  501    0  0.00000000000E+00  0.00000000000E+00  0.11025557964E+04  0.11025557964E+04  0.00000000000E+00 0. -1.
         -1   -1    0    0    0  501 -0.00000000000E+00 -0.00000000000E+00 -0.17759153498E+02  0.17759153498E+02  0.00000000000E+00 0.  1.
         25    2    1    2    0    0 -0.57207004049E+02 -0.24369262583E+01  0.86643389290E+03  0.87729060234E+03  0.12511007257E+03 0.  0.
          5    1    3    3  502    0  0.32018906020E+02 -0.19116132452E+02  0.42184394913E+03  0.42350965358E+03  0.41800000000E+01 0. -1.
         -5    1    3    3    0  502 -0.89225910068E+02  0.16679206194E+02  0.44458994378E+03  0.45378094876E+03  0.41800000000E+01 0. -1.
        -11    1    1    2    0    0 -0.22431142197E+02 -0.12297852542E+02  0.48041034297E+02  0.54427330394E+02  0.00000000000E+00 0.  1.
         11    1    1    2    0    0  0.79638146246E+02  0.14734778800E+02  0.17032171568E+03  0.18859701715E+03  0.00000000000E+00 0. -1.
</event>
<event>
 7    1  0.2810263E-009  0.1079401E+03  0.7561462E-02  0.1264433E+00
          2   -1    0    0  501    0  0.00000000000E+00  0.00000000000E+00  0.26941467905E+03  0.26941467905E+03  0.00000000000E+00 0. -1.
         -2   -1    0    0    0  501 -0.00000000000E+00 -0.00000000000E+00 -0.48675687358E+02  0.48675687358E+02  0.00000000000E+00 0.  1.
         25    2    1    2    0    0  0.33244353447E+02  0.12649922086E+02  0.14829925211E+03  0.19724327632E+03  0.12508810620E+03 0.  0.
          5    1    3    3  502    0  0.37758673978E+02  0.66058678957E+02  0.83490945262E+02  0.11303838670E+03  0.41800000000E+01 0.  1.
         -5    1    3    3    0  502 -0.45143205304E+01 -0.53408756871E+02  0.64808306847E+02  0.84204889625E+02  0.41800000000E+01 0.  1.
        -11    1    1    2    0    0 -0.29370800293E+02  0.30644976019E+02  0.81202160118E+01  0.43216852883E+02  0.00000000000E+00 0.  1.
         11    1    1    2    0    0 -0.38735531544E+01 -0.43294898105E+02  0.64319523570E+02  0.77630237203E+02  0.00000000000E+00 0. -1.
</event>
<event>
 7    1  0.2810263E-009  0.7381487E+02  0.7561462E-02  0.1347581E+00
         -2   -1    0    0    0  501 -0.00000000000E+00  0.00000000000E+00  0.89858422100E+02  0.89858422100E+02  0.00000000000E+00 0.  1.
          2   -1    0    0  501    0  0.00000000000E+00 -0.00000000000E+00 -0.15960455483E+03  0.15960455483E+03  0.00000000000E+00 0. -1.
         25    2    1    2    0    0  0.36817109661E+01  0.52486865975E+02 -0.44133753628E+02  0.14270290399E+03  0.12509158445E+03 0.  0.
          5    1    3    3  502    0  0.35471239029E+02  0.10171969024E+02 -0.73269148222E+02  0.82143278685E+02  0.41800000000E+01 0.  1.
         -5    1    3    3    0  502 -0.31789528063E+02  0.42314896952E+02  0.29135394593E+02  0.60559625301E+02  0.41800000000E+01 0.  1.
        -11    1    1    2    0    0 -0.10387569882E+02 -0.10099986534E+02  0.31879858190E+02  0.35017662604E+02  0.00000000000E+00 0.  1.
         11    1    1    2    0    0  0.67058589163E+01 -0.42386879441E+02 -0.57492237295E+02  0.71742410342E+02  0.00000000000E+00 0. -1.
</event>
<event>
 7    1  0.2810263E-009  0.1024955E+03  0.7561462E-02  0.1275134E+00
         -3   -1    0    0    0  501 -0.00000000000E+00  0.00000000000E+00  0.48108696617E+03  0.48108696617E+03  0.00000000000E+00 0.  1.
          3   -1    0    0  501    0  0.00000000000E+00 -0.00000000000E+00 -0.34491340041E+02  0.34491340041E+02  0.00000000000E+00 0. -1.
         25    2    1    2    0    0  0.29504731801E+02  0.57955304384E+02  0.29725811807E+03  0.32899723226E+03  0.12508974207E+03 0.  0.
          5    1    3    3  502    0  0.29151330751E+02  0.96580632910E+02  0.19465630590E+03  0.21928558677E+03  0.41800000000E+01 0. -1.
         -5    1    3    3    0  502  0.35340105000E+00 -0.38625328526E+02  0.10260181216E+03  0.10971164548E+03  0.41800000000E+01 0. -1.
        -11    1    1    2    0    0 -0.15485929468E+02 -0.25823248060E+02 -0.30018928893E+01  0.30259965512E+02  0.00000000000E+00 0. -1.
         11    1    1    2    0    0 -0.14018802333E+02 -0.32132056324E+02  0.15233940096E+03  0.15632110845E+03  0.00000000000E+00 0.  1.
</event>
<event>
 7    1  0.2810263E-009  0.2103162E+03  0.7561462E-02  0.1141316E+00
          2   -1    0    0  501    0  0.00000000000E+00  0.00000000000E+00  0.13531608441E+03  0.13531608441E+03  0.00000000000E+00 0. -1.
         -2   -1    0    0    0  501 -0.00000000000E+00 -0.00000000000E+00 -0.38909263335E+03  0.38909263335E+03  0.00000000000E+00 0.  1.
         25    2    1    2    0    0  0.61007536921E+02 -0.19089161652E+03 -0.15930098245E+03  0.28493164240E+03  0.12509080308E+03 0.  0.
          5    1    3    3  502    0  0.31743011151E+02 -0.41202294200E+02  0.14008117297E+02  0.54027285278E+02  0.41800000000E+01 0.  1.
         -5    1    3    3    0  502  0.29264525769E+02 -0.14968932232E+03 -0.17330909974E+03  0.23090435712E+03  0.41800000000E+01 0.  1.
        -11    1    1    2    0    0 -0.39371366569E+02  0.21025457295E+02 -0.39577857384E+02  0.59653844428E+02  0.00000000000E+00 0.  1.
         11    1    1    2    0    0 -0.21636170352E+02  0.16986615922E+03 -0.54897709109E+02  0.17982323093E+03  0.00000000000E+00 0. -1.
</event>
<event>
 7    1  0.2810263E-009  0.1067927E+03  0.7561462E-02  0.1266627E+00
          1   -1    0    0  501    0  0.00000000000E+00  0.00000000000E+00  0.59322999162E+03  0.59322999162E+03  0.00000000000E+00 0. -1.
         -1   -1    0    0    0  501 -0.00000000000E+00 -0.00000000000E+00 -0.23027631418E+02  0.23027631418E+02  0.00000000000E+00 0.  1.
         25    2    1    2    0    0 -0.44705580111E+01  0.41262430612E+02  0.28813854648E+03  0.31685104897E+03  0.12509273039E+03 0.  0.
          5    1    3    3  502    0 -0.49071261524E+02  0.47014699696E+02  0.24540198871E+03  0.25467229759E+03  0.41800000000E+01 0.  1.
         -5    1    3    3    0  502  0.44600703513E+02 -0.57522690843E+01  0.42736557763E+02  0.62178751378E+02  0.41800000000E+01 0.  1.
        -11    1    1    2    0    0 -0.20528985880E+02 -0.63586458226E+02  0.18191333657E+03  0.19379664329E+03  0.00000000000E+00 0.  1.
         11    1    1    2    0    0  0.24999543891E+02  0.22324027614E+02  0.10015047715E+03  0.10560993077E+03  0.00000000000E+00 0. -1.
</event>
<event>
 7    1  0.5794012E-009  0.1068519E+03  0.7561462E-02  0.1266513E+00
          2   -1    0    0  501    0  0.00000000000E+00  0.00000000000E+00  0.73172671796E+03  0.73172671796E+03  0.00000000000E+00 0. -1.
         -2   -1    0    0    0  501 -0.00000000000E+00 -0.00000000000E+00 -0.25072583187E+02  0.25072583187E+02  0.00000000000E+00 0.  1.
         25    2    1    2    0    0 -0.35546542337E+02  0.72156289151E+02  0.40972892561E+03  0.43588455442E+03  0.12508982999E+03 0.  0.
          5    1    3    3  502    0 -0.43345821435E+02  0.15644137699E+02  0.35051007704E+03  0.35355110774E+03  0.41800000000E+01 0.  1.
         -5    1    3    3    0  502  0.77992790980E+01  0.56512151452E+02  0.59218848574E+02  0.82333446683E+02  0.41800000000E+01 0.  1.
        -11    1    1    2    0    0 -0.11270040580E+02 -0.61094967289E+02  0.96283404489E+02  0.11458666075E+03  0.00000000000E+00 0.  1.
         11    1    1    2    0    0  0.46816582917E+02 -0.11061321863E+02  0.20064180467E+03  0.20632808597E+03  0.00000000000E+00 0. -1.
</event>
<event>
 7    1  0.2810263E-009  0.1054949E+03  0.7561462E-02  0.1269148E+00
          2   -1    0    0  501    0  0.00000000000E+00  0.00000000000E+00  0.23317401573E+03  0.23317401573E+03  0.00000000000E+00 0. -1.
         -2   -1    0    0    0  501 -0.00000000000E+00 -0.00000000000E+00 -0.78927654904E+02  0.78927654904E+02  0.00000000000E+00 0.  1.
         25    2    1    2    0    0 -0.31245188986E+02 -0.71564611684E+02  0.59692778504E+02  0.15908760968E+03  0.12509150358E+03 0.  0.
          5    1    3    3  502    0 -0.12467843549E+02  0.11452039855E+02 -0.30419633728E+02  0.35063126725E+02  0.41800000000E+01 0. -1.
         -5    1    3    3    0  502 -0.18777345438E+02 -0.83016651540E+02  0.90112412232E+02  0.12402448296E+03  0.41800000000E+01 0. -1.
        -11    1    1    2    0    0  0.49231771813E+02  0.18986073307E+02  0.13027347822E+02  0.54350254155E+02  0.00000000000E+00 0.  1.
         11    1    1    2    0    0 -0.17986582826E+02  0.52578538377E+02  0.81526234495E+02  0.98663806792E+02  0.00000000000E+00 0. -1.
</event>
<event>
 7    1  0.2810263E-009  0.1184146E+03  0.7561462E-02  0.1245736E+00
          1   -1    0    0  501    0  0.00000000000E+00  0.00000000000E+00  0.31050469794E+03  0.31050469794E+03  0.00000000000E+00 0. -1.
         -1   -1    0    0    0  501 -0.00000000000E+00 -0.00000000000E+00 -0.51089497859E+02  0.51089497859E+02  0.00000000000E+00 0.  1.
         25    2    1    2    0    0  0.17741225340E+02 -0.60451543328E+02  0.15447980798E+03  0.20851778646E+03  0.12508603451E+03 0.  0.
          5    1    3    3  502    0  0.49829274497E+02 -0.83136429044E+02  0.86968106301E+02  0.13029023887E+03  0.41800000000E+01 0. -1.
         -5    1    3    3    0  502 -0.32088049157E+02  0.22684885716E+02  0.67511701674E+02  0.78227547588E+02  0.41800000000E+01 0. -1.
        -11    1    1    2    0    0 -0.29906456693E+02 -0.78488902714E+01  0.67501657313E+02  0.74246043467E+02  0.00000000000E+00 0.  1.
         11    1    1    2    0    0  0.12165231353E+02  0.68300433599E+02  0.37433734794E+02  0.78830365877E+02  0.00000000000E+00 0. -1.
</event>
<event>
 7    1  0.2810263E-009  0.2094831E+03  0.7561462E-02  0.1141976E+00
         -1   -1    0    0    0  501 -0.00000000000E+00  0.00000000000E+00  0.70577281066E+03  0.70577281066E+03  0.00000000000E+00 0.  1.
          1   -1    0    0  501    0  0.00000000000E+00 -0.00000000000E+00 -0.85238921197E+02  0.85238921197E+02  0.00000000000E+00 0. -1.
         25    2    1    2    0    0 -0.20168628888E+03 -0.46927919435E+01  0.45851055388E+03  0.51631340647E+03  0.12509286258E+03 0.  0.
          5    1    3    3  502    0 -0.16576765176E+03 -0.31364248289E+01  0.22232666994E+03  0.27737226267E+03  0.41800000000E+01 0.  1.
         -5    1    3    3    0  502 -0.35918637121E+02 -0.15563671146E+01  0.23618388394E+03  0.23894114381E+03  0.41800000000E+01 0.  1.
        -11    1    1    2    0    0  0.26940692820E+02  0.30035963957E+02  0.96903711465E+01  0.41495341346E+02  0.00000000000E+00 0. -1.
         11    1    1    2    0    0  0.17474559606E+03 -0.25343172014E+02  0.15233296444E+03  0.23320298404E+03  0.00000000000E+00 0.  1.
</event>
<event>
 7    1  0.2810263E-009  0.7922430E+02  0.7561462E-02  0.1331267E+00
         -1   -1    0    0    0  501 -0.00000000000E+00  0.00000000000E+00  0.11655692198E+03  0.11655692198E+03  0.00000000000E+00 0.  1.
          1   -1    0    0  501    0  0.00000000000E+00 -0.00000000000E+00 -0.12798220478E+03  0.12798220478E+03  0.00000000000E+00 0. -1.
         25    2    1    2    0    0 -0.23564314433E+02 -0.17075961717E+02  0.41829312659E+02  0.13508714862E+03  0.12510787722E+03 0.  0.
          5    1    3    3  502    0 -0.77265291616E+01  0.44382558679E+02 -0.17112361310E+02  0.48371645386E+02  0.41800000000E+01 0. -1.
         -5    1    3    3    0  502 -0.15837785271E+02 -0.61458520396E+02  0.58941673969E+02  0.86715503238E+02  0.41800000000E+01 0. -1.
        -11    1    1    2    0    0  0.27198286378E+02  0.27429680747E+02 -0.75410194174E+02  0.84727985655E+02  0.00000000000E+00 0. -1.
         11    1    1    2    0    0 -0.36339719453E+01 -0.10353719030E+02  0.22155598709E+02  0.24723992477E+02  0.00000000000E+00 0.  1.
</event>
<event>
 7    1  0.2810263E-009  0.1107098E+03  0.7561462E-02  0.1259261E+00
          1   -1    0    0  501    0  0.00000000000E+00  0.00000000000E+00  0.20285619094E+03  0.20285619094E+03  0.00000000000E+00 0. -1.
         -1   -1    0    0    0  501 -0.00000000000E+00 -0.00000000000E+00 -0.10859308009E+03  0.10859308009E+03  0.00000000000E+00 0.  1.
         25    2    1    2    0    0 -0.63563877291E+02 -0.81267508419E+01 -0.34750013012E+02  0.14478179636E+03  0.12509114508E+03 0.  0.
          5    1    3    3  502    0 -0.19702385018E+02 -0.53137850655E+02  0.21082850958E+02  0.60611666799E+02  0.41800000000E+01 0.  1.
         -5    1    3    3    0  502 -0.43861492273E+02  0.45011099813E+02 -0.55832863969E+02  0.84170129558E+02  0.41800000000E+01 0.  1.
        -11    1    1    2    0    0  0.69306518921E+02 -0.20606232106E+02  0.11034619643E+03  0.13192533279E+03  0.00000000000E+00 0. -1.
         11    1    1    2    0    0 -0.57426416306E+01  0.28732982948E+02  0.18666927438E+02  0.34742141874E+02  0.00000000000E+00 0.  1.
</event>
<event>
 7    1  0.2810263E-009  0.1067330E+03  0.7561462E-02  0.1266742E+00
          2   -1    0    0  501    0  0.00000000000E+00  0.00000000000E+00  0.74627751890E+03  0.74627751890E+03  0.00000000000E+00 0. -1.
         -2   -1    0    0    0  501 -0.00000000000E+00 -0.00000000000E+00 -0.26228509166E+02  0.26228509166E+02  0.00000000000E+00 0.  1.
         25    2    1    2    0    0  0.31827025665E+02  0.60916010984E+02  0.55106045164E+03  0.56924418636E+03  0.12509037691E+03 0.  0.
          5    1    3    3  502    0 -0.11061240031E+02  0.79736658458E+02  0.45733391221E+03  0.46438353265E+03  0.41800000000E+01 0.  1.
         -5    1    3    3    0  502  0.42888265696E+02 -0.18820647475E+02  0.93726539422E+02  0.10486065372E+03  0.41800000000E+01 0.  1.
        -11    1    1    2    0    0 -0.19575089093E+02  0.38247769524E+01  0.11872584329E+03  0.12038952984E+03  0.00000000000E+00 0. -1.
         11    1    1    2    0    0 -0.12251936572E+02 -0.64740787936E+02  0.50262714806E+02  0.82872311854E+02  0.00000000000E+00 0.  1.
</event>
<event>
 7    1  0.2810263E-009  0.1004355E+03  0.7561462E-02  0.1279383E+00
          1   -1    0    0  501    0  0.00000000000E+00  0.00000000000E+00  0.10636970140E+04  0.10636970140E+04  0.00000000000E+00 0. -1.
         -1   -1    0    0    0  501 -0.00000000000E+00 -0.00000000000E+00 -0.13176793156E+02  0.13176793156E+02  0.00000000000E+00 0.  1.
         25    2    1    2    0    0  0.81799819744E+01 -0.21538612085E+02  0.78385959075E+03  0.79411245915E+03  0.12509162978E+03 0.  0.
          5    1    3    3  502    0  0.57045017409E+02 -0.24908982168E+02  0.61744816845E+03  0.62059189854E+03  0.41800000000E+01 0.  1.
         -5    1    3    3    0  502 -0.48865035435E+02  0.33703700834E+01  0.16641142230E+03  0.17352056061E+03  0.41800000000E+01 0.  1.
        -11    1    1    2    0    0  0.19050813849E+02  0.47823388957E+02  0.19547791771E+03  0.20214258916E+03  0.00000000000E+00 0. -1.
         11    1    1    2    0    0 -0.27230795823E+02 -0.26284776873E+02  0.71182712380E+02  0.80618758848E+02  0.00000000000E+00 0.  1.
</event>
<event>
 7    1  0.2810263E-009  0.1196875E+03  0.7561462E-02  0.1243613E+00
          1   -1    0    0  501    0  0.00000000000E+00  0.00000000000E+00  0.41684457900E+03  0.41684457900E+03  0.00000000000E+00 0. -1.
         -1   -1    0    0    0  501 -0.00000000000E+00 -0.00000000000E+00 -0.47260242513E+02  0.47260242513E+02  0.00000000000E+00 0.  1.
         25    2    1    2    0    0  0.87759305767E+02  0.13827667364E+02  0.18442735985E+03  0.23990616712E+03  0.12509443565E+03 0.  0.
          5    1    3    3  502    0  0.10300895389E+03 -0.44655932836E+01  0.74302164973E+02  0.12715765893E+03  0.41800000000E+01 0.  1.
         -5    1    3    3    0  502 -0.15249648126E+02  0.18293260647E+02  0.11012519488E+03  0.11274850819E+03  0.41800000000E+01 0.  1.
        -11    1    1    2    0    0 -0.91903275289E+02  0.56637889461E+01  0.18207676796E+03  0.20403489884E+03  0.00000000000E+00 0. -1.
         11    1    1    2    0    0  0.41439695226E+01 -0.19491456310E+02  0.30802086846E+01  0.20163755554E+02  0.00000000000E+00 0.  1.
</event>
<event>
 7    1  0.2810263E-009  0.1318555E+03  0.7561462E-02  0.1224728E+00
         -1   -1    0    0    0  501 -0.00000000000E+00  0.00000000000E+00  0.50649914669E+03  0.50649914669E+03  0.00000000000E+00 0.  1.
          1   -1    0    0  501    0  0.00000000000E+00 -0.00000000000E+00 -0.41218388488E+02  0.41218388488E+02  0.00000000000E+00 0. -1.
         25    2    1    2    0    0  0.78847876115E+02  0.39146319390E+02  0.31578023247E+03  0.35087733106E+03  0.12509326257E+03 0.  0.
          5    1    3    3  502    0 -0.11774944936E+01 -0.37303770750E+02  0.46920777894E+02  0.60099830313E+02  0.41800000000E+01 0.  1.
         -5    1    3    3    0  502  0.80025370609E+02  0.76450090140E+02  0.26885945458E+03  0.29077750074E+03  0.41800000000E+01 0.  1.
        -11    1    1    2    0    0 -0.90037523577E+02 -0.18499098419E+02  0.74714269465E+02  0.11845334253E+03  0.00000000000E+00 0. -1.
         11    1    1    2    0    0  0.11189647462E+02 -0.20647220971E+02  0.74786256271E+02  0.78386861598E+02  0.00000000000E+00 0.  1.
</event>
<event>
 7    1  0.2810263E-009  0.1335957E+03  0.7561462E-02  0.1222216E+00
         -1   -1    0    0    0  501 -0.00000000000E+00  0.00000000000E+00  0.27246958385E+03  0.27246958385E+03  0.00000000000E+00 0.  1.
          1   -1    0    0  501    0  0.00000000000E+00 -0.00000000000E+00 -0.76009819690E+02  0.76009819690E+02  0.00000000000E+00 0. -1.
         25    2    1    2    0    0  0.94224127366E+02 -0.69568658714E+01  0.11571037983E+03  0.19484117813E+03  0.12509040144E+03 0.  0.
          5    1    3    3  502    0  0.41316186461E+02 -0.65609816584E+02  0.58596474088E+02  0.97276381879E+02  0.41800000000E+01 0. -1.
         -5    1    3    3    0  502  0.52907940905E+02  0.58652950713E+02  0.57113905746E+02  0.97564796252E+02  0.41800000000E+01 0. -1.
        -11    1    1    2    0    0 -0.75111594403E+02 -0.19691341937E+02  0.13493842456E+02  0.78813605077E+02  0.00000000000E+00 0. -1.
         11    1    1    2    0    0 -0.19112532963E+02  0.26648207809E+02  0.67255541872E+02  0.74824620334E+02  0.00000000000E+00 0.  1.
</event>
<event>
 7    1  0.2810263E-009  0.1034496E+03  0.7561462E-02  0.1273205E+00
         -2   -1    0    0    0  501 -0.00000000000E+00  0.00000000000E+00  0.79395708254E+02  0.79395708254E+02  0.00000000000E+00 0.  1.
          2   -1    0    0  501    0  0.00000000000E+00 -0.00000000000E+00 -0.16227384641E+03  0.16227384641E+03  0.00000000000E+00 0. -1.
         25    2    1    2    0    0  0.26086150461E+02 -0.19914912598E+02 -0.57372002728E+02  0.14147843035E+03  0.12509000187E+03 0.  0.
          5    1    3    3  502    0  0.86448810183E+00 -0.62793098660E+02  0.31591004705E+01  0.63017242837E+02  0.41800000000E+01 0. -1.
         -5    1    3    3    0  502  0.25221662360E+02  0.42878186062E+02 -0.60531103199E+02  0.78461187517E+02  0.41800000000E+01 0. -1.
        -11    1    1    2    0    0 -0.26219147950E+02  0.53960902264E+02 -0.44467859758E+01  0.60158096694E+02  0.00000000000E+00 0.  1.
         11    1    1    2    0    0  0.13299748873E+00 -0.34045989666E+02 -0.21059349449E+02  0.40033027613E+02  0.00000000000E+00 0. -1.
</event>
<event>
 7    1  0.2840242E-009  0.1452766E+03  0.7561462E-02  0.1206400E+00
          3   -1    0    0  501    0  0.00000000000E+00  0.00000000000E+00  0.33175006992E+03  0.33175006992E+03  0.00000000000E+00 0. -1.
         -3   -1    0    0    0  501 -0.00000000000E+00 -0.00000000000E+00 -0.71464738607E+02  0.71464738607E+02  0.00000000000E+00 0.  1.
         25    2    1    2    0    0 -0.30645678045E+02 -0.10434766525E+03  0.14498677546E+03  0.22022067854E+03  0.12509352250E+03 0.  0.
          5    1    3    3  502    0 -0.20806428058E+02 -0.12824553641E+03  0.14404120880E+03  0.19402362560E+03  0.41800000000E+01 0. -1.
         -5    1    3    3    0  502 -0.98392499875E+01  0.23897871160E+02  0.94556665904E+00  0.26197052937E+02  0.41800000000E+01 0. -1.
        -11    1    1    2    0    0 -0.25539748084E+02  0.17551053089E+02  0.55464972234E+02  0.63534882873E+02  0.00000000000E+00 0. -1.
         11    1    1    2    0    0  0.56185426129E+02  0.86796612164E+02  0.59833583614E+02  0.11945924711E+03  0.00000000000E+00 0.  1.
</event>
<event>
 7    1  0.2810263E-009  0.1162774E+03  0.7561462E-02  0.1249368E+00
         -2   -1    0    0    0  501 -0.00000000000E+00  0.00000000000E+00  0.28694713516E+02  0.28694713516E+02  0.00000000000E+00 0. -1.
          2   -1    0    0  501    0  0.00000000000E+00 -0.00000000000E+00 -0.64390439800E+03  0.64390439800E+03  0.00000000000E+00 0.  1.
         25    2    1    2    0    0 -0.28612362909E+01  0.80864201125E+02 -0.31097113605E+03  0.34481650467E+03  0.12509264063E+03 0.  0.
          5    1    3    3  502    0  0.38995818976E+02  0.46700809444E+02 -0.27021225998E+03  0.27700862323E+03  0.41800000000E+01 0. -1.
         -5    1    3    3    0  502 -0.41857055267E+02  0.34163391681E+02 -0.40758876068E+02  0.67807881438E+02  0.41800000000E+01 0. -1.
        -11    1    1    2    0    0  0.98845687672E+01  0.16784435428E+02 -0.23848396991E+02  0.30792336894E+02  0.00000000000E+00 0. -1.
         11    1    1    2    0    0 -0.70233324763E+01 -0.97648636553E+02 -0.28039015144E+03  0.29699026995E+03  0.00000000000E+00 0.  1.
</event>
<event>
 7    1  0.2810263E-009  0.1758424E+03  0.7561462E-02  0.1171889E+00
          2   -1    0    0  501    0  0.00000000000E+00  0.00000000000E+00  0.11315494467E+04  0.11315494467E+04  0.00000000000E+00 0. -1.
         -2   -1    0    0    0  501 -0.00000000000E+00 -0.00000000000E+00 -0.31833174962E+02  0.31833174962E+02  0.00000000000E+00 0.  1.
         25    2    1    2    0    0 -0.94826676619E+02  0.11436623120E+03  0.75062120310E+03  0.77534022909E+03  0.12509415201E+03 0.  0.
          5    1    3    3  502    0 -0.28353213375E+02  0.11317472987E+03  0.34331626864E+03  0.36262371255E+03  0.41800000000E+01 0.  1.
         -5    1    3    3    0  502 -0.66473463244E+02  0.11915013275E+01  0.40730493446E+03  0.41271651654E+03  0.41800000000E+01 0.  1.
        -11    1    1    2    0    0  0.53052912292E+02 -0.74987407662E+01  0.91217637302E+02  0.10578988596E+03  0.00000000000E+00 0.  1.
         11    1    1    2    0    0  0.41773764327E+02 -0.10686749043E+03  0.25787743135E+03  0.28225250663E+03  0.00000000000E+00 0. -1.
</event>
<event>
 7    1  0.2810263E-009  0.1188439E+03  0.7561462E-02  0.1245016E+00
          2   -1    0    0  501    0  0.00000000000E+00  0.00000000000E+00  0.18418382191E+03  0.18418382191E+03  0.00000000000E+00 0. -1.
         -2   -1    0    0    0  501 -0.00000000000E+00 -0.00000000000E+00 -0.11861372523E+03  0.11861372523E+03  0.00000000000E+00 0.  1.
         25    2    1    2    0    0  0.50078244453E+02  0.86639669392E+02  0.38123222497E+02  0.16466739292E+03  0.12509079629E+03 0.  0.
          5    1    3    3  502    0  0.58386193989E+02  0.77299261698E+02  0.76872572102E+02  0.12373757816E+03  0.41800000000E+01 0. -1.
         -5    1    3    3    0  502 -0.83079495359E+01  0.93404076939E+01 -0.38749349604E+02  0.40929814758E+02  0.41800000000E+01 0. -1.
        -11    1    1    2    0    0  0.85656183447E+01  0.10821171225E+02 -0.11436252703E+02  0.17923600090E+02  0.00000000000E+00 0. -1.
         11    1    1    2    0    0 -0.58643862797E+02 -0.97460840617E+02  0.38883126886E+02  0.12020655412E+03  0.00000000000E+00 0.  1.
</event>
<event>
 7    1  0.2810263E-009  0.1078111E+03  0.7561462E-02  0.1264678E+00
          1   -1    0    0  501    0  0.00000000000E+00  0.00000000000E+00  0.26102737678E+03  0.26102737678E+03  0.00000000000E+00 0. -1.
         -1   -1    0    0    0  501 -0.00000000000E+00 -0.00000000000E+00 -0.80247786228E+02  0.80247786228E+02  0.00000000000E+00 0.  1.
         25    2    1    2    0    0  0.35594079853E+02  0.49656370100E+02  0.18343529021E+03  0.23027860300E+03  0.12508811172E+03 0.  0.
          5    1    3    3  502    0  0.63793702210E+02  0.27525953810E+02  0.35751798401E+02  0.78249460469E+02  0.41800000000E+01 0. -1.
         -5    1    3    3    0  502 -0.28199622357E+02  0.22130416290E+02  0.14768349181E+03  0.15202914253E+03  0.41800000000E+01 0. -1.
        -11    1    1    2    0    0 -0.29294377814E+02 -0.76729754919E+02 -0.85702072280E+01  0.82577625986E+02  0.00000000000E+00 0.  1.
         11    1    1    2    0    0 -0.62997020387E+01  0.27073384819E+02  0.59145075745E+01  0.28418934026E+02  0.00000000000E+00 0. -1.
</event>
<event>
 7    1  0.2810263E-009  0.1187110E+03  0.7561462E-02  0.1245239E+00
         -2   -1    0    0    0  501 -0.00000000000E+00  0.00000000000E+00  0.27414747860E+02  0.27414747860E+02  0.00000000000E+00 0.  1.
          2   -1    0    0  501    0  0.00000000000E+00 -0.00000000000E+00 -0.96881907107E+03  0.96881907107E+03  0.00000000000E+00 0. -1.
         25    2    1    2    0    0  0.59343262887E+02 -0.46633508861E+02 -0.78512941301E+03  0.79860607074E+03  0.12508858478E+03 0.  0.
          5    1    3    3  502    0  0.30679275174E+02 -0.75448471313E+02 -0.27487381521E+03  0.28671724126E+03  0.41800000000E+01 0.  1.
         -5    1    3    3    0  502  0.28663987713E+02  0.28814962452E+02 -0.51025559781E+03  0.51188882948E+03  0.41800000000E+01 0.  1.
        -11    1    1    2    0    0 -0.65970267709E+02  0.66737979030E+02 -0.98260046223E+02  0.13587152296E+03  0.00000000000E+00 0.  1.
         11    1    1    2    0    0  0.66270048219E+01 -0.20104470169E+02 -0.58014863977E+02  0.61756225240E+02  0.00000000000E+00 0. -1.
</event>
<event>
 7    1  0.2810263E-009  0.8702876E+02  0.7561462E-02  0.1310211E+00
         -2   -1    0    0    0  501 -0.00000000000E+00  0.00000000000E+00  0.33396814042E+02  0.33396814042E+02  0.00000000000E+00 0.  1.
          2   -1    0    0  501    0  0.00000000000E+00 -0.00000000000E+00 -0.40829441017E+03  0.40829441017E+03  0.00000000000E+00 0. -1.
         25    2    1    2    0    0  0.35236935063E+02  0.15559882988E+02 -0.19261643292E+03  0.23287710677E+03  0.12508758961E+03 0.  0.
          5    1    3    3  502    0  0.52395496571E+02 -0.21006416345E+02 -0.18243213103E+03  0.19101181225E+03  0.41800000000E+01 0.  1.
         -5    1    3    3    0  502 -0.17158561509E+02  0.36566299334E+02 -0.10184301894E+02  0.41865294518E+02  0.41800000000E+01 0.  1.
        -11    1    1    2    0    0 -0.19548945783E+01  0.24605450762E+02 -0.65966308913E+01  0.25549273162E+02  0.00000000000E+00 0.  1.
         11    1    1    2    0    0 -0.33282040484E+02 -0.40165333750E+02 -0.17568453231E+03  0.18326484428E+03  0.00000000000E+00 0. -1.
</event>
<event>
 7    1  0.2810263E-009  0.1031439E+03  0.7561462E-02  0.1273820E+00
          2   -1    0    0  501    0  0.00000000000E+00  0.00000000000E+00  0.14652541778E+03  0.14652541778E+03  0.00000000000E+00 0. -1.
         -2   -1    0    0    0  501 -0.00000000000E+00 -0.00000000000E+00 -0.83866370273E+02  0.83866370273E+02  0.00000000000E+00 0.  1.
         25    2    1    2    0    0  0.20186569626E+02  0.39798258828E+01  0.46741698981E+02  0.13511295155E+03  0.12508951454E+03 0.  0.
          5    1    3    3  502    0  0.43990876904E+02  0.54855821734E+02  0.26585778086E+02  0.75290334209E+02  0.41800000000E+01 0.  1.
         -5    1    3    3    0  502 -0.23804307277E+02 -0.50875995851E+02  0.20155920895E+02  0.59822617345E+02  0.41800000000E+01 0.  1.
        -11    1    1    2    0    0  0.72444492381E+01 -0.36366052022E+02 -0.17745102403E+02  0.41107912179E+02  0.00000000000E+00 0.  1.
         11    1    1    2    0    0 -0.27431018864E+02  0.32386226139E+02  0.33662450933E+02  0.54170924325E+02  0.00000000000E+00 0. -1.
</event>
<event>
 7    1  0.2810263E-009  0.1168443E+03  0.7561462E-02  0.1248396E+00
          2   -1    0    0  501    0  0.00000000000E+00  0.00000000000E+00  0.20934611862E+03  0.20934611862E+03  0.00000000000E+00 0. -1.
         -2   -1    0    0    0  501 -0.00000000000E+00 -0.00000000000E+00 -0.12465830534E+03  0.12465830534E+03  0.00000000000E+00 0.  1.
         25    2    1    2    0    0  0.93783968702E+02 -0.13887592773E+02  0.12168760755E+03  0.19860520425E+03  0.12509138782E+03 0.  0.
          5    1    3    3  502    0  0.62505549722E+02  0.34954665823E+02  0.96598660781E+01  0.72384789987E+02  0.41800000000E+01 0. -1.
         -5    1    3    3    0  502  0.31278418980E+02 -0.48842258597E+02  0.11202774147E+03  0.12622041427E+03  0.41800000000E+01 0. -1.
        -11    1    1    2    0    0 -0.34683583181E+01 -0.98297787747E+01  0.22415980765E+02  0.24721048801E+02  0.00000000000E+00 0. -1.
         11    1    1    2    0    0 -0.90315610384E+02  0.23717371548E+02 -0.59415775035E+02  0.11067817091E+03  0.00000000000E+00 0.  1.
</event>
<event>
 7    1  0.2810263E-009  0.1387333E+03  0.7561462E-02  0.1215044E+00
          2   -1    0    0  501    0  0.00000000000E+00  0.00000000000E+00  0.62711037639E+03  0.62711037639E+03  0.00000000000E+00 0.  1.
         -2   -1    0    0    0  501 -0.00000000000E+00 -0.00000000000E+00 -0.47039908764E+02  0.47039908764E+02  0.00000000000E+00 0. -1.
         25    2    1    2    0    0 -0.11932313495E+03 -0.56765939172E+02  0.30100347267E+03  0.35172640366E+03  0.12509192653E+03 0.  0.
          5    1    3    3  502    0 -0.11721155328E+03 -0.48364761968E+02  0.13430688959E+03  0.18475256808E+03  0.41800000000E+01 0. -1.
         -5    1    3    3    0  502 -0.21115816765E+01 -0.84011772038E+01  0.16669658308E+03  0.16697383557E+03  0.41800000000E+01 0. -1.
        -11    1    1    2    0    0  0.86768293076E+02  0.63770171691E+02  0.12585417395E+03  0.16563406830E+03  0.00000000000E+00 0. -1.
         11    1    1    2    0    0  0.32554841876E+02 -0.70042325192E+01  0.15321282100E+03  0.15678981320E+03  0.00000000000E+00 0.  1.
</event>
<event>
 7    1  0.2810263E-009  0.1044925E+03  0.7561462E-02  0.1271123E+00
          1   -1    0    0  501    0  0.00000000000E+00  0.00000000000E+00  0.30023154475E+03  0.30023154475E+03  0.00000000000E+00 0. -1.
         -1   -1    0    0    0  501 -0.00000000000E+00 -0.00000000000E+00 -0.11641710765E+03  0.11641710765E+03  0.00000000000E+00 0.  1.
         25    2    1    2    0    0  0.28701206864E+02  0.41125977414E+02  0.25610995706E+03  0.28940377708E+03  0.12508849183E+03 0.  0.
          5    1    3    3  502    0  0.76709897561E+02  0.13294632647E+02  0.13045851989E+03  0.15198043773E+03  0.41800000000E+01 0.  1.
         -5    1    3    3    0  502 -0.48008690697E+02  0.27831344768E+02  0.12565143717E+03  0.13742333935E+03  0.41800000000E+01 0.  1.
        -11    1    1    2    0    0 -0.62480142012E+01  0.14280037691E+02 -0.65206174796E+02  0.67043287430E+02  0.00000000000E+00 0.  1.
         11    1    1    2    0    0 -0.22453192663E+02 -0.55406015105E+02 -0.70893451680E+01  0.60201587898E+02  0.00000000000E+00 0. -1.
</event>
<event>
 7    1  0.2810263E-009  0.1549985E+03  0.7561462E-02  0.1194462E+00
          2   -1    0    0  501    0  0.00000000000E+00  0.00000000000E+00  0.13085233110E+04  0.13085233110E+04  0.00000000000E+00 0.  1.
         -2   -1    0    0    0  501 -0.00000000000E+00 -0.00000000000E+00 -0.18997337105E+02  0.18997337105E+02  0.00000000000E+00 0. -1.
         25    2    1    2    0    0  0.29746637852E+01  0.12546513282E+03  0.83649292655E+03  0.85505440366E+03  0.12508904382E+03 0.  0.
          5    1    3    3  502    0 -0.36052071460E+02  0.13137936442E+03  0.68637980732E+03  0.69978211005E+03  0.41800000000E+01 0.  1.
         -5    1    3    3    0  502  0.39026735245E+02 -0.59142316056E+01  0.15011311923E+03  0.15527229361E+03  0.41800000000E+01 0.  1.
        -11    1    1    2    0    0  0.18699244927E+02 -0.24956737937E+02  0.11355865632E+03  0.11776276557E+03  0.00000000000E+00 0.  1.
         11    1    1    2    0    0 -0.21673908712E+02 -0.10050839488E+03  0.33947439101E+03  0.35470347886E+03  0.00000000000E+00 0. -1.
</event>
<event>
 7    1  0.2810263E-009  0.1188139E+03  0.7561462E-02  0.1245067E+00
         -1   -1    0    0    0  501 -0.00000000000E+00  0.00000000000E+00  0.68458148465E+03  0.68458148465E+03  0.00000000000E+00 0.  1.
          1   -1    0    0  501    0  0.00000000000E+00 -0.00000000000E+00 -0.21556477478E+02  0.21556477478E+02  0.00000000000E+00 0. -1.
         25    2    1    2    0    0 -0.27778362048E+02  0.46821914527E+02  0.39810544298E+03  0.42083190671E+03  0.12509045088E+03 0.  0.
          5    1    3    3  502    0 -0.74370030759E+02  0.49113193279E+02  0.27540660803E+03  0.28949832361E+03  0.41800000000E+01 0.  1.
         -5    1    3    3    0  502  0.46591668711E+02 -0.22912787527E+01  0.12269883495E+03  0.13133358310E+03  0.41800000000E+01 0.  1.
        -11    1    1    2    0    0  0.55868941083E+02 -0.47707918757E+02  0.15034657939E+03  0.16733642169E+03  0.00000000000E+00 0. -1.
         11    1    1    2    0    0 -0.28090579035E+02  0.88600423062E+00  0.11457298481E+03  0.11796963373E+03  0.00000000000E+00 0.  1.
</event>
<event>
 7    1  0.2810263E-009  0.1155762E+03  0.7561462E-02  0.1250579E+00
          3   -1    0    0  501    0  0.00000000000E+00  0.00000000000E+00  0.20386713562E+03  0.20386713562E+03  0.00000000000E+00 0. -1.
         -3   -1    0    0    0  501 -0.00000000000E+00 -0.00000000000E+00 -0.10492577506E+03  0.10492577506E+03  0.00000000000E+00 0.  1.
         25    2    1    2    0    0 -0.80459020197E+01 -0.28214153190E+02 -0.40188183658E+02  0.13462474058E+03  0.12509178907E+03 0.  0.
          5    1    3    3  502    0  0.69162771594E+01  0.48007071786E+02 -0.40464320480E+01  0.48850382225E+02  0.41800000000E+01 0. -1.
         -5    1    3    3    0  502 -0.14962179179E+02 -0.76221224975E+02 -0.36141751610E+02  0.85774358360E+02  0.41800000000E+01 0. -1.
        -11    1    1    2    0    0  0.53676246716E+02  0.62460518561E+01  0.68168282804E+02  0.86988892427E+02  0.00000000000E+00 0. -1.
         11    1    1    2    0    0 -0.45630344696E+02  0.21968101334E+02  0.70961261410E+02  0.87179277665E+02  0.00000000000E+00 0.  1.
</event>
<event>
 7    1  0.2810263E-009  0.1276875E+03  0.7561462E-02  0.1230928E+00
          1   -1    0    0  501    0  0.00000000000E+00  0.00000000000E+00  0.79335455639E+03  0.79335455639E+03  0.00000000000E+00 0. -1.
         -1   -1    0    0    0  501 -0.00000000000E+00 -0.00000000000E+00 -0.23011918383E+02  0.23011918383E+02  0.00000000000E+00 0.  1.
         25    2    1    2    0    0 -0.37091038774E+02 -0.68939460627E+02  0.37353271801E+03  0.40162450569E+03  0.12508859964E+03 0.  0.
          5    1    3    3  502    0  0.35953640465E+02 -0.45057060819E+02  0.83476891617E+02  0.10153160506E+03  0.41800000000E+01 0. -1.
         -5    1    3    3    0  502 -0.73044679239E+02 -0.23882399809E+02  0.29005582639E+03  0.30009290063E+03  0.41800000000E+01 0. -1.
        -11    1    1    2    0    0 -0.18412600384E+01 -0.21799977422E+02  0.69217721592E+02  0.72592852517E+02  0.00000000000E+00 0.  1.
         11    1    1    2    0    0  0.38932298813E+02  0.90739438049E+02  0.32759219840E+03  0.34214911656E+03  0.00000000000E+00 0. -1.
</event>
<event>
 7    1  0.2810263E-009  0.1550899E+03  0.7561462E-02  0.1194354E+00
          1   -1    0    0  501    0  0.00000000000E+00  0.00000000000E+00  0.55653827035E+02  0.55653827035E+02  0.00000000000E+00 0. -1.
         -1   -1    0    0    0  501 -0.00000000000E+00 -0.00000000000E+00 -0.53910617216E+03  0.53910617216E+03  0.00000000000E+00 0.  1.
         25    2    1    2    0    0  0.12321820774E+03 -0.25837066005E+02 -0.33793411730E+03  0.38170355180E+03  0.12509137909E+03 0.  0.
          5    1    3    3  502    0  0.30076552409E+02 -0.56812024960E+02 -0.21438162369E+03  0.22385074974E+03  0.41800000000E+01 0. -1.
         -5    1    3    3    0  502  0.93141655329E+02  0.30974958955E+02 -0.12355249361E+03  0.15785280206E+03  0.41800000000E+01 0. -1.
        -11    1    1    2    0    0 -0.97084781747E+02  0.52340554175E+02 -0.13510070356E+03  0.17440524236E+03  0.00000000000E+00 0.  1.
         11    1    1    2    0    0 -0.26133425992E+02 -0.26503488170E+02 -0.10417524262E+02  0.38651205040E+02  0.00000000000E+00 0. -1.
</event>
<event>
 7    1  0.2810263E-009  0.1552859E+03  0.7561462E-02  0.1194124E+00
         -3   -1    0    0    0  501 -0.00000000000E+00  0.00000000000E+00  0.11183638715E+03  0.11183638715E+03  0.00000000000E+00 0.  1.
          3   -1    0    0  501    0  0.00000000000E+00 -0.00000000000E+00 -0.37674618671E+03  0.37674618671E+03  0.00000000000E+00 0. -1.
         25    2    1    2    0    0  0.13607072499E+03  0.23078668299E+02 -0.12706530573E+02  0.18670373000E+03  0.12509580227E+03 0.  0.
          5    1    3    3  502    0  0.89327623974E+01  0.15549913800E+02  0.43645196404E+02  0.47370556598E+02  0.41800000000E+01 0.  1.
         -5    1    3    3    0  502  0.12713796259E+03  0.75287544991E+01 -0.56351726978E+02  0.13933317340E+03  0.41800000000E+01 0.  1.
        -11    1    1    2    0    0 -0.80830295638E+01 -0.35248849225E+02 -0.41467525964E+02  0.55021563483E+02  0.00000000000E+00 0.  1.
         11    1    1    2    0    0 -0.12798769543E+03  0.12170180926E+02 -0.21073574303E+03  0.24685728038E+03  0.00000000000E+00 0. -1.
</event>
<event>
 7    1  0.2810263E-009  0.1083211E+03  0.7561462E-02  0.1263711E+00
          2   -1    0    0  501    0  0.00000000000E+00  0.00000000000E+00  0.11447105097E+03  0.11447105097E+03  0.00000000000E+00 0.  1.
         -2   -1    0    0    0  501 -0.00000000000E+00 -0.00000000000E+00 -0.14169651539E+03  0.14169651539E+03  0.00000000000E+00 0. -1.
         25    2    1    2    0    0  0.26532833940E+02 -0.10695154210E+01 -0.77265973979E+02  0.14940796697E+03  0.12509026628E+03 0.  0.
          5    1    3    3  502    0  0.75158029068E+02 -0.85223960055E+01 -0.31348569574E+02  0.81985155860E+02  0.41800000000E+01 0. -1.
         -5    1    3    3    0  502 -0.48625195128E+02  0.74528805845E+01 -0.45917404405E+02  0.67422811107E+02  0.41800000000E+01 0. -1.
        -11    1    1    2    0    0 -0.48929081229E+02 -0.26780575741E+02  0.42771117373E+02  0.70289563296E+02  0.00000000000E+00 0.  1.
         11    1    1    2    0    0  0.22396247289E+02  0.27850091162E+02  0.72693921863E+01  0.36470036100E+02  0.00000000000E+00 0. -1.
</event>
<event>
 7    1  0.2810263E-009  0.3139055E+03  0.7561462E-02  0.1078489E+00
          1   -1    0    0  501    0  0.00000000000E+00  0.00000000000E+00  0.11276051993E+04  0.11276051993E+04  0.00000000000E+00 0. -1.
         -1   -1    0    0    0  501 -0.00000000000E+00 -0.00000000000E+00 -0.91711720141E+02  0.91711720141E+02  0.00000000000E+00 0.  1.
         25    2    1    2    0    0  0.21214361576E+03 -0.21163784907E+03  0.60677320746E+03  0.68819797368E+03  0.12508889967E+03 0.  0.
          5    1    3    3  502    0  0.20554096510E+03 -0.13318323323E+03  0.48041903548E+03  0.53926318621E+03  0.41800000000E+01 0.  1.
         -5    1    3    3    0  502  0.66026506600E+01 -0.78454615847E+02  0.12635417198E+03  0.14893478748E+03  0.41800000000E+01 0.  1.
        -11    1    1    2    0    0 -0.16915001036E+03  0.19441556123E+03  0.40182351413E+03  0.47735864187E+03  0.00000000000E+00 0. -1.
         11    1    1    2    0    0 -0.42993605395E+02  0.17222287845E+02  0.27296757604E+02  0.53760303934E+02  0.00000000000E+00 0.  1.
</event>
<event>
 7    1  0.2810263E-009  0.1196624E+03  0.7561462E-02  0.1243655E+00
          2   -1    0    0  501    0  0.00000000000E+00  0.00000000000E+00  0.61822982343E+03  0.61822982343E+03  0.00000000000E+00 0. -1.
         -2   -1    0    0    0  501 -0.00000000000E+00 -0.00000000000E+00 -0.28036350051E+02  0.28036350051E+02  0.00000000000E+00 0.  1.
         25    2    1    2    0    0  0.71364672351E+02  0.16928116981E+02  0.29520376950E+03  0.32889643988E+03  0.12509246595E+03 0.  0.
          5    1    3    3  502    0  0.54484204027E+02 -0.47433902834E+02  0.10645670973E+03  0.12872065519E+03  0.41800000000E+01 0.  1.
         -5    1    3    3    0  502  0.16880468325E+02  0.64362019815E+02  0.18874705977E+03  0.20017578469E+03  0.41800000000E+01 0.  1.
        -11    1    1    2    0    0 -0.12134908782E+02 -0.36063720970E+02  0.41303095163E+02  0.56158647165E+02  0.00000000000E+00 0.  1.
         11    1    1    2    0    0 -0.59229763569E+02  0.19135603989E+02  0.25368660872E+03  0.26121108643E+03  0.00000000000E+00 0. -1.
</event>
<event>
 7    1  0.2810263E-009  0.9504873E+02  0.7561462E-02  0.1291066E+00
         -1   -1    0    0    0  501 -0.00000000000E+00  0.00000000000E+00  0.50788688559E+03  0.50788688559E+03  0.00000000000E+00 0.  1.
          1   -1    0    0  501    0  0.00000000000E+00 -0.00000000000E+00 -0.35830575822E+02  0.35830575822E+02  0.00000000000E+00 0. -1.
         25    2    1    2    0    0 -0.42090675274E+02 -0.33996004324E+02  0.37990913307E+03  0.40361522277E+03  0.12508775081E+03 0.  0.
          5    1    3    3  502    0  0.11738674762E+02 -0.28020955057E+02  0.14026527299E+02  0.33722192627E+02  0.41800000000E+01 0.  1.
         -5    1    3    3    0  502 -0.53829350036E+02 -0.59750492665E+01  0.36588260577E+03  0.36989303014E+03  0.41800000000E+01 0.  1.
        -11    1    1    2    0    0 -0.25405024397E+02 -0.67271394010E+01  0.28669284128E+02  0.38892126729E+02  0.00000000000E+00 0.  1.
         11    1    1    2    0    0  0.67495699671E+02  0.40723143725E+02  0.63477892566E+02  0.10121011191E+03  0.00000000000E+00 0. -1.
</event>
<event>
 7    1  0.2810263E-009  0.1264885E+03  0.7561462E-02  0.1232761E+00
          1   -1    0    0  501    0  0.00000000000E+00  0.00000000000E+00  0.45878301839E+02  0.45878301839E+02  0.00000000000E+00 0. -1.
         -1   -1    0    0    0  501 -0.00000000000E+00 -0.00000000000E+00 -0.48031764283E+03  0.48031764283E+03  0.00000000000E+00 0.  1.
         25    2    1    2    0    0  0.66244555346E+02 -0.56128111814E+02 -0.32639732380E+03  0.36016767746E+03  0.12508731692E+03 0.  0.
          5    1    3    3  502    0 -0.23722897650E+02 -0.12761189534E+02 -0.11150797548E+02  0.29452275246E+02  0.41800000000E+01 0.  1.
         -5    1    3    3    0  502  0.89967452996E+02 -0.43366922280E+02 -0.31524652625E+03  0.33071540221E+03  0.41800000000E+01 0.  1.
        -11    1    1    2    0    0  0.18219034626E+02  0.33788841577E+02 -0.38436895420E+02  0.54323235980E+02  0.00000000000E+00 0.  1.
         11    1    1    2    0    0 -0.84463589973E+02  0.22339270237E+02 -0.69605121777E+02  0.11170503124E+03  0.00000000000E+00 0. -1.
</event>
<event>
 7    1  0.2810263E-009  0.1066119E+03  0.7561462E-02  0.1266976E+00
          1   -1    0    0  501    0  0.00000000000E+00  0.00000000000E+00  0.13131959386E+04  0.13131959386E+04  0.00000000000E+00 0. -1.
         -1   -1    0    0    0  501 -0.00000000000E+00 -0.00000000000E+00 -0.30949238207E+02  0.30949238207E+02  0.00000000000E+00 0.  1.
         25    2    1    2    0    0  0.13609138464E+02 -0.60446780675E+02  0.11602669509E+04  0.11686324594E+04  0.12507360211E+03 0.  0.
          5    1    3    3  502    0  0.49570154361E+02 -0.37501248688E+02  0.26051619489E+03  0.26786135230E+03  0.41800000000E+01 0.  1.
         -5    1    3    3    0  502 -0.35961015897E+02 -0.22945531987E+02  0.89975075597E+03  0.90077110709E+03  0.41800000000E+01 0.  1.
        -11    1    1    2    0    0 -0.45119302825E+02  0.61807826599E+02  0.12195208869E+03  0.14397316018E+03  0.00000000000E+00 0. -1.
         11    1    1    2    0    0  0.31510164361E+02 -0.13610459242E+01  0.27660821522E-01  0.31539557213E+02  0.00000000000E+00 0.  1.
</event>
<event>
 7    1  0.2810263E-009  0.6749336E+02  0.7561462E-02  0.1368831E+00
          2   -1    0    0  501    0  0.00000000000E+00  0.00000000000E+00  0.17802824412E+03  0.17802824412E+03  0.00000000000E+00 0. -1.
         -2   -1    0    0    0  501 -0.00000000000E+00 -0.00000000000E+00 -0.67739994113E+02  0.67739994113E+02  0.00000000000E+00 0.  1.
         25    2    1    2    0    0 -0.12581215463E+02 -0.73830429978E+01  0.81423384658E+02  0.14996210674E+03  0.12508424993E+03 0.  0.
          5    1    3    3  502    0 -0.13155819447E+02 -0.31853906105E+02 -0.23642107040E+02  0.42002006437E+02  0.41800000000E+01 0. -1.
         -5    1    3    3    0  502  0.57460398345E+00  0.24470863107E+02  0.10506549170E+03  0.10796010030E+03  0.41800000000E+01 0. -1.
        -11    1    1    2    0    0  0.12816120365E+02 -0.32820613591E+02 -0.13193055748E+02  0.37623162250E+02  0.00000000000E+00 0.  1.
         11    1    1    2    0    0 -0.23490490217E+00  0.40203656589E+02  0.42057921098E+02  0.58182969248E+02  0.00000000000E+00 0. -1.
</event>
<event>
 7    1  0.2810263E-009  0.1181866E+03  0.7561462E-02  0.1246119E+00
          2   -1    0    0  501    0  0.00000000000E+00  0.00000000000E+00  0.17107022433E+03  0.17107022433E+03  0.00000000000E+00 0. -1.
         -2   -1    0    0    0  501 -0.00000000000E+00 -0.00000000000E+00 -0.83961459428E+02  0.83961459428E+02  0.00000000000E+00 0.  1.
         25    2    1    2    0    0 -0.14429782867E+01 -0.48840805062E+02  0.52947963648E+02  0.14435461112E+03  0.12508901020E+03 0.  0.
          5    1    3    3  502    0  0.20315842881E+02  0.38481387205E+02  0.23140755979E+02  0.49462284829E+02  0.41800000000E+01 0.  1.
         -5    1    3    3    0  502 -0.21758821168E+02 -0.87322192267E+02  0.29807207669E+02  0.94892326296E+02  0.41800000000E+01 0.  1.
        -11    1    1    2    0    0 -0.32090282740E+02 -0.11041345045E+02  0.23362516965E+02  0.41200785741E+02  0.00000000000E+00 0.  1.
         11    1    1    2    0    0  0.33533261027E+02  0.59882150107E+02  0.10798284286E+02  0.69476286890E+02  0.00000000000E+00 0. -1.
</event>
<event>
 7    1  0.2810263E-009  0.1644733E+03  0.7561462E-02  0.1183737E+00
         -1   -1    0    0    0  501 -0.00000000000E+00  0.00000000000E+00  0.14147164694E+03  0.14147164694E+03  0.00000000000E+00 0.  1.
          1   -1    0    0  501    0  0.00000000000E+00 -0.00000000000E+00 -0.42799119813E+03  0.42799119813E+03  0.00000000000E+00 0. -1.
         25    2    1    2    0    0 -0.13802036527E+03  0.41173360277E+02  0.45048556862E+02  0.19601522724E+03  0.12509088700E+03 0.  0.
          5    1    3    3  502    0 -0.11622542611E+03  0.69204961854E+02 -0.39121911021E+01  0.13539000723E+03  0.41800000000E+01 0.  1.
         -5    1    3    3    0  502 -0.21794939164E+02 -0.28031601576E+02  0.48960747964E+02  0.60625220011E+02  0.41800000000E+01 0.  1.
        -11    1    1    2    0    0  0.11900826563E+03 -0.75666528205E+01 -0.30238162747E+03  0.32504595083E+03  0.00000000000E+00 0. -1.
         11    1    1    2    0    0  0.19012099640E+02 -0.33606707457E+02 -0.29186480581E+02  0.48401666991E+02  0.00000000000E+00 0.  1.
</event>
<event>
 7    1  0.2810263E-009  0.1643245E+03  0.7561462E-02  0.1183899E+00
          1   -1    0    0  501    0  0.00000000000E+00  0.00000000000E+00  0.78778960309E+02  0.78778960309E+02  0.00000000000E+00 0. -1.
         -1   -1    0    0    0  501 -0.00000000000E+00 -0.00000000000E+00 -0.41076386509E+03  0.41076386509E+03  0.00000000000E+00 0.  1.
         25    2    1    2    0    0 -0.12246361193E+03  0.72233710376E+02 -0.18642799817E+03  0.26573553396E+03  0.12507969599E+03 0.  0.
          5    1    3    3  502    0  0.22911217358E+02  0.22448633929E+02 -0.15553467857E+02  0.35892169181E+02  0.41800000000E+01 0. -1.
         -5    1    3    3    0  502 -0.14537482928E+03  0.49785076447E+02 -0.17087453031E+03  0.22984336478E+03  0.41800000000E+01 0. -1.
        -11    1    1    2    0    0  0.76257026465E+02 -0.38894599705E+02 -0.22979155981E+02  0.88633885061E+02  0.00000000000E+00 0.  1.
         11    1    1    2    0    0  0.46206585461E+02 -0.33339110671E+02 -0.12257775064E+03  0.13517340638E+03  0.00000000000E+00 0. -1.
</event>
<event>
 7    1  0.2810263E-009  0.1326372E+03  0.7561462E-02  0.1223594E+00
          2   -1    0    0  501    0  0.00000000000E+00  0.00000000000E+00  0.30684677845E+03  0.30684677845E+03  0.00000000000E+00 0. -1.
         -2   -1    0    0    0  501 -0.00000000000E+00 -0.00000000000E+00 -0.74265043582E+02  0.74265043582E+02  0.00000000000E+00 0.  1.
         25    2    1    2    0    0 -0.46213096687E+02  0.93433440926E+02  0.10935276136E+03  0.19614264710E+03  0.12509377844E+03 0.  0.
          5    1    3    3  502    0 -0.77925404404E+02  0.93141131091E+02  0.55681613447E+02  0.13366208673E+03  0.41800000000E+01 0.  1.
         -5    1    3    3    0  502  0.31712307718E+02  0.29230983471E+00  0.53671147916E+02  0.62480560372E+02  0.41800000000E+01 0.  1.
        -11    1    1    2    0    0 -0.55991451036E+01 -0.26742549192E+02 -0.83937840031E+01  0.28582686596E+02  0.00000000000E+00 0.  1.
         11    1    1    2    0    0  0.51812241790E+02 -0.66690891734E+02  0.13162275751E+03  0.15638648834E+03  0.00000000000E+00 0. -1.
</event>
<event>
 7    1  0.2810263E-009  0.9179517E+02  0.7561462E-02  0.1298562E+00
          2   -1    0    0  501    0  0.00000000000E+00  0.00000000000E+00  0.20901150577E+04  0.20901150577E+04  0.00000000000E+00 0. -1.
         -2   -1    0    0    0  501 -0.00000000000E+00 -0.00000000000E+00 -0.15264175783E+02  0.15264175783E+02  0.00000000000E+00 0.  1.
         25    2    1    2    0    0  0.19962533417E+02 -0.48043898157E+02  0.18752439234E+04  0.18801314436E+04  0.12509098358E+03 0.  0.
          5    1    3    3  502    0 -0.40004734572E+02 -0.15844969137E+02  0.13211283081E+04  0.13218354363E+04  0.41800000000E+01 0.  1.
         -5    1    3    3    0  502  0.59967267988E+02 -0.32198929020E+02  0.55411561531E+03  0.55829600732E+03  0.41800000000E+01 0.  1.
        -11    1    1    2    0    0 -0.33556383113E+02  0.15631585382E+02  0.19689070331E+02  0.41928949422E+02  0.00000000000E+00 0.  1.
         11    1    1    2    0    0  0.13593849696E+02  0.32412312775E+02  0.17991788817E+03  0.18331884042E+03  0.00000000000E+00 0. -1.
</event>
<event>
 7    1  0.2810263E-009  0.1273002E+03  0.7561462E-02  0.1231518E+00
          2   -1    0    0  501    0  0.00000000000E+00  0.00000000000E+00  0.21210439519E+03  0.21210439519E+03  0.00000000000E+00 0. -1.
         -2   -1    0    0    0  501 -0.00000000000E+00 -0.00000000000E+00 -0.98083409616E+02  0.98083409616E+02  0.00000000000E+00 0.  1.
         25    2    1    2    0    0  0.21261833977E+02  0.76589916444E+02  0.67875153911E+01  0.14836072370E+03  0.12508698208E+03 0.  0.
          5    1    3    3  502    0  0.68993633873E+02  0.17699753986E+02 -0.50256412640E+01  0.71527143633E+02  0.41800000000E+01 0. -1.
         -5    1    3    3    0  502 -0.47731799896E+02  0.58890162458E+02  0.11813156655E+02  0.76833580066E+02  0.41800000000E+01 0. -1.
        -11    1    1    2    0    0  0.25626174395E+02 -0.14239112820E+02  0.12185954993E+00  0.29316684631E+02  0.00000000000E+00 0.  1.
         11    1    1    2    0    0 -0.46888008372E+02 -0.62350803624E+02  0.10711161063E+03  0.13251039647E+03  0.00000000000E+00 0. -1.
</event>
<event>
 7    1  0.2810263E-009  0.1132876E+03  0.7561462E-02  0.1254600E+00
          2   -1    0    0  501    0  0.00000000000E+00  0.00000000000E+00  0.42050421710E+03  0.42050421710E+03  0.00000000000E+00 0. -1.
         -2   -1    0    0    0  501 -0.00000000000E+00 -0.00000000000E+00 -0.39340924313E+02  0.39340924313E+02  0.00000000000E+00 0.  1.
         25    2    1    2    0    0  0.41326542412E+02  0.39478671766E+02  0.13907324240E+03  0.19559019640E+03  0.12509080520E+03 0.  0.
          5    1    3    3  502    0 -0.36188661029E+02  0.10165340941E+01  0.87455191022E+02  0.94744579610E+02  0.41800000000E+01 0.  1.
         -5    1    3    3    0  502  0.77515203441E+02  0.38462137672E+02  0.51618051374E+02  0.10084561679E+03  0.41800000000E+01 0.  1.
        -11    1    1    2    0    0  0.91823771792E+01 -0.50893571304E+02  0.14916984848E+03  0.15788006634E+03  0.00000000000E+00 0. -1.
         11    1    1    2    0    0 -0.50508919591E+02  0.11414899538E+02  0.92920201904E+02  0.10637487867E+03  0.00000000000E+00 0.  1.
</event>
<event>
 7    1  0.2810263E-009  0.1099465E+03  0.7561462E-02  0.1260669E+00
          2   -1    0    0  501    0  0.00000000000E+00  0.00000000000E+00  0.72872068495E+02  0.72872068495E+02  0.00000000000E+00 0. -1.
         -2   -1    0    0    0  501 -0.00000000000E+00 -0.00000000000E+00 -0.29696714905E+03  0.29696714905E+03  0.00000000000E+00 0.  1.
         25    2    1    2    0    0 -0.66326310212E+02 -0.35165552579E+02 -0.20120719052E+03  0.24853080098E+03  0.12508968784E+03 0.  0.
          5    1    3    3  502    0  0.97254298201E+01 -0.58798943054E+02 -0.12345697778E+03  0.13715318973E+03  0.41800000000E+01 0.  1.
         -5    1    3    3    0  502 -0.76051740032E+02  0.23633390475E+02 -0.77750212738E+02  0.11137761125E+03  0.41800000000E+01 0.  1.
        -11    1    1    2    0    0  0.18663606919E+02  0.25772342894E+02 -0.54669915844E+02  0.63256174243E+02  0.00000000000E+00 0.  1.
         11    1    1    2    0    0  0.47662703293E+02  0.93932096846E+01  0.31782025813E+02  0.58052242318E+02  0.00000000000E+00 0. -1.
</event>
<event>
 7    1  0.2810263E-009  0.3182194E+03  0.7561462E-02  0.1076472E+00
          2   -1    0    0  501    0  0.00000000000E+00  0.00000000000E+00  0.55179816743E+03  0.55179816743E+03  0.00000000000E+00 0. -1.
         -2   -1    0    0    0  501 -0.00000000000E+00 -0.00000000000E+00 -0.18747254610E+03  0.18747254610E+03  0.00000000000E+00 0.  1.
         25    2    1    2    0    0  0.28527505611E+03 -0.96834509554E+02  0.20973329304E+03  0.38780734574E+03  0.12509078034E+03 0.  0.
          5    1    3    3  502    0  0.15950176605E+03 -0.11805369420E+03  0.12297113328E+03  0.23348845819E+03  0.41800000000E+01 0. -1.
         -5    1    3    3    0  502  0.12577329006E+03  0.21219184649E+02  0.86762159756E+02  0.15431888755E+03  0.41800000000E+01 0. -1.
        -11    1    1    2    0    0 -0.76683013987E+02 -0.76079746372E+01  0.11815694233E+02  0.77960095834E+02  0.00000000000E+00 0.  1.
         11    1    1    2    0    0 -0.20859204212E+03  0.10444248419E+03  0.14277663406E+03  0.27350327196E+03  0.00000000000E+00 0. -1.
</event>
<event>
 7    1  0.2810263E-009  0.9057277E+02  0.7561462E-02  0.1301471E+00
          1   -1    0    0  501    0  0.00000000000E+00  0.00000000000E+00  0.15797251171E+03  0.15797251171E+03  0.00000000000E+00 0. -1.
         -1   -1    0    0    0  501 -0.00000000000E+00 -0.00000000000E+00 -0.69807989164E+02  0.69807989164E+02  0.00000000000E+00 0.  1.
         25    2    1    2    0    0  0.54834922988E+01  0.24458496144E+02  0.68397867529E+02  0.14475937208E+03  0.12509484722E+03 0.  0.
          5    1    3    3  502    0  0.48777827195E+02 -0.23525665635E+02  0.56924697140E+01  0.54613276599E+02  0.41800000000E+01 0. -1.
         -5    1    3    3    0  502 -0.43294334897E+02  0.47984161779E+02  0.62705397815E+02  0.90146095483E+02  0.41800000000E+01 0. -1.
        -11    1    1    2    0    0  0.15531212107E+02 -0.35193428008E+02 -0.14758420524E+02  0.41202025446E+02  0.00000000000E+00 0.  1.
         11    1    1    2    0    0 -0.21014704406E+02  0.10734931864E+02  0.34525075536E+02  0.41819103340E+02  0.00000000000E+00 0. -1.
</event>
<event>
 7    1  0.2810263E-009  0.1004513E+03  0.7561462E-02  0.1279350E+00
         -1   -1    0    0    0  501 -0.00000000000E+00  0.00000000000E+00  0.41896405057E+02  0.41896405057E+02  0.00000000000E+00 0.  1.
          1   -1    0    0  501    0  0.00000000000E+00 -0.00000000000E+00 -0.29018926442E+03  0.29018926442E+03  0.00000000000E+00 0. -1.
         25    2    1    2    0    0  0.22606341334E+02 -0.59061121816E+01 -0.14837417559E+03  0.19546978842E+03  0.12509042078E+03 0.  0.
          5    1    3    3  502    0 -0.37376964857E+02 -0.42559514314E+02 -0.68614782758E+02  0.89071940438E+02  0.41800000000E+01 0. -1.
         -5    1    3    3    0  502  0.59983306190E+02  0.36653402132E+02 -0.79759392836E+02  0.10639784798E+03  0.41800000000E+01 0. -1.
        -11    1    1    2    0    0 -0.20887410729E+02  0.37030279104E+02 -0.96259427046E+02  0.10523023706E+03  0.00000000000E+00 0. -1.
         11    1    1    2    0    0 -0.17189306045E+01 -0.31124166922E+02 -0.36592567209E+01  0.31385643992E+02  0.00000000000E+00 0.  1.
</event>
<event>
 7    1  0.2810263E-009  0.1754333E+03  0.7561462E-02  0.1172297E+00
          1   -1    0    0  501    0  0.00000000000E+00  0.00000000000E+00  0.17544416013E+04  0.17544416013E+04  0.00000000000E+00 0.  1.
         -1   -1    0    0    0  501 -0.00000000000E+00 -0.00000000000E+00 -0.19267442732E+02  0.19267442732E+02  0.00000000000E+00 0. -1.
         25    2    1    2    0    0  0.14746210143E+03  0.15161908242E+02  0.87274668542E+03  0.89404069028E+03  0.12508806559E+03 0.  0.
          5    1    3    3  502    0  0.95540705111E+02  0.56515124832E+02  0.70313107693E+03  0.71185164845E+03  0.41800000000E+01 0.  1.
         -5    1    3    3    0  502  0.51921396319E+02 -0.41353216590E+02  0.16961560850E+03  0.18218904183E+03  0.41800000000E+01 0.  1.
        -11    1    1    2    0    0 -0.58228079062E+02 -0.50716517270E+02  0.39275920096E+03  0.40027798372E+03  0.00000000000E+00 0.  1.
         11    1    1    2    0    0 -0.89234022368E+02  0.35554609028E+02  0.46966827218E+03  0.47939037001E+03  0.00000000000E+00 0. -1.
</event>
<event>
 7    1  0.2810263E-009  0.1001499E+03  0.7561462E-02  0.1279981E+00
         -3   -1    0    0    0  501 -0.00000000000E+00  0.00000000000E+00  0.22264476739E+03  0.22264476739E+03  0.00000000000E+00 0.  1.
          3   -1    0    0  501    0  0.00000000000E+00 -0.00000000000E+00 -0.60802741875E+02  0.60802741875E+02  0.00000000000E+00 0. -1.
         25    2    1    2    0    0  0.26830823449E+02  0.14382627506E+02  0.62550209405E+02  0.14312896112E+03  0.12508644113E+03 0.  0.
          5    1    3    3  502    0  0.29506350747E+01  0.54469472748E+02  0.76680675967E+02  0.94196752468E+02  0.41800000000E+01 0. -1.
         -5    1    3    3    0  502  0.23880188374E+02 -0.40086845242E+02 -0.14130466562E+02  0.48932208651E+02  0.41800000000E+01 0. -1.
        -11    1    1    2    0    0 -0.79936090799E+01 -0.54151583321E+02  0.48697242813E+02  0.73264679211E+02  0.00000000000E+00 0. -1.
         11    1    1    2    0    0 -0.18837214369E+02  0.39768955815E+02  0.50594573294E+02  0.67053868931E+02  0.00000000000E+00 0.  1.
</event>
<event>
 7    1  0.2810263E-009  0.8975816E+02  0.7561462E-02  0.1303438E+00
          1   -1    0    0  501    0  0.00000000000E+00  0.00000000000E+00  0.35487136215E+02  0.35487136215E+02  0.00000000000E+00 0. -1.
         -1   -1    0    0    0  501 -0.00000000000E+00 -0.00000000000E+00 -0.24105135449E+03  0.24105135449E+03  0.00000000000E+00 0.  1.
         25    2    1    2    0    0 -0.10521819680E+02 -0.20500399269E+00 -0.12943781149E+03  0.18031378451E+03  0.12509261819E+03 0.  0.
          5    1    3    3  502    0 -0.35749886281E+02 -0.53296918677E+02 -0.50307422816E+02  0.81651240652E+02  0.41800000000E+01 0.  1.
         -5    1    3    3    0  502  0.25228066601E+02  0.53091914684E+02 -0.79130388672E+02  0.98662543858E+02  0.41800000000E+01 0.  1.
        -11    1    1    2    0    0 -0.11684934290E+02 -0.21974836874E+02 -0.20039860056E+02  0.31953515238E+02  0.00000000000E+00 0. -1.
         11    1    1    2    0    0  0.22206753970E+02  0.22179840867E+02 -0.56086546726E+02  0.64271190952E+02  0.00000000000E+00 0.  1.
</event>
<event>
 7    1  0.2810263E-009  0.1648087E+03  0.7561462E-02  0.1183372E+00
          1   -1    0    0  501    0  0.00000000000E+00  0.00000000000E+00  0.14091203309E+04  0.14091203309E+04  0.00000000000E+00 0. -1.
         -1   -1    0    0    0  501 -0.00000000000E+00 -0.00000000000E+00 -0.25524693735E+02  0.25524693735E+02  0.00000000000E+00 0.  1.
         25    2    1    2    0    0 -0.89631095340E+02 -0.11147771227E+03  0.95021691458E+03  0.96903089917E+03  0.12509070789E+03 0.  0.
          5    1    3    3  502    0  0.17042475266E+02 -0.23848034125E+02  0.42261133140E+03  0.42364724066E+03  0.41800000000E+01 0. -1.
         -5    1    3    3    0  502 -0.10667357061E+03 -0.87629678149E+02  0.52760558319E+03  0.54538365851E+03  0.41800000000E+01 0. -1.
        -11    1    1    2    0    0  0.92309949329E+02  0.59448917477E+02  0.21882485208E+03  0.24482568579E+03  0.00000000000E+00 0.  1.
         11    1    1    2    0    0 -0.26788539891E+01  0.52028794796E+02  0.21455387046E+03  0.22078843963E+03  0.00000000000E+00 0. -1.
</event>
<event>
 7    1  0.2810263E-009  0.1653431E+03  0.7561462E-02  0.1182793E+00
          1   -1    0    0  501    0  0.00000000000E+00  0.00000000000E+00  0.27228392428E+03  0.27228392428E+03  0.00000000000E+00 0. -1.
         -1   -1    0    0    0  501 -0.00000000000E+00 -0.00000000000E+00 -0.14356086185E+03  0.14356086185E+03  0.00000000000E+00 0.  1.
         25    2    1    2    0    0  0.15269904396E+03  0.24480060365E+01  0.96846555104E+00  0.19741130487E+03  0.12508914663E+03 0.  0.
          5    1    3    3  502    0  0.10849978223E+02  0.95162970826E+00  0.46834164586E+02  0.48265298082E+02  0.41800000000E+01 0.  1.
         -5    1    3    3    0  502  0.14184906574E+03  0.14963763282E+01 -0.45865699035E+02  0.14914600679E+03  0.41800000000E+01 0.  1.
        -11    1    1    2    0    0 -0.50339243952E+02  0.41950268687E+02  0.44189858525E+02  0.79035486467E+02  0.00000000000E+00 0.  1.
         11    1    1    2    0    0 -0.10235980001E+03 -0.44398274723E+02  0.83564738356E+02  0.13939799479E+03  0.00000000000E+00 0. -1.
</event>
<event>
 7    1  0.2810263E-009  0.1574639E+03  0.7561462E-02  0.1191590E+00
         -1   -1    0    0    0  501 -0.00000000000E+00  0.00000000000E+00  0.76589674734E+03  0.76589674734E+03  0.00000000000E+00 0.  1.
          1   -1    0    0  501    0  0.00000000000E+00 -0.00000000000E+00 -0.34322702646E+02  0.34322702646E+02  0.00000000000E+00 0. -1.
         25    2    1    2    0    0 -0.68800905986E+02  0.97386760744E+02  0.40966406549E+03  0.44462237539E+03  0.12508662723E+03 0.  0.
          5    1    3    3  502    0  0.33837899411E+02  0.39207900520E+02  0.16458028185E+03  0.17258738214E+03  0.41800000000E+01 0. -1.
         -5    1    3    3    0  502 -0.10263880540E+03  0.58178860225E+02  0.24508378364E+03  0.27203499325E+03  0.41800000000E+01 0. -1.
        -11    1    1    2    0    0  0.87730840756E+02 -0.85838539822E+02  0.30123019783E+03  0.32527617101E+03  0.00000000000E+00 0.  1.
         11    1    1    2    0    0 -0.18929934771E+02 -0.11548220922E+02  0.20679781374E+02  0.30320903591E+02  0.00000000000E+00 0. -1.
</event>
<event>
 7    1  0.2810263E-009  0.1090152E+03  0.7561462E-02  0.1262405E+00
         -1   -1    0    0    0  501 -0.00000000000E+00  0.00000000000E+00  0.13874407754E+03  0.13874407754E+03  0.00000000000E+00 0.  1.
          1   -1    0    0  501    0  0.00000000000E+00 -0.00000000000E+00 -0.11225898743E+03  0.11225898743E+03  0.00000000000E+00 0. -1.
         25    2    1    2    0    0  0.54368658903E+02  0.14181046732E+02 -0.60904661854E+01  0.13726464136E+03  0.12508970714E+03 0.  0.
          5    1    3    3  502    0  0.15850536778E+02 -0.53201808857E+02 -0.18264421466E+02  0.58589533820E+02  0.41800000000E+01 0.  1.
         -5    1    3    3    0  502  0.38518122125E+02  0.67382855589E+02  0.12173955280E+02  0.78675107541E+02  0.41800000000E+01 0.  1.
        -11    1    1    2    0    0 -0.36917394302E+02 -0.39381622182E+02  0.53989918277E+02  0.76346037509E+02  0.00000000000E+00 0.  1.
         11    1    1    2    0    0 -0.17451264601E+02  0.25200575450E+02 -0.21414361979E+02  0.37392386098E+02  0.00000000000E+00 0. -1.
</event>
<event>
 7    1  0.2810263E-009  0.1381368E+03  0.7561462E-02  0.1215858E+00
          2   -1    0    0  501    0  0.00000000000E+00  0.00000000000E+00  0.32587951059E+02  0.32587951059E+02  0.00000000000E+00 0.  1.
         -2   -1    0    0    0  501 -0.00000000000E+00 -0.00000000000E+00 -0.63041274378E+03  0.63041274378E+03  0.00000000000E+00 0. -1.
         25    2    1    2    0    0  0.83642036507E+02  0.40454839102E+02 -0.29882533769E+03  0.33701048728E+03  0.12508757658E+03 0.  0.
          5    1    3    3  502    0  0.50053131560E+02 -0.42653546443E+02 -0.13473971254E+03  0.14998967810E+03  0.41800000000E+01 0. -1.
         -5    1    3    3    0  502  0.33588904947E+02  0.83108385545E+02 -0.16408562516E+03  0.18702080918E+03  0.41800000000E+01 0. -1.
        -11    1    1    2    0    0 -0.94116622708E+02 -0.17941629613E+02 -0.27595170582E+03  0.29211159629E+03  0.00000000000E+00 0. -1.
         11    1    1    2    0    0  0.10474586201E+02 -0.22513209489E+02 -0.23047749205E+02  0.33878611262E+02  0.00000000000E+00 0.  1.
</event>
<event>
 7    1  0.2810263E-009  0.1168166E+03  0.7561462E-02  0.1248443E+00
         -3   -1    0    0    0  501 -0.00000000000E+00  0.00000000000E+00  0.85199700921E+02  0.85199700921E+02  0.00000000000E+00 0.  1.
          3   -1    0    0  501    0  0.00000000000E+00 -0.00000000000E+00 -0.20429253850E+03  0.20429253850E+03  0.00000000000E+00 0. -1.
         25    2    1    2    0    0 -0.34729255827E+02 -0.60728468180E+02 -0.94004678643E+02  0.17140152571E+03  0.12509010892E+03 0.  0.
          5    1    3    3  502    0 -0.12039915144E+02 -0.91547944692E+02 -0.30860077454E+02  0.97446408422E+02  0.41800000000E+01 0. -1.
         -5    1    3    3    0  502 -0.22689340683E+02  0.30819476511E+02 -0.63144601189E+02  0.73955117283E+02  0.41800000000E+01 0. -1.
        -11    1    1    2    0    0  0.56349832881E+02  0.58077603847E+02 -0.41381583613E+02  0.90888652739E+02  0.00000000000E+00 0.  1.
         11    1    1    2    0    0 -0.21620577054E+02  0.26508643330E+01  0.16293424675E+02  0.27202060979E+02  0.00000000000E+00 0. -1.
</event>
<event>
 7    1  0.2810263E-009  0.1207240E+03  0.7561462E-02  0.1241907E+00
         -4   -1    0    0    0  501 -0.00000000000E+00  0.00000000000E+00  0.46541958304E+03  0.46541958304E+03  0.00000000000E+00 0.  1.
          4   -1    0    0  501    0  0.00000000000E+00 -0.00000000000E+00 -0.91642887631E+02  0.91642887631E+02  0.00000000000E+00 0. -1.
         25    2    1    2    0    0 -0.88413437202E+02 -0.42814374819E+02  0.39058162253E+03  0.42172430526E+03  0.12508948486E+03 0.  0.
          5    1    3    3  502    0 -0.70677705478E+02 -0.76051660507E+02  0.35441882476E+03  0.36933638984E+03  0.41800000000E+01 0.  1.
         -5    1    3    3    0  502 -0.17735731724E+02  0.33237285688E+02  0.36162797773E+02  0.52387915425E+02  0.41800000000E+01 0.  1.
        -11    1    1    2    0    0  0.60785770552E+02  0.20586295151E+02  0.34584177120E+02  0.72902474284E+02  0.00000000000E+00 0.  1.
         11    1    1    2    0    0  0.27627666650E+02  0.22228079667E+02 -0.51389104247E+02  0.62435691119E+02  0.00000000000E+00 0. -1.
</event>
<event>
 7    1  0.2810263E-009  0.1170402E+03  0.7561462E-02  0.1248061E+00
          3   -1    0    0  501    0  0.00000000000E+00  0.00000000000E+00  0.13360387912E+03  0.13360387912E+03  0.00000000000E+00 0. -1.
         -3   -1    0    0    0  501 -0.00000000000E+00 -0.00000000000E+00 -0.12458289777E+03  0.12458289777E+03  0.00000000000E+00 0.  1.
         25    2    1    2    0    0  0.44278042089E+02  0.36898489564E+02 -0.32310355157E+02  0.14147338679E+03  0.12509483033E+03 0.  0.
          5    1    3    3  502    0  0.21061857083E+02  0.82948013929E+02 -0.15514194387E+02  0.87075469944E+02  0.41800000000E+01 0.  1.
         -5    1    3    3    0  502  0.23216185006E+02 -0.46049524365E+02 -0.16796160770E+02  0.54397916845E+02  0.41800000000E+01 0.  1.
        -11    1    1    2    0    0 -0.63415156518E+01  0.24047554221E+02 -0.11677455961E+02  0.27474764103E+02  0.00000000000E+00 0.  1.
         11    1    1    2    0    0 -0.37936526438E+02 -0.60946043785E+02  0.53008792467E+02  0.89238625998E+02  0.00000000000E+00 0. -1.
</event>
<event>
 7    1  0.2810263E-009  0.7761394E+02  0.7561462E-02  0.1335962E+00
          1   -1    0    0  501    0  0.00000000000E+00  0.00000000000E+00  0.80169489592E+03  0.80169489592E+03  0.00000000000E+00 0. -1.
         -1   -1    0    0    0  501 -0.00000000000E+00 -0.00000000000E+00 -0.15899767442E+02  0.15899767442E+02  0.00000000000E+00 0.  1.
         25    2    1    2    0    0  0.85378978086E+00 -0.25977469516E+02  0.48257993039E+03  0.49920428156E+03  0.12508384241E+03 0.  0.
          5    1    3    3  502    0 -0.26217599392E+02 -0.30156455247E+02  0.43366571250E+02  0.59117731798E+02  0.41800000000E+01 0. -1.
         -5    1    3    3    0  502  0.27071389173E+02  0.41789857311E+01  0.43921335914E+03  0.44008654977E+03  0.41800000000E+01 0. -1.
        -11    1    1    2    0    0 -0.41411328750E+02  0.50962361291E+01  0.76569554236E+02  0.87199578023E+02  0.00000000000E+00 0.  1.
         11    1    1    2    0    0  0.40557538969E+02  0.20881233387E+02  0.22664564385E+03  0.23119080378E+03  0.00000000000E+00 0. -1.
</event>
<event>
 7    1  0.2810263E-009  0.7827433E+02  0.7561462E-02  0.1334021E+00
          1   -1    0    0  501    0  0.00000000000E+00  0.00000000000E+00  0.48569958495E+02  0.48569958495E+02  0.00000000000E+00 0. -1.
         -1   -1    0    0    0  501 -0.00000000000E+00 -0.00000000000E+00 -0.24163675776E+03  0.24163675776E+03  0.00000000000E+00 0.  1.
         25    2    1    2    0    0  0.84031904710E+01 -0.19328801397E+02 -0.14109506327E+03  0.18973307674E+03  0.12508639957E+03 0.  0.
          5    1    3    3  502    0  0.14426282030E+02  0.25520557757E+02  0.10541889856E+02  0.31432790572E+02  0.41800000000E+01 0. -1.
         -5    1    3    3    0  502 -0.60230915590E+01 -0.44849359153E+02 -0.15163695313E+03  0.15830028617E+03  0.41800000000E+01 0. -1.
        -11    1    1    2    0    0 -0.43451063915E+02  0.54320858512E+01 -0.11737644386E+02  0.45335138775E+02  0.00000000000E+00 0. -1.
         11    1    1    2    0    0  0.35047873444E+02  0.13896715545E+02 -0.40234091607E+02  0.55138500735E+02  0.00000000000E+00 0.  1.
</event>
<event>
 7    1  0.2810263E-009  0.1678615E+03  0.7561462E-02  0.1180096E+00
         -2   -1    0    0    0  501 -0.00000000000E+00  0.00000000000E+00  0.10260360257E+03  0.10260360257E+03  0.00000000000E+00 0.  1.
          2   -1    0    0  501    0  0.00000000000E+00 -0.00000000000E+00 -0.31930438148E+03  0.31930438148E+03  0.00000000000E+00 0. -1.
         25    2    1    2    0    0  0.12415691524E+03 -0.38264435154E+02 -0.18886956505E+03  0.26114845578E+03  0.12509075407E+03 0.  0.
          5    1    3    3  502    0  0.19949568957E+01  0.35540414726E+02 -0.53473340217E+02  0.64373685974E+02  0.41800000000E+01 0. -1.
         -5    1    3    3    0  502  0.12216195835E+03 -0.73804849880E+02 -0.13539622483E+03  0.19677476980E+03  0.41800000000E+01 0. -1.
        -11    1    1    2    0    0 -0.10378378542E+03 -0.10433753710E+02 -0.27890786095E+02  0.10797144660E+03  0.00000000000E+00 0.  1.
         11    1    1    2    0    0 -0.20373129820E+02  0.48698188864E+02  0.59572229110E-01  0.52788081668E+02  0.00000000000E+00 0. -1.
</event>
<event>
 7    1  0.2810263E-009  0.1005304E+03  0.7561462E-02  0.1279184E+00
         -1   -1    0    0    0  501 -0.00000000000E+00  0.00000000000E+00  0.33320346420E+03  0.33320346420E+03  0.00000000000E+00 0.  1.
          1   -1    0    0  501    0  0.00000000000E+00 -0.00000000000E+00 -0.42030925060E+02  0.42030925060E+02  0.00000000000E+00 0. -1.
         25    2    1    2    0    0 -0.21189761651E+02 -0.35749623970E+02  0.19201355719E+03  0.23290649973E+03  0.12509672203E+03 0.  0.
          5    1    3    3  502    0  0.13587451351E+02  0.41008784929E+02  0.94286023655E+02  0.10379627128E+03  0.41800000000E+01 0. -1.
         -5    1    3    3    0  502 -0.34777213002E+02 -0.76758408899E+02  0.97727533531E+02  0.12911022845E+03  0.41800000000E+01 0. -1.
        -11    1    1    2    0    0  0.41756000608E+02  0.15836805234E+02  0.62314845990E+01  0.45091012265E+02  0.00000000000E+00 0. -1.
         11    1    1    2    0    0 -0.20566238956E+02  0.19912818736E+02  0.92927497358E+02  0.97236877263E+02  0.00000000000E+00 0.  1.
</event>
<event>
 7    1  0.2810263E-009  0.1184200E+03  0.7561462E-02  0.1245726E+00
         -2   -1    0    0    0  501 -0.00000000000E+00  0.00000000000E+00  0.69106575607E+02  0.69106575607E+02  0.00000000000E+00 0.  1.
          2   -1    0    0  501    0  0.00000000000E+00 -0.00000000000E+00 -0.31899233986E+03  0.31899233986E+03  0.00000000000E+00 0. -1.
         25    2    1    2    0    0  0.51223988367E+02  0.62240773846E+02 -0.21607877109E+03  0.26236632202E+03  0.12509292827E+03 0.  0.
          5    1    3    3  502    0 -0.25460485063E+02 -0.15492167204E+02 -0.15259498947E+02  0.33742677019E+02  0.41800000000E+01 0. -1.
         -5    1    3    3    0  502  0.76684473430E+02  0.77732941051E+02 -0.20081927214E+03  0.22862364500E+03  0.41800000000E+01 0. -1.
        -11    1    1    2    0    0 -0.17994712891E+02  0.80577301152E+01  0.22360478091E+02  0.29811536141E+02  0.00000000000E+00 0.  1.
         11    1    1    2    0    0 -0.33229275476E+02 -0.70298503962E+02 -0.56167471258E+02  0.95921057310E+02  0.00000000000E+00 0. -1.
</event>
<event>
 7    1  0.2810263E-009  0.1402010E+03  0.7561462E-02  0.1213059E+00
         -2   -1    0    0    0  501 -0.00000000000E+00  0.00000000000E+00  0.10818445431E+03  0.10818445431E+03  0.00000000000E+00 0.  1.
          2   -1    0    0  501    0  0.00000000000E+00 -0.00000000000E+00 -0.40814441638E+03  0.40814441638E+03  0.00000000000E+00 0. -1.
         25    2    1    2    0    0  0.12893965873E+03  0.14920536034E+02 -0.30856224049E+03  0.35735974827E+03  0.12508907002E+03 0.  0.
          5    1    3    3  502    0  0.12611926758E+03  0.28890403330E+02 -0.15013993042E+03  0.19824277078E+03  0.41800000000E+01 0.  1.
         -5    1    3    3    0  502  0.28203911503E+01 -0.13969867296E+02 -0.15842231007E+03  0.15911697750E+03  0.41800000000E+01 0.  1.
        -11    1    1    2    0    0 -0.92191573251E+02 -0.29148948329E+02  0.43785321479E+02  0.10614189439E+03  0.00000000000E+00 0.  1.
         11    1    1    2    0    0 -0.36748085478E+02  0.14228412295E+02 -0.35183043052E+02  0.52827228028E+02  0.00000000000E+00 0. -1.
</event>
<event>
 7    1  0.2810263E-009  0.9692277E+02  0.7561462E-02  0.1286903E+00
          1   -1    0    0  501    0  0.00000000000E+00  0.00000000000E+00  0.59715245407E+02  0.59715245407E+02  0.00000000000E+00 0. -1.
         -1   -1    0    0    0  501 -0.00000000000E+00 -0.00000000000E+00 -0.33175738561E+03  0.33175738561E+03  0.00000000000E+00 0.  1.
         25    2    1    2    0    0 -0.29450226536E+02  0.29450984500E+02 -0.37584260417E+02  0.13709183106E+03  0.12508763801E+03 0.  0.
          5    1    3    3  502    0 -0.24848743865E+02  0.74915115749E+02 -0.20691561164E+01  0.79066354705E+02  0.41800000000E+01 0.  1.
         -5    1    3    3    0  502 -0.46014826715E+01 -0.45464131249E+02 -0.35515104300E+02  0.58025476357E+02  0.41800000000E+01 0.  1.
        -11    1    1    2    0    0 -0.16272761462E+02 -0.47567417662E+01 -0.30699726563E+01  0.17229454139E+02  0.00000000000E+00 0. -1.
         11    1    1    2    0    0  0.45722987998E+02 -0.24694242733E+02 -0.23138790713E+03  0.23715134581E+03  0.00000000000E+00 0.  1.
</event>
<event>
 7    1  0.2810263E-009  0.1396820E+03  0.7561462E-02  0.1213757E+00
         -2   -1    0    0    0  501 -0.00000000000E+00  0.00000000000E+00  0.13441651376E+02  0.13441651376E+02  0.00000000000E+00 0.  1.
          2   -1    0    0  501    0  0.00000000000E+00 -0.00000000000E+00 -0.16392939405E+04  0.16392939405E+04  0.00000000000E+00 0. -1.
         25    2    1    2    0    0 -0.93479568631E+02  0.21813138866E+01 -0.10803344178E+04  0.10915646196E+04  0.12509067397E+03 0.  0.
          5    1    3    3  502    0  0.57339810965E+01  0.41011957840E+02 -0.48289083228E+03  0.48468122258E+03  0.41800000000E+01 0.  1.
         -5    1    3    3    0  502 -0.99213549727E+02 -0.38830643953E+02 -0.59744358550E+03  0.60688339705E+03  0.41800000000E+01 0.  1.
        -11    1    1    2    0    0  0.87812833546E+02  0.34245409383E+02 -0.36928851891E+03  0.38112708117E+03  0.00000000000E+00 0. -1.
         11    1    1    2    0    0  0.56667350847E+01 -0.36426723269E+02 -0.17622935241E+03  0.18004389105E+03  0.00000000000E+00 0.  1.
</event>
<event>
 7    1  0.2810263E-009  0.2766828E+03  0.7561462E-02  0.1097515E+00
          2   -1    0    0  501    0  0.00000000000E+00  0.00000000000E+00  0.15394186306E+03  0.15394186306E+03  0.00000000000E+00 0. -1.
         -2   -1    0    0    0  501 -0.00000000000E+00 -0.00000000000E+00 -0.51731314005E+03  0.51731314005E+03  0.00000000000E+00 0.  1.
         25    2    1    2    0    0  0.35161393988E+02  0.25352848068E+03 -0.23955804276E+03  0.37222116004E+03  0.12509005549E+03 0.  0.
          5    1    3    3  502    0 -0.41881121478E+02  0.55592105206E+02 -0.38157202696E+02  0.79485564822E+02  0.41800000000E+01 0. -1.
         -5    1    3    3    0  502  0.77042515466E+02  0.19793637548E+03 -0.20140084007E+03  0.29273559522E+03  0.41800000000E+01 0. -1.
        -11    1    1    2    0    0  0.30532229288E+02 -0.84784919694E+02 -0.53377425139E+02  0.10473704763E+03  0.00000000000E+00 0.  1.
         11    1    1    2    0    0 -0.65693623276E+02 -0.16874356099E+03 -0.70435809087E+02  0.19429679544E+03  0.00000000000E+00 0. -1.
</event>
<event>
 7    1  0.4071002E-009  0.1136295E+03  0.7561462E-02  0.1253992E+00
         -2   -1    0    0    0  501 -0.00000000000E+00  0.00000000000E+00  0.42894218283E+02  0.42894218283E+02  0.00000000000E+00 0.  1.
          2   -1    0    0  501    0  0.00000000000E+00 -0.00000000000E+00 -0.41601432503E+03  0.41601432503E+03  0.00000000000E+00 0. -1.
         25    2    1    2    0    0  0.63728929762E+02  0.36616406618E+02 -0.24933500741E+03  0.28847367777E+03  0.12508788560E+03 0.  0.
          5    1    3    3  502    0  0.95679373587E+02  0.16249234855E+02 -0.21960895551E+03  0.24013360011E+03  0.41800000000E+01 0.  1.
         -5    1    3    3    0  502 -0.31950443825E+02  0.20367171763E+02 -0.29726051900E+02  0.48340077656E+02  0.41800000000E+01 0.  1.
        -11    1    1    2    0    0 -0.52097717704E+02  0.15294468722E+01 -0.14498199363E+02  0.54099068222E+02  0.00000000000E+00 0.  1.
         11    1    1    2    0    0 -0.11631212057E+02 -0.38145853491E+02 -0.10928689997E+03  0.11633579732E+03  0.00000000000E+00 0. -1.
</event>
<event>
 7    1  0.2810263E-009  0.7589258E+02  0.7561462E-02  0.1341129E+00
         -3   -1    0    0    0  501 -0.00000000000E+00  0.00000000000E+00  0.21441737068E+02  0.21441737068E+02  0.00000000000E+00 0.  1.
          3   -1    0    0  501    0  0.00000000000E+00 -0.00000000000E+00 -0.86534248273E+03  0.86534248273E+03  0.00000000000E+00 0. -1.
         25    2    1    2    0    0  0.17261900186E+02 -0.16948982537E+02 -0.71242090799E+03  0.72372422810E+03  0.12509183427E+03 0.  0.
          5    1    3    3  502    0  0.34068686424E+02 -0.16385995631E+02 -0.70294750375E+03  0.70397573941E+03  0.41800000000E+01 0.  1.
         -5    1    3    3    0  502 -0.16806786239E+02 -0.56298690624E+00 -0.94734042365E+01  0.19748488695E+02  0.41800000000E+01 0.  1.
        -11    1    1    2    0    0 -0.34210337619E+02  0.49237706876E+02 -0.83454618406E+02  0.10275880649E+03  0.00000000000E+00 0.  1.
         11    1    1    2    0    0  0.16948437434E+02 -0.32288724339E+02 -0.48025219268E+02  0.60301185200E+02  0.00000000000E+00 0. -1.
</event>
<event>
 7    1  0.2810263E-009  0.4556261E+02  0.7561462E-02  0.1470860E+00
         -2   -1    0    0    0  501 -0.00000000000E+00  0.00000000000E+00  0.17752650052E+03  0.17752650052E+03  0.00000000000E+00 0. -1.
          2   -1    0    0  501    0  0.00000000000E+00 -0.00000000000E+00 -0.72122983510E+02  0.72122983510E+02  0.00000000000E+00 0.  1.
         25    2    1    2    0    0  0.80240179061E+01 -0.49906909958E+01  0.94687597771E+02  0.15717070718E+03  0.12509035999E+03 0.  0.
          5    1    3    3  502    0 -0.12250017694E+02  0.14207336424E+02  0.11861542980E+03  0.12016240646E+03  0.41800000000E+01 0.  1.
         -5    1    3    3    0  502  0.20274035600E+02 -0.19198027420E+02 -0.23927832025E+02  0.37008300714E+02  0.41800000000E+01 0.  1.
        -11    1    1    2    0    0 -0.24704430457E+02 -0.35087494900E+01 -0.35054137576E+02  0.43028046299E+02  0.00000000000E+00 0.  1.
         11    1    1    2    0    0  0.16680412551E+02  0.84994404858E+01  0.45770056816E+02  0.49450730555E+02  0.00000000000E+00 0. -1.
</event>
<event>
 7    1  0.3131746E-009  0.2162786E+03  0.7561462E-02  0.1136688E+00
          1   -1    0    0  501    0  0.00000000000E+00  0.00000000000E+00  0.16960722526E+04  0.16960722526E+04  0.00000000000E+00 0. -1.
         -1   -1    0    0    0  501 -0.00000000000E+00 -0.00000000000E+00 -0.30588746656E+02  0.30588746656E+02  0.00000000000E+00 0.  1.
         25    2    1    2    0    0 -0.14899191953E+03 -0.12396853062E+03  0.67926248481E+03  0.71736467559E+03  0.12509103021E+03 0.  0.
          5    1    3    3  502    0 -0.14269706519E+03 -0.56757144832E+02  0.55521050501E+03  0.57607291481E+03  0.41800000000E+01 0. -1.
         -5    1    3    3    0  502 -0.62948543376E+01 -0.67211385792E+02  0.12405197980E+03  0.14129176078E+03  0.41800000000E+01 0. -1.
        -11    1    1    2    0    0  0.45452678111E+02  0.92525552861E+02  0.56953730898E+03  0.57879156024E+03  0.00000000000E+00 0. -1.
         11    1    1    2    0    0  0.10353924142E+03  0.31442977763E+02  0.41668371213E+03  0.43050476341E+03  0.00000000000E+00 0.  1.
</event>
<event>
 7    1  0.2810263E-009  0.1051860E+03  0.7561462E-02  0.1269754E+00
          2   -1    0    0  501    0  0.00000000000E+00  0.00000000000E+00  0.64205814984E+03  0.64205814984E+03  0.00000000000E+00 0. -1.
         -2   -1    0    0    0  501 -0.00000000000E+00 -0.00000000000E+00 -0.23605409550E+02  0.23605409550E+02  0.00000000000E+00 0.  1.
         25    2    1    2    0    0 -0.23206894010E+02  0.53513348434E+02  0.37250686578E+03  0.39725106317E+03  0.12507918990E+03 0.  0.
          5    1    3    3  502    0  0.19810927100E+02 -0.16753208572E+02  0.23810731879E+03  0.23955314753E+03  0.41800000000E+01 0.  1.
         -5    1    3    3    0  502 -0.43017821110E+02  0.70266557006E+02  0.13439954699E+03  0.15769791564E+03  0.41800000000E+01 0.  1.
        -11    1    1    2    0    0 -0.33058905253E+01  0.21647116053E+02  0.23506565295E+02  0.32126082200E+02  0.00000000000E+00 0.  1.
         11    1    1    2    0    0  0.26512784535E+02 -0.75160464487E+02  0.22243930922E+03  0.23628641402E+03  0.00000000000E+00 0. -1.
</event>
<event>
 7    1  0.2810263E-009  0.1062469E+03  0.7561462E-02  0.1267682E+00
          1   -1    0    0  501    0  0.00000000000E+00  0.00000000000E+00  0.54768108531E+03  0.54768108531E+03  0.00000000000E+00 0. -1.
         -1   -1    0    0    0  501 -0.00000000000E+00 -0.00000000000E+00 -0.23596881139E+02  0.23596881139E+02  0.00000000000E+00 0.  1.
         25    2    1    2    0    0  0.15263555544E+02 -0.70989774776E+01  0.22268374510E+03  0.25596555248E+03  0.12508773766E+03 0.  0.
          5    1    3    3  502    0 -0.32188698657E+02 -0.51268270253E+02  0.11975822857E+03  0.13425369107E+03  0.41800000000E+01 0.  1.
         -5    1    3    3    0  502  0.47452254201E+02  0.44169292776E+02  0.10292551653E+03  0.12171186140E+03  0.41800000000E+01 0.  1.
        -11    1    1    2    0    0 -0.38656411724E+02 -0.25806136961E+02  0.21469229087E+03  0.21966577938E+03  0.00000000000E+00 0.  1.
         11    1    1    2    0    0  0.23392856180E+02  0.32905114439E+02  0.86708168200E+02  0.95646634594E+02  0.00000000000E+00 0. -1.
</event>
<event>
 7    1  0.2810263E-009  0.1455419E+03  0.7561462E-02  0.1206061E+00
          1   -1    0    0  501    0  0.00000000000E+00  0.00000000000E+00  0.89403570945E+03  0.89403570945E+03  0.00000000000E+00 0. -1.
         -1   -1    0    0    0  501 -0.00000000000E+00 -0.00000000000E+00 -0.31811510764E+02  0.31811510764E+02  0.00000000000E+00 0.  1.
         25    2    1    2    0    0  0.25470667495E+02 -0.11061550350E+03  0.60575965794E+03  0.62886946623E+03  0.12508995902E+03 0.  0.
          5    1    3    3  502    0  0.31554630282E+02 -0.13379997685E+03  0.43067793773E+03  0.45210517244E+03  0.41800000000E+01 0. -1.
         -5    1    3    3    0  502 -0.60839627866E+01  0.23184473345E+02  0.17508172021E+03  0.17676429379E+03  0.41800000000E+01 0. -1.
        -11    1    1    2    0    0  0.17397981264E+02  0.62034289961E+02  0.52936927599E+02  0.83386217007E+02  0.00000000000E+00 0.  1.
         11    1    1    2    0    0 -0.42868648759E+02  0.48581213543E+02  0.20352761315E+03  0.21359153698E+03  0.00000000000E+00 0. -1.
</event>
<event>
 7    1  0.2810263E-009  0.9506151E+02  0.7561462E-02  0.1291038E+00
          2   -1    0    0  501    0  0.00000000000E+00  0.00000000000E+00  0.75626728309E+03  0.75626728309E+03  0.00000000000E+00 0. -1.
         -2   -1    0    0    0  501 -0.00000000000E+00 -0.00000000000E+00 -0.51676391965E+02  0.51676391965E+02  0.00000000000E+00 0.  1.
         25    2    1    2    0    0  0.84553233174E+02  0.79965593631E+01  0.65721029246E+03  0.67437808230E+03  0.12508890903E+03 0.  0.
          5    1    3    3  502    0  0.71707072224E+02  0.12412428388E+01  0.14380557348E+03  0.16075123718E+03  0.41800000000E+01 0. -1.
         -5    1    3    3    0  502  0.12846160949E+02  0.67553165242E+01  0.51340471898E+03  0.51362684512E+03  0.41800000000E+01 0. -1.
        -11    1    1    2    0    0 -0.68211991715E+02 -0.31029925156E+02 -0.38817656616E+01  0.75038657861E+02  0.00000000000E+00 0.  1.
         11    1    1    2    0    0 -0.16341241459E+02  0.23033365793E+02  0.51262364320E+02  0.58526934892E+02  0.00000000000E+00 0. -1.
</event>
<event>
 7    1  0.2810263E-009  0.1257371E+03  0.7561462E-02  0.1233922E+00
          2   -1    0    0  501    0  0.00000000000E+00  0.00000000000E+00  0.15287329823E+04  0.15287329823E+04  0.00000000000E+00 0.  1.
         -2   -1    0    0    0  501 -0.00000000000E+00 -0.00000000000E+00 -0.14748588014E+02  0.14748588014E+02  0.00000000000E+00 0. -1.
         25    2    1    2    0    0  0.69540824554E+02  0.34824462476E+02  0.11683850908E+04  0.11776332660E+04  0.12509084404E+03 0.  0.
          5    1    3    3  502    0 -0.34426641509E+02  0.66980211900E+01  0.18355524006E+03  0.18692259277E+03  0.41800000000E+01 0.  1.
         -5    1    3    3    0  502  0.10396746606E+03  0.28126441286E+02  0.98482985077E+03  0.99071067324E+03  0.41800000000E+01 0.  1.
        -11    1    1    2    0    0 -0.29971197522E+02  0.23362584434E+02  0.55001961643E+02  0.66852814578E+02  0.00000000000E+00 0. -1.
         11    1    1    2    0    0 -0.39569627032E+02 -0.58187046911E+02  0.29059734183E+03  0.29899548975E+03  0.00000000000E+00 0.  1.
</event>
<event>
 7    1  0.2810263E-009  0.4324890E+02  0.7561462E-02  0.1485579E+00
          2   -1    0    0  501    0  0.00000000000E+00  0.00000000000E+00  0.33207418586E+03  0.33207418586E+03  0.00000000000E+00 0. -1.
         -2   -1    0    0    0  501 -0.00000000000E+00 -0.00000000000E+00 -0.36364806636E+02  0.36364806636E+02  0.00000000000E+00 0.  1.
         25    2    1    2    0    0 -0.15034799537E+02 -0.32285449920E-01  0.14953189679E+03  0.19553170540E+03  0.12508722324E+03 0.  0.
          5    1    3    3  502    0 -0.12874429931E+02  0.20136633096E+02 -0.15769735459E+02  0.28937724425E+02  0.41800000000E+01 0. -1.
         -5    1    3    3    0  502 -0.21603696063E+01 -0.20168918546E+02  0.16530163225E+03  0.16659398097E+03  0.41800000000E+01 0. -1.
        -11    1    1    2    0    0 -0.12967027754E+02  0.31643787918E+01 -0.84079214478E+01  0.15774987955E+02  0.00000000000E+00 0.  1.
         11    1    1    2    0    0  0.28001827292E+02 -0.31320933419E+01  0.15458540388E+03  0.15713229914E+03  0.00000000000E+00 0. -1.
</event>
<event>
 7    1  0.2810263E-009  0.1179120E+03  0.7561462E-02  0.1246582E+00
         -2   -1    0    0    0  501 -0.00000000000E+00  0.00000000000E+00  0.25804104356E+02  0.25804104356E+02  0.00000000000E+00 0.  1.
          2   -1    0    0  501    0  0.00000000000E+00 -0.00000000000E+00 -0.57766387286E+03  0.57766387286E+03  0.00000000000E+00 0. -1.
         25    2    1    2    0    0 -0.49991175241E+02 -0.18902634497E+02 -0.29083982870E+03  0.32107479146E+03  0.12507912920E+03 0.  0.
          5    1    3    3  502    0 -0.62916325632E+02 -0.60076619369E+02 -0.14721016934E+03  0.17104376803E+03  0.41800000000E+01 0. -1.
         -5    1    3    3    0  502  0.12925150391E+02  0.41173984872E+02 -0.14362965936E+03  0.15003102343E+03  0.41800000000E+01 0. -1.
        -11    1    1    2    0    0  0.57719785175E+02  0.48123012604E+02 -0.15678912484E+03  0.17386842039E+03  0.00000000000E+00 0.  1.
         11    1    1    2    0    0 -0.77286099337E+01 -0.29220378107E+02 -0.10423081496E+03  0.10852476536E+03  0.00000000000E+00 0. -1.
</event>
<event>
 7    1  0.2810263E-009  0.1404563E+03  0.7561462E-02  0.1212716E+00
          2   -1    0    0  501    0  0.00000000000E+00  0.00000000000E+00  0.90436045610E+03  0.90436045610E+03  0.00000000000E+00 0. -1.
         -2   -1    0    0    0  501 -0.00000000000E+00 -0.00000000000E+00 -0.31479559357E+02  0.31479559357E+02  0.00000000000E+00 0.  1.
         25    2    1    2    0    0  0.68671211839E+02 -0.97156729167E+02  0.60555570769E+03  0.62968478585E+03  0.12510015612E+03 0.  0.
          5    1    3    3  502    0  0.77670255904E+02 -0.78219542201E+02  0.24724710989E+03  0.27073893548E+03  0.41800000000E+01 0.  1.
         -5    1    3    3    0  502 -0.89990440643E+01 -0.18937186966E+02  0.35830859780E+03  0.35894585038E+03  0.41800000000E+01 0.  1.
        -11    1    1    2    0    0  0.22291744998E+02  0.19730744130E+02  0.52565183901E+02  0.60409624379E+02  0.00000000000E+00 0. -1.
         11    1    1    2    0    0 -0.90962956837E+02  0.77425985037E+02  0.21476000516E+03  0.24574560523E+03  0.00000000000E+00 0.  1.
</event>
<event>
 7    1  0.2810263E-009  0.8050579E+02  0.7561462E-02  0.1327622E+00
          2   -1    0    0  501    0  0.00000000000E+00  0.00000000000E+00  0.99471636449E+02  0.99471636449E+02  0.00000000000E+00 0. -1.
         -2   -1    0    0    0  501 -0.00000000000E+00 -0.00000000000E+00 -0.14479110546E+03  0.14479110546E+03  0.00000000000E+00 0.  1.
         25    2    1    2    0    0  0.51350203059E+02  0.87276867316E+01 -0.24003808459E+02  0.13761118297E+03  0.12509052317E+03 0.  0.
          5    1    3    3  502    0  0.39447205419E+01 -0.29968390145E+02  0.39107985349E+02  0.49604154524E+02  0.41800000000E+01 0.  1.
         -5    1    3    3    0  502  0.47405482517E+02  0.38696076876E+02 -0.63111793808E+02  0.88007028446E+02  0.41800000000E+01 0.  1.
        -11    1    1    2    0    0 -0.30664099826E+02  0.17850342643E+02 -0.50749531875E+02  0.61922828877E+02  0.00000000000E+00 0.  1.
         11    1    1    2    0    0 -0.20686103233E+02 -0.26578029375E+02  0.29433871319E+02  0.44728730065E+02  0.00000000000E+00 0. -1.
</event>
<event>
 7    1  0.2810263E-009  0.3033899E+03  0.7561462E-02  0.1083558E+00
          2   -1    0    0  501    0  0.00000000000E+00  0.00000000000E+00  0.39356717569E+03  0.39356717569E+03  0.00000000000E+00 0. -1.
         -2   -1    0    0    0  501 -0.00000000000E+00 -0.00000000000E+00 -0.24997969745E+03  0.24997969745E+03  0.00000000000E+00 0.  1.
         25    2    1    2    0    0  0.19888544854E+03 -0.21420458672E+03  0.39318218484E+02  0.32036264991E+03  0.12508908242E+03 0.  0.
          5    1    3    3  502    0  0.81238483774E+02 -0.31557049510E+02  0.53929704395E+02  0.10257399298E+03  0.41800000000E+01 0.  1.
         -5    1    3    3    0  502  0.11764696476E+03 -0.18264753721E+03 -0.14611485911E+02  0.21778865693E+03  0.41800000000E+01 0.  1.
        -11    1    1    2    0    0 -0.40114337184E+02  0.62579397322E+01 -0.23417293762E+01  0.40667008175E+02  0.00000000000E+00 0.  1.
         11    1    1    2    0    0 -0.15877111135E+03  0.20794664699E+03  0.10661098913E+03  0.28251721505E+03  0.00000000000E+00 0. -1.
</event>
<event>
 7    1  0.2810263E-009  0.9632789E+02  0.7561462E-02  0.1288213E+00
         -1   -1    0    0    0  501 -0.00000000000E+00  0.00000000000E+00  0.15997637446E+03  0.15997637446E+03  0.00000000000E+00 0.  1.
          1   -1    0    0  501    0  0.00000000000E+00 -0.00000000000E+00 -0.89606308952E+02  0.89606308952E+02  0.00000000000E+00 0. -1.
         25    2    1    2    0    0 -0.32187684176E+02 -0.37098303426E+02  0.26994796284E+02  0.13707010880E+03  0.12508862686E+03 0.  0.
          5    1    3    3  502    0 -0.19399909835E+02  0.21860531994E+02  0.60943292230E+02  0.67718510236E+02  0.41800000000E+01 0. -1.
         -5    1    3    3    0  502 -0.12787774341E+02 -0.58958835420E+02 -0.33948495946E+02  0.69351598567E+02  0.41800000000E+01 0. -1.
        -11    1    1    2    0    0  0.60506651597E+02  0.63253529245E+01  0.17375576444E+02  0.63269073281E+02  0.00000000000E+00 0.  1.
         11    1    1    2    0    0 -0.28318967421E+02  0.30772950502E+02  0.25999692779E+02  0.49243501328E+02  0.00000000000E+00 0. -1.
</event>
<event>
 7    1  0.2810263E-009  0.3034208E+03  0.7561462E-02  0.1083543E+00
         -2   -1    0    0    0  501 -0.00000000000E+00  0.00000000000E+00  0.21498499701E+03  0.21498499701E+03  0.00000000000E+00 0.  1.
          2   -1    0    0  501    0  0.00000000000E+00 -0.00000000000E+00 -0.53078552830E+03  0.53078552830E+03  0.00000000000E+00 0. -1.
         25    2    1    2    0    0 -0.29196736991E+03  0.53800788713E+02 -0.30530125038E+02  0.32360400514E+03  0.12509194078E+03 0.  0.
          5    1    3    3  502    0 -0.83844680242E+02 -0.17237826539E+02 -0.55708379119E+02  0.10221530694E+03  0.41800000000E+01 0. -1.
         -5    1    3    3    0  502 -0.20812268967E+03  0.71038615252E+02  0.25178254081E+02  0.22138869820E+03  0.41800000000E+01 0. -1.
        -11    1    1    2    0    0  0.12464319394E+03  0.24366607733E+01 -0.67266635520E+02  0.14165685075E+03  0.00000000000E+00 0.  1.
         11    1    1    2    0    0  0.16732417597E+03 -0.56237449486E+02 -0.21800377073E+03  0.28050966943E+03  0.00000000000E+00 0. -1.
</event>
<event>
 7    1  0.2810263E-009  0.9396635E+02  0.7561462E-02  0.1293521E+00
         -1   -1    0    0    0  501 -0.00000000000E+00  0.00000000000E+00  0.85348669930E+02  0.85348669930E+02  0.00000000000E+00 0.  1.
          1   -1    0    0  501    0  0.00000000000E+00 -0.00000000000E+00 -0.21155318749E+03  0.21155318749E+03  0.00000000000E+00 0. -1.
         25    2    1    2    0    0 -0.15002543095E+02  0.32348627656E+02 -0.14826532538E+03  0.19723451132E+03  0.12508931104E+03 0.  0.
          5    1    3    3  502    0  0.45764681989E+02 -0.13569186289E+02 -0.87299303630E+02  0.99584987566E+02  0.41800000000E+01 0. -1.
         -5    1    3    3    0  502 -0.60767225084E+02  0.45917813945E+02 -0.60966021746E+02  0.97649523754E+02  0.41800000000E+01 0. -1.
        -11    1    1    2    0    0 -0.17689763647E+02 -0.24319506673E+02  0.48360443789E+02  0.56948210386E+02  0.00000000000E+00 0.  1.
         11    1    1    2    0    0  0.32692306741E+02 -0.80291209829E+01 -0.26299635975E+02  0.42719135715E+02  0.00000000000E+00 0. -1.
</event>
<event>
 7    1  0.2810263E-009  0.1550872E+03  0.7561462E-02  0.1194358E+00
          2   -1    0    0  501    0  0.00000000000E+00  0.00000000000E+00  0.28184262725E+03  0.28184262725E+03  0.00000000000E+00 0. -1.
         -2   -1    0    0    0  501 -0.00000000000E+00 -0.00000000000E+00 -0.27786085042E+03  0.27786085042E+03  0.00000000000E+00 0.  1.
         25    2    1    2    0    0 -0.82135847691E+02 -0.95682334754E+02  0.22658471788E+03  0.28790626276E+03  0.12509186664E+03 0.  0.
          5    1    3    3  502    0 -0.10316208887E+03 -0.83759474812E+02  0.12186335014E+03  0.18035025563E+03  0.41800000000E+01 0.  1.
         -5    1    3    3    0  502  0.21026241174E+02 -0.11922859942E+02  0.10472136774E+03  0.10755600713E+03  0.41800000000E+01 0.  1.
        -11    1    1    2    0    0  0.57293341274E+02  0.36954463470E+01 -0.11164998823E+03  0.12554641831E+03  0.00000000000E+00 0. -1.
         11    1    1    2    0    0  0.24842506417E+02  0.91986888407E+02 -0.11095295282E+03  0.14625079659E+03  0.00000000000E+00 0.  1.
</event>
<event>
 7    1  0.2810263E-009  0.1030208E+03  0.7561462E-02  0.1274069E+00
         -4   -1    0    0    0  501 -0.00000000000E+00  0.00000000000E+00  0.16533123722E+03  0.16533123722E+03  0.00000000000E+00 0.  1.
          4   -1    0    0  501    0  0.00000000000E+00 -0.00000000000E+00 -0.73503472460E+02  0.73503472460E+02  0.00000000000E+00 0. -1.
         25    2    1    2    0    0 -0.22275335494E+01  0.20688252373E+02  0.59688137389E+02  0.14016345934E+03  0.12510058312E+03 0.  0.
          5    1    3    3  502    0 -0.48735613479E+02 -0.18124057636E+02  0.59917815030E+02  0.79443429208E+02  0.41800000000E+01 0.  1.
         -5    1    3    3    0  502  0.46508079930E+02  0.38812310008E+02 -0.22967764076E+00  0.60720030128E+02  0.41800000000E+01 0.  1.
        -11    1    1    2    0    0 -0.19816058636E+02 -0.51552448526E+02  0.21629673146E+02  0.59314196355E+02  0.00000000000E+00 0.  1.
         11    1    1    2    0    0  0.22043592185E+02  0.30864196153E+02  0.10509954220E+02  0.39357053984E+02  0.00000000000E+00 0. -1.
</event>
<event>
 7    1  0.2810263E-009  0.2027768E+03  0.7561462E-02  0.1147417E+00
         -1   -1    0    0    0  501 -0.00000000000E+00  0.00000000000E+00  0.19119680609E+03  0.19119680609E+03  0.00000000000E+00 0.  1.
          1   -1    0    0  501    0  0.00000000000E+00 -0.00000000000E+00 -0.24741729693E+03  0.24741729693E+03  0.00000000000E+00 0. -1.
         25    2    1    2    0    0 -0.35475173323E+02  0.18546694756E+03 -0.18211868554E+02  0.22723439077E+03  0.12508924666E+03 0.  0.
          5    1    3    3  502    0  0.30692469006E+02  0.80357571593E+02 -0.49163009530E+02  0.99165724281E+02  0.41800000000E+01 0.  1.
         -5    1    3    3    0  502 -0.66167642329E+02  0.10510937597E+03  0.30951140976E+02  0.12806866649E+03  0.41800000000E+01 0.  1.
        -11    1    1    2    0    0  0.25312906165E+02 -0.29537786262E+02 -0.39045915954E+02  0.55116309641E+02  0.00000000000E+00 0. -1.
         11    1    1    2    0    0  0.10162267157E+02 -0.15592916130E+03  0.10372936765E+01  0.15626340261E+03  0.00000000000E+00 0.  1.
</event>
<event>
 7    1  0.2810263E-009  0.1024845E+03  0.7561462E-02  0.1275156E+00
         -2   -1    0    0    0  501 -0.00000000000E+00  0.00000000000E+00  0.29760549942E+03  0.29760549942E+03  0.00000000000E+00 0.  1.
          2   -1    0    0  501    0  0.00000000000E+00 -0.00000000000E+00 -0.86907198360E+02  0.86907198360E+02  0.00000000000E+00 0. -1.
         25    2    1    2    0    0 -0.11642369609E+02 -0.77560355121E+02  0.22079753961E+03  0.26561310217E+03  0.12509041966E+03 0.  0.
          5    1    3    3  502    0  0.11160542630E+02 -0.10841910249E+02 -0.13425605591E+02  0.20971981669E+02  0.41800000000E+01 0. -1.
         -5    1    3    3    0  502 -0.22802912239E+02 -0.66718444872E+02  0.23422314520E+03  0.24464112050E+03  0.41800000000E+01 0. -1.
        -11    1    1    2    0    0 -0.23869161680E+02  0.79158348783E+02 -0.35580462751E+01  0.82755306505E+02  0.00000000000E+00 0.  1.
         11    1    1    2    0    0  0.35511531289E+02 -0.15979936620E+01 -0.65411922772E+01  0.36144289102E+02  0.00000000000E+00 0. -1.
</event>
<event>
 7    1  0.2810263E-009  0.1070077E+03  0.7561462E-02  0.1266214E+00
          1   -1    0    0  501    0  0.00000000000E+00  0.00000000000E+00  0.41809809189E+03  0.41809809189E+03  0.00000000000E+00 0. -1.
         -1   -1    0    0    0  501 -0.00000000000E+00 -0.00000000000E+00 -0.37961429928E+02  0.37961429928E+02  0.00000000000E+00 0.  1.
         25    2    1    2    0    0 -0.49364451124E+01 -0.16286355040E+02  0.32244730916E+03  0.34627704084E+03  0.12508360396E+03 0.  0.
          5    1    3    3  502    0  0.89023136668E+01 -0.67090665861E+02  0.23018176263E+03  0.23996150708E+03  0.41800000000E+01 0.  1.
         -5    1    3    3    0  502 -0.13838758779E+02  0.50804310821E+02  0.92265546534E+02  0.10631553376E+03  0.41800000000E+01 0.  1.
        -11    1    1    2    0    0  0.18191082330E+02  0.52107724698E+02  0.33083533555E+02  0.64347887627E+02  0.00000000000E+00 0.  1.
         11    1    1    2    0    0 -0.13254637217E+02 -0.35821369658E+02  0.24605819251E+02  0.45434593350E+02  0.00000000000E+00 0. -1.
</event>
<event>
 7    1  0.2810263E-009  0.1136819E+03  0.7561462E-02  0.1253900E+00
         -3   -1    0    0    0  501 -0.00000000000E+00  0.00000000000E+00  0.12027462795E+03  0.12027462795E+03  0.00000000000E+00 0.  1.
          3   -1    0    0  501    0  0.00000000000E+00 -0.00000000000E+00 -0.20597415332E+03  0.20597415332E+03  0.00000000000E+00 0. -1.
         25    2    1    2    0    0  0.47748919450E+02  0.76874562305E+02  0.25813392091E+02  0.15653464798E+03  0.12508839742E+03 0.  0.
          5    1    3    3  502    0 -0.30669610949E+02  0.36964388697E+02  0.45477319548E+02  0.66277070400E+02  0.41800000000E+01 0. -1.
         -5    1    3    3    0  502  0.78418530399E+02  0.39910173608E+02 -0.19663927457E+02  0.90257577579E+02  0.41800000000E+01 0. -1.
        -11    1    1    2    0    0 -0.17001253442E+02 -0.36912567221E+02  0.67080285144E+01  0.41189536098E+02  0.00000000000E+00 0.  1.
         11    1    1    2    0    0 -0.30747666008E+02 -0.39961995085E+02 -0.11822094597E+03  0.12852459719E+03  0.00000000000E+00 0. -1.
</event>
<event>
 7    1  0.2810263E-009  0.1487850E+03  0.7561462E-02  0.1201974E+00
         -1   -1    0    0    0  501 -0.00000000000E+00  0.00000000000E+00  0.15705767000E+03  0.15705767000E+03  0.00000000000E+00 0.  1.
          1   -1    0    0  501    0  0.00000000000E+00 -0.00000000000E+00 -0.30038333398E+03  0.30038333398E+03  0.00000000000E+00 0. -1.
         25    2    1    2    0    0  0.21900897223E+00 -0.11647706598E+03 -0.22840460748E+03  0.28527743574E+03  0.12509035039E+03 0.  0.
          5    1    3    3  502    0 -0.24437528853E+02  0.19542498863E+02 -0.30972612656E+02  0.44225300598E+02  0.41800000000E+01 0.  1.
         -5    1    3    3    0  502  0.24656537825E+02 -0.13601956484E+03 -0.19743199483E+03  0.24105213515E+03  0.41800000000E+01 0.  1.
        -11    1    1    2    0    0  0.18234115714E+02  0.12516955170E+02  0.59566392056E+02  0.63539847381E+02  0.00000000000E+00 0.  1.
         11    1    1    2    0    0 -0.18453124686E+02  0.10396011081E+03  0.25512551454E+02  0.10862372086E+03  0.00000000000E+00 0. -1.
</event>
<event>
 7    1  0.2810263E-009  0.2840405E+03  0.7561462E-02  0.1093502E+00
          1   -1    0    0  501    0  0.00000000000E+00  0.00000000000E+00  0.47766949094E+03  0.47766949094E+03  0.00000000000E+00 0. -1.
         -1   -1    0    0    0  501 -0.00000000000E+00 -0.00000000000E+00 -0.17354164498E+03  0.17354164498E+03  0.00000000000E+00 0.  1.
         25    2    1    2    0    0  0.80080498585E+02 -0.25185132761E+03  0.11570908820E+03  0.31444755561E+03  0.12508674856E+03 0.  0.
          5    1    3    3  502    0  0.10079697838E+03 -0.11150271166E+03  0.63338292753E+02  0.16316279382E+03  0.41800000000E+01 0. -1.
         -5    1    3    3    0  502 -0.20716479794E+02 -0.14034861596E+03  0.52370795451E+02  0.15128476180E+03  0.41800000000E+01 0. -1.
        -11    1    1    2    0    0 -0.15043191464E+02  0.17263183876E+03  0.92704642694E+02  0.19652531680E+03  0.00000000000E+00 0.  1.
         11    1    1    2    0    0 -0.65037307121E+02  0.79219488848E+02  0.95714115054E+02  0.14023826351E+03  0.00000000000E+00 0. -1.
</event>
<event>
 7    1  0.2810263E-009  0.1051930E+03  0.7561462E-02  0.1269740E+00
         -4   -1    0    0    0  501 -0.00000000000E+00  0.00000000000E+00  0.74962127862E+03  0.74962127862E+03  0.00000000000E+00 0. -1.
          4   -1    0    0  501    0  0.00000000000E+00 -0.00000000000E+00 -0.22656818834E+02  0.22656818834E+02  0.00000000000E+00 0.  1.
         25    2    1    2    0    0 -0.26743261703E+02  0.10809556199E+02  0.59652260138E+03  0.61017798311E+03  0.12508360631E+03 0.  0.
          5    1    3    3  502    0 -0.70808705219E+02  0.89795958610E+01  0.48393381799E+03  0.48918699745E+03  0.41800000000E+01 0. -1.
         -5    1    3    3    0  502  0.44065443516E+02  0.18299603380E+01  0.11258878339E+03  0.12099098566E+03  0.41800000000E+01 0. -1.
        -11    1    1    2    0    0  0.49099770771E+02 -0.36017118978E+02  0.97670724773E+02  0.11509817908E+03  0.00000000000E+00 0. -1.
         11    1    1    2    0    0 -0.22356509068E+02  0.25207562779E+02  0.32771133630E+02  0.47001935262E+02  0.00000000000E+00 0.  1.
</event>
<event>
 7    1  0.2858022E-009  0.1005661E+03  0.7561462E-02  0.1279110E+00
         -1   -1    0    0    0  501 -0.00000000000E+00  0.00000000000E+00  0.33823625229E+02  0.33823625229E+02  0.00000000000E+00 0.  1.
          1   -1    0    0  501    0  0.00000000000E+00 -0.00000000000E+00 -0.52761557124E+03  0.52761557124E+03  0.00000000000E+00 0. -1.
         25    2    1    2    0    0 -0.53314588406E+02  0.46605026059E+02 -0.20303322333E+03  0.24876735722E+03  0.12509290330E+03 0.  0.
          5    1    3    3  502    0 -0.77641204309E+02  0.60044914906E+02 -0.93270784427E+02  0.13546386987E+03  0.41800000000E+01 0. -1.
         -5    1    3    3    0  502  0.24326615903E+02 -0.13439888848E+02 -0.10976243890E+03  0.11330348735E+03  0.41800000000E+01 0. -1.
        -11    1    1    2    0    0  0.44618670358E+02 -0.24210322902E+02 -0.28286562760E+03  0.28738463556E+03  0.00000000000E+00 0. -1.
         11    1    1    2    0    0  0.86959180484E+01 -0.22394703157E+02 -0.78930950890E+01  0.25287203686E+02  0.00000000000E+00 0.  1.
</event>
<event>
 7    1  0.2810263E-009  0.8164135E+02  0.7561462E-02  0.1324457E+00
         -1   -1    0    0    0  501 -0.00000000000E+00  0.00000000000E+00  0.47784747836E+02  0.47784747836E+02  0.00000000000E+00 0.  1.
          1   -1    0    0  501    0  0.00000000000E+00 -0.00000000000E+00 -0.29033627304E+03  0.29033627304E+03  0.00000000000E+00 0. -1.
         25    2    1    2    0    0  0.40931339563E+02  0.16486562976E+02 -0.15990469793E+03  0.20774810142E+03  0.12507029986E+03 0.  0.
          5    1    3    3  502    0  0.26946963529E+02 -0.12625668157E+02  0.12315410729E+02  0.32475961591E+02  0.41800000000E+01 0. -1.
         -5    1    3    3    0  502  0.13984376034E+02  0.29112231133E+02 -0.17222010866E+03  0.17527213983E+03  0.41800000000E+01 0. -1.
        -11    1    1    2    0    0 -0.58913404309E+02  0.18145054440E+02 -0.54194091763E+02  0.82079423669E+02  0.00000000000E+00 0. -1.
         11    1    1    2    0    0  0.17982064746E+02 -0.34631617416E+02 -0.28452735517E+02  0.48293495791E+02  0.00000000000E+00 0.  1.
</event>
<event>
 7    1  0.2810263E-009  0.1076948E+03  0.7561462E-02  0.1264899E+00
          1   -1    0    0  501    0  0.00000000000E+00  0.00000000000E+00  0.74286233956E+03  0.74286233956E+03  0.00000000000E+00 0. -1.
         -1   -1    0    0    0  501 -0.00000000000E+00 -0.00000000000E+00 -0.24247011530E+02  0.24247011530E+02  0.00000000000E+00 0.  1.
         25    2    1    2    0    0 -0.51833669335E+02 -0.56744564903E+02  0.33901354312E+03  0.36943758293E+03  0.12508904965E+03 0.  0.
          5    1    3    3  502    0 -0.57466948826E+02  0.40068986519E+01  0.27463447740E+03  0.28064225274E+03  0.41800000000E+01 0. -1.
         -5    1    3    3    0  502  0.56332794908E+01 -0.60751463555E+02  0.64379065714E+02  0.88795330193E+02  0.41800000000E+01 0. -1.
        -11    1    1    2    0    0  0.64698828758E+02  0.51020395580E+02  0.37322880578E+03  0.38221559449E+03  0.00000000000E+00 0.  1.
         11    1    1    2    0    0 -0.12865159423E+02  0.57241693231E+01  0.63729791346E+01  0.15456173669E+02  0.00000000000E+00 0. -1.
</event>
<event>
 7    1  0.2810263E-009  0.7092093E+02  0.7561462E-02  0.1356989E+00
         -2   -1    0    0    0  501 -0.00000000000E+00  0.00000000000E+00  0.41593036032E+03  0.41593036032E+03  0.00000000000E+00 0. -1.
          2   -1    0    0  501    0  0.00000000000E+00 -0.00000000000E+00 -0.31401590189E+02  0.31401590189E+02  0.00000000000E+00 0.  1.
         25    2    1    2    0    0  0.21329921687E+02  0.25579947835E+02  0.24247877081E+03  0.27486426801E+03  0.12508042312E+03 0.  0.
          5    1    3    3  502    0  0.76666924152E+01 -0.25936587511E+02  0.21111628345E+03  0.21288269606E+03  0.41800000000E+01 0. -1.
         -5    1    3    3    0  502  0.13663229272E+02  0.51516535346E+02  0.31362487356E+02  0.61981571950E+02  0.41800000000E+01 0. -1.
        -11    1    1    2    0    0 -0.26114070634E+02  0.78300509674E+01  0.83505629591E+00  0.27275478039E+02  0.00000000000E+00 0.  1.
         11    1    1    2    0    0  0.47841489467E+01 -0.33409998802E+02  0.14121494303E+03  0.14519220446E+03  0.00000000000E+00 0. -1.
</event>
<event>
 7    1  0.2810263E-009  0.1426097E+03  0.7561462E-02  0.1209860E+00
          1   -1    0    0  501    0  0.00000000000E+00  0.00000000000E+00  0.28247793553E+02  0.28247793553E+02  0.00000000000E+00 0. -1.
         -1   -1    0    0    0  501 -0.00000000000E+00 -0.00000000000E+00 -0.10243291692E+04  0.10243291692E+04  0.00000000000E+00 0.  1.
         25    2    1    2    0    0 -0.73765523440E+02  0.82358361903E+02 -0.74887368827E+03  0.76725706050E+03  0.12508934279E+03 0.  0.
          5    1    3    3  502    0 -0.48943893492E+02  0.10201943788E+03 -0.36749478981E+03  0.38454305787E+03  0.41800000000E+01 0. -1.
         -5    1    3    3    0  502 -0.24821629948E+02 -0.19661075974E+02 -0.38137889846E+03  0.38271400264E+03  0.41800000000E+01 0. -1.
        -11    1    1    2    0    0 -0.88201490089E+01 -0.50927389531E+02 -0.11758482781E+03  0.12844292804E+03  0.00000000000E+00 0.  1.
         11    1    1    2    0    0  0.82585672449E+02 -0.31430972371E+02 -0.12962285962E+03  0.15687697426E+03  0.00000000000E+00 0. -1.
</event>
<event>
 7    1  0.2810263E-009  0.1847479E+03  0.7561462E-02  0.1163286E+00
         -1   -1    0    0    0  501 -0.00000000000E+00  0.00000000000E+00  0.87740626264E+03  0.87740626264E+03  0.00000000000E+00 0.  1.
          1   -1    0    0  501    0  0.00000000000E+00 -0.00000000000E+00 -0.41681191294E+02  0.41681191294E+02  0.00000000000E+00 0. -1.
         25    2    1    2    0    0 -0.23579606154E+02 -0.15132541347E+03  0.52213992389E+03  0.55832831912E+03  0.12508010720E+03 0.  0.
          5    1    3    3  502    0 -0.22176754242E+02 -0.17042181462E+03  0.50016321257E+03  0.52888194801E+03  0.41800000000E+01 0. -1.
         -5    1    3    3    0  502 -0.14028519117E+01  0.19096401155E+02  0.21976711325E+02  0.29446371104E+02  0.41800000000E+01 0. -1.
        -11    1    1    2    0    0  0.91296845769E+01 -0.11409332206E+02  0.19879321922E+02  0.24672078185E+02  0.00000000000E+00 0.  1.
         11    1    1    2    0    0  0.14449921577E+02  0.16273474568E+03  0.29370582553E+03  0.33608705663E+03  0.00000000000E+00 0. -1.
</event>
<event>
 7    1  0.2810263E-009  0.1345789E+03  0.7561462E-02  0.1220815E+00
         -3   -1    0    0    0  501 -0.00000000000E+00  0.00000000000E+00  0.24680352739E+03  0.24680352739E+03  0.00000000000E+00 0.  1.
          3   -1    0    0  501    0  0.00000000000E+00 -0.00000000000E+00 -0.90858688655E+02  0.90858688655E+02  0.00000000000E+00 0. -1.
         25    2    1    2    0    0  0.15826801700E+02 -0.98350096616E+02  0.59425390121E+02  0.17059468826E+03  0.12509173240E+03 0.  0.
          5    1    3    3  502    0 -0.45363847377E+02 -0.19786390353E+01  0.19367475976E+02  0.49541550106E+02  0.41800000000E+01 0. -1.
         -5    1    3    3    0  502  0.61190649077E+02 -0.96371457580E+02  0.40057914146E+02  0.12105313815E+03  0.41800000000E+01 0. -1.
        -11    1    1    2    0    0  0.10291822281E+02  0.33848960589E+01 -0.14857840905E+02  0.18388435593E+02  0.00000000000E+00 0.  1.
         11    1    1    2    0    0 -0.26118623981E+02  0.94965200557E+02  0.11137728952E+03  0.14867909219E+03  0.00000000000E+00 0. -1.
</event>
<event>
 7    1  0.2810263E-009  0.1110081E+03  0.7561462E-02  0.1258714E+00
         -1   -1    0    0    0  501 -0.00000000000E+00  0.00000000000E+00  0.49067640213E+03  0.49067640213E+03  0.00000000000E+00 0.  1.
          1   -1    0    0  501    0  0.00000000000E+00 -0.00000000000E+00 -0.31864501078E+02  0.31864501078E+02  0.00000000000E+00 0. -1.
         25    2    1    2    0    0  0.47554429717E+02 -0.21156696221E+02  0.32909278692E+03  0.35588746192E+03  0.12507914922E+03 0.  0.
          5    1    3    3  502    0  0.35944518645E+01 -0.68782544065E+02  0.14279861359E+03  0.15859657908E+03  0.41800000000E+01 0. -1.
         -5    1    3    3    0  502  0.43959977853E+02  0.47625847844E+02  0.18629417333E+03  0.19729088284E+03  0.41800000000E+01 0. -1.
        -11    1    1    2    0    0  0.57420371545E+01 -0.19949035102E+02  0.28013380856E+00  0.20760863834E+02  0.00000000000E+00 0. -1.
         11    1    1    2    0    0 -0.53296466872E+02  0.41105731323E+02  0.12943898033E+03  0.14589257745E+03  0.00000000000E+00 0.  1.
</event>
<event>
 7    1  0.2810263E-009  0.1709037E+03  0.7561462E-02  0.1176909E+00
         -1   -1    0    0    0  501 -0.00000000000E+00  0.00000000000E+00  0.12769432291E+03  0.12769432291E+03  0.00000000000E+00 0.  1.
          1   -1    0    0  501    0  0.00000000000E+00 -0.00000000000E+00 -0.29309666218E+03  0.29309666218E+03  0.00000000000E+00 0. -1.
         25    2    1    2    0    0  0.15529809258E+03  0.25861375742E+02 -0.55409127134E+02  0.20857653959E+03  0.12509073979E+03 0.  0.
          5    1    3    3  502    0  0.13805647078E+03  0.44405834771E+02  0.26408126024E+01  0.14510655939E+03  0.41800000000E+01 0.  1.
         -5    1    3    3    0  502  0.17241621796E+02 -0.18544459029E+02 -0.58049939736E+02  0.63469980197E+02  0.41800000000E+01 0.  1.
        -11    1    1    2    0    0 -0.79030035542E+02  0.20709248468E+02 -0.88217731348E+02  0.12023721393E+03  0.00000000000E+00 0.  1.
         11    1    1    2    0    0 -0.76268057037E+02 -0.46570624210E+02 -0.21775480787E+02  0.91977231569E+02  0.00000000000E+00 0. -1.
</event>
<event>
 7    1  0.2810263E-009  0.1384928E+03  0.7561462E-02  0.1215371E+00
          1   -1    0    0  501    0  0.00000000000E+00  0.00000000000E+00  0.40345938502E+03  0.40345938502E+03  0.00000000000E+00 0.  1.
         -1   -1    0    0    0  501 -0.00000000000E+00 -0.00000000000E+00 -0.50611961964E+02  0.50611961964E+02  0.00000000000E+00 0. -1.
         25    2    1    2    0    0  0.84267773333E+02 -0.15805559907E+02  0.13976359288E+03  0.20623583757E+03  0.12509390656E+03 0.  0.
          5    1    3    3  502    0  0.53826612607E+02  0.53294458988E+02  0.65118411757E+02  0.99977415116E+02  0.41800000000E+01 0.  1.
         -5    1    3    3    0  502  0.30441160727E+02 -0.69100018895E+02  0.74645181119E+02  0.10625842245E+03  0.41800000000E+01 0.  1.
        -11    1    1    2    0    0  0.71547810001E+01 -0.24546447285E+02  0.57424551697E+02  0.62859351755E+02  0.00000000000E+00 0.  1.
         11    1    1    2    0    0 -0.91422554334E+02  0.40352007193E+02  0.15565927848E+03  0.18497615766E+03  0.00000000000E+00 0. -1.
</event>
<event>
 7    1  0.2810263E-009  0.1433436E+03  0.7561462E-02  0.1208899E+00
         -2   -1    0    0    0  501 -0.00000000000E+00  0.00000000000E+00  0.17087852702E+03  0.17087852702E+03  0.00000000000E+00 0.  1.
          2   -1    0    0  501    0  0.00000000000E+00 -0.00000000000E+00 -0.19465017385E+03  0.19465017385E+03  0.00000000000E+00 0. -1.
         25    2    1    2    0    0 -0.97210292499E+02  0.49257137530E+02  0.69299466185E+02  0.17979576859E+03  0.12509194948E+03 0.  0.
          5    1    3    3  502    0 -0.54315083319E+02 -0.26307864097E+02  0.70368233545E+02  0.92797589848E+02  0.41800000000E+01 0.  1.
         -5    1    3    3    0  502 -0.42895209180E+02  0.75565001627E+02 -0.10687673597E+01  0.86998178746E+02  0.41800000000E+01 0.  1.
        -11    1    1    2    0    0  0.11361896825E+03 -0.40657327293E+02 -0.36300291086E+02  0.12601586940E+03  0.00000000000E+00 0.  1.
         11    1    1    2    0    0 -0.16408675747E+02 -0.85998102365E+01 -0.56770821930E+02  0.59717062875E+02  0.00000000000E+00 0. -1.
</event>
<event>
 7    1  0.2810263E-009  0.1564290E+03  0.7561462E-02  0.1192788E+00
          2   -1    0    0  501    0  0.00000000000E+00  0.00000000000E+00  0.10150487019E+04  0.10150487019E+04  0.00000000000E+00 0. -1.
         -2   -1    0    0    0  501 -0.00000000000E+00 -0.00000000000E+00 -0.29551254114E+02  0.29551254114E+02  0.00000000000E+00 0.  1.
         25    2    1    2    0    0 -0.60052672240E+02  0.11912085035E+03  0.46963373059E+03  0.50398469402E+03  0.12509448615E+03 0.  0.
          5    1    3    3  502    0 -0.74523308994E+01  0.10762636982E+03  0.18438210469E+03  0.21366610786E+03  0.41800000000E+01 0.  1.
         -5    1    3    3    0  502 -0.52600341340E+02  0.11494480532E+02  0.28525162590E+03  0.29031858616E+03  0.41800000000E+01 0.  1.
        -11    1    1    2    0    0  0.16751408397E+02  0.65356256959E+01  0.18496674802E+02  0.25796338214E+02  0.00000000000E+00 0.  1.
         11    1    1    2    0    0  0.43301263842E+02 -0.12565647605E+03  0.49736704239E+03  0.51481892378E+03  0.00000000000E+00 0. -1.
</event>
<event>
 7    1  0.2810263E-009  0.7538886E+02  0.7561462E-02  0.1342671E+00
         -2   -1    0    0    0  501 -0.00000000000E+00  0.00000000000E+00  0.10140119951E+03  0.10140119951E+03  0.00000000000E+00 0.  1.
          2   -1    0    0  501    0  0.00000000000E+00 -0.00000000000E+00 -0.11096282184E+03  0.11096282184E+03  0.00000000000E+00 0. -1.
         25    2    1    2    0    0  0.10076621578E+02 -0.77823613046E+01 -0.10876651960E+02  0.12620533310E+03  0.12508949234E+03 0.  0.
          5    1    3    3  502    0 -0.14251035371E+02  0.46828040266E+02  0.26257160222E+02  0.55703395114E+02  0.41800000000E+01 0.  1.
         -5    1    3    3    0  502  0.24327656950E+02 -0.54610401570E+02 -0.37133812182E+02  0.70501937984E+02  0.41800000000E+01 0.  1.
        -11    1    1    2    0    0  0.12928451979E+01  0.22826977601E+02  0.38321956711E+02  0.44624149530E+02  0.00000000000E+00 0.  1.
         11    1    1    2    0    0 -0.11369466776E+02 -0.15044616297E+02 -0.37006927087E+02  0.41534538721E+02  0.00000000000E+00 0. -1.
</event>
<event>
 7    1  0.2810263E-009  0.1247776E+03  0.7561462E-02  0.1235417E+00
         -1   -1    0    0    0  501 -0.00000000000E+00  0.00000000000E+00  0.19182014662E+03  0.19182014662E+03  0.00000000000E+00 0.  1.
          1   -1    0    0  501    0  0.00000000000E+00 -0.00000000000E+00 -0.13032431559E+03  0.13032431559E+03  0.00000000000E+00 0. -1.
         25    2    1    2    0    0  0.76417020923E+02  0.61807759203E+02 -0.18115763596E+02  0.16011052948E+03  0.12508973010E+03 0.  0.
          5    1    3    3  502    0  0.53310189687E+02  0.92791179739E+02  0.16126892409E+02  0.10830387076E+03  0.41800000000E+01 0. -1.
         -5    1    3    3    0  502  0.23106831236E+02 -0.30983420536E+02 -0.34242656005E+02  0.51806658724E+02  0.41800000000E+01 0. -1.
        -11    1    1    2    0    0 -0.43206302218E+01 -0.19534537474E+02  0.75773326431E+02  0.78370038906E+02  0.00000000000E+00 0.  1.
         11    1    1    2    0    0 -0.72096390701E+02 -0.42273221729E+02  0.38382681961E+01  0.83663893826E+02  0.00000000000E+00 0. -1.
</event>
<event>
 7    1  0.2810263E-009  0.2537308E+03  0.7561462E-02  0.1110970E+00
          2   -1    0    0  501    0  0.00000000000E+00  0.00000000000E+00  0.26367458462E+04  0.26367458462E+04  0.00000000000E+00 0. -1.
         -2   -1    0    0    0  501 -0.00000000000E+00 -0.00000000000E+00 -0.26987100260E+02  0.26987100260E+02  0.00000000000E+00 0.  1.
         25    2    1    2    0    0 -0.10646617531E+03  0.20389675404E+03  0.17362044300E+04  0.17558367300E+04  0.12509143403E+03 0.  0.
          5    1    3    3  502    0 -0.85007443771E+02  0.21858084827E+03  0.16008842446E+04  0.16179776543E+04  0.41800000000E+01 0. -1.
         -5    1    3    3    0  502 -0.21458731538E+02 -0.14684094229E+02  0.13532018542E+03  0.13785907575E+03  0.41800000000E+01 0. -1.
        -11    1    1    2    0    0  0.52642269352E+02 -0.22329284722E+02  0.23458359726E+03  0.24145241680E+03  0.00000000000E+00 0.  1.
         11    1    1    2    0    0  0.53823905957E+02 -0.18156746932E+03  0.63897071869E+03  0.66644379966E+03  0.00000000000E+00 0. -1.
</event>
<event>
 7    1  0.2810263E-009  0.8000882E+02  0.7561462E-02  0.1329026E+00
          1   -1    0    0  501    0  0.00000000000E+00  0.00000000000E+00  0.42253507946E+03  0.42253507946E+03  0.00000000000E+00 0. -1.
         -1   -1    0    0    0  501 -0.00000000000E+00 -0.00000000000E+00 -0.43474433004E+02  0.43474433004E+02  0.00000000000E+00 0.  1.
         25    2    1    2    0    0 -0.22689056866E+02 -0.12137160264E+02  0.34266292012E+03  0.36568677567E+03  0.12508731797E+03 0.  0.
          5    1    3    3  502    0  0.20457044925E+02  0.42110611681E+01  0.14568910808E+01  0.21349909950E+02  0.41800000000E+01 0.  1.
         -5    1    3    3    0  502 -0.43146101792E+02 -0.16348221433E+02  0.34120602904E+03  0.34433686572E+03  0.41800000000E+01 0.  1.
        -11    1    1    2    0    0  0.48025516483E+02 -0.19520444479E+02  0.27981037852E+02  0.58910410501E+02  0.00000000000E+00 0.  1.
         11    1    1    2    0    0 -0.25336459617E+02  0.31657604744E+02  0.84166884882E+01  0.41412326295E+02  0.00000000000E+00 0. -1.
</event>
<event>
 7    1  0.2810263E-009  0.9370138E+02  0.7561462E-02  0.1294128E+00
         -1   -1    0    0    0  501 -0.00000000000E+00  0.00000000000E+00  0.23161142881E+03  0.23161142881E+03  0.00000000000E+00 0.  1.
          1   -1    0    0  501    0  0.00000000000E+00 -0.00000000000E+00 -0.77457844918E+02  0.77457844918E+02  0.00000000000E+00 0. -1.
         25    2    1    2    0    0 -0.73313585430E+02  0.15946144233E+02  0.12219243784E+03  0.19028235687E+03  0.12508885700E+03 0.  0.
          5    1    3    3  502    0 -0.33662527217E+02 -0.31992271504E+02 -0.66941733273E+01  0.47105790845E+02  0.41800000000E+01 0.  1.
         -5    1    3    3    0  502 -0.39651058213E+02  0.47938415737E+02  0.12888661117E+03  0.14317656603E+03  0.41800000000E+01 0.  1.
        -11    1    1    2    0    0  0.33055454820E+02 -0.18863957770E+02  0.58995133482E+02  0.70206394087E+02  0.00000000000E+00 0.  1.
         11    1    1    2    0    0  0.40258130610E+02  0.29178135369E+01 -0.27033987432E+02  0.48580522769E+02  0.00000000000E+00 0. -1.
</event>
<event>
 7    1  0.2810263E-009  0.8056435E+02  0.7561462E-02  0.1327457E+00
         -2   -1    0    0    0  501 -0.00000000000E+00  0.00000000000E+00  0.61126141907E+03  0.61126141907E+03  0.00000000000E+00 0.  1.
          2   -1    0    0  501    0  0.00000000000E+00 -0.00000000000E+00 -0.29386325464E+02  0.29386325464E+02  0.00000000000E+00 0. -1.
         25    2    1    2    0    0 -0.50577530530E+02 -0.19141766820E+02  0.18176161589E+03  0.22718508456E+03  0.12510509103E+03 0.  0.
          5    1    3    3  502    0 -0.35679263293E+02 -0.24981129322E+02  0.19873006644E+03  0.20348999572E+03  0.41800000000E+01 0.  1.
         -5    1    3    3    0  502 -0.14898267237E+02  0.58393625019E+01 -0.16968450547E+02  0.23695088838E+02  0.41800000000E+01 0.  1.
        -11    1    1    2    0    0 -0.17395881736E+02  0.27301993183E+02  0.18201450566E+03  0.18487102478E+03  0.00000000000E+00 0.  1.
         11    1    1    2    0    0  0.67973412265E+02 -0.81602263623E+01  0.21809897206E+03  0.22859163519E+03  0.00000000000E+00 0. -1.
</event>
<event>
 7    1  0.2810263E-009  0.1517226E+03  0.7561462E-02  0.1198372E+00
         -1   -1    0    0    0  501 -0.00000000000E+00  0.00000000000E+00  0.38850990835E+02  0.38850990835E+02  0.00000000000E+00 0.  1.
          1   -1    0    0  501    0  0.00000000000E+00 -0.00000000000E+00 -0.76704661503E+03  0.76704661503E+03  0.00000000000E+00 0. -1.
         25    2    1    2    0    0 -0.13109974133E+03 -0.26246361736E+02 -0.43534347655E+03  0.47227947563E+03  0.12509175371E+03 0.  0.
          5    1    3    3  502    0 -0.46750523376E+02 -0.61553562825E+02 -0.29293376188E+03  0.30298863639E+03  0.41800000000E+01 0. -1.
         -5    1    3    3    0  502 -0.84349217951E+02  0.35307201090E+02 -0.14240971467E+03  0.16929083924E+03  0.41800000000E+01 0. -1.
        -11    1    1    2    0    0  0.35111048933E+02  0.13731040883E+02 -0.17153922154E+02  0.41419612337E+02  0.00000000000E+00 0.  1.
         11    1    1    2    0    0  0.95988692395E+02  0.12515320852E+02 -0.27569822549E+03  0.29219851790E+03  0.00000000000E+00 0. -1.
</event>
<event>
 7    1  0.2810263E-009  0.2404500E+03  0.7561462E-02  0.1119493E+00
          2   -1    0    0  501    0  0.00000000000E+00  0.00000000000E+00  0.31679298801E+03  0.31679298801E+03  0.00000000000E+00 0. -1.
         -2   -1    0    0    0  501 -0.00000000000E+00 -0.00000000000E+00 -0.21660329338E+03  0.21660329338E+03  0.00000000000E+00 0.  1.
         25    2    1    2    0    0  0.11575516456E+03 -0.18403011524E+03  0.15068384880E+03  0.29260861071E+03  0.12509130798E+03 0.  0.
          5    1    3    3  502    0  0.11274665836E+03 -0.62262871210E+02  0.81287733818E+02  0.15236023816E+03  0.41800000000E+01 0.  1.
         -5    1    3    3    0  502  0.30085062074E+01 -0.12176724403E+03  0.69396114985E+02  0.14024837255E+03  0.41800000000E+01 0.  1.
        -11    1    1    2    0    0 -0.43185205338E+02  0.13709197321E+03 -0.66767821773E+01  0.14388797899E+03  0.00000000000E+00 0.  1.
         11    1    1    2    0    0 -0.72569959227E+02  0.46938142031E+02 -0.43817371996E+02  0.96899691682E+02  0.00000000000E+00 0. -1.
</event>
<event>
 7    1  0.2810263E-009  0.9175646E+02  0.7561462E-02  0.1298653E+00
          1   -1    0    0  501    0  0.00000000000E+00  0.00000000000E+00  0.19710570931E+03  0.19710570931E+03  0.00000000000E+00 0. -1.
         -1   -1    0    0    0  501 -0.00000000000E+00 -0.00000000000E+00 -0.59724351224E+02  0.59724351224E+02  0.00000000000E+00 0.  1.
         25    2    1    2    0    0 -0.74155692189E+01  0.21963338578E+02  0.67536287114E+02  0.14403456977E+03  0.12508968104E+03 0.  0.
          5    1    3    3  502    0 -0.50505433847E+02  0.26215461370E+02  0.80475941727E+02  0.98650387023E+02  0.41800000000E+01 0.  1.
         -5    1    3    3    0  502  0.43089864628E+02 -0.42521227913E+01 -0.12939654613E+02  0.45384182744E+02  0.41800000000E+01 0.  1.
        -11    1    1    2    0    0 -0.36236470708E+02 -0.78353689010E+01  0.12008500675E+02  0.38970230993E+02  0.00000000000E+00 0.  1.
         11    1    1    2    0    0  0.43652039927E+02 -0.14127969677E+02  0.57836570296E+02  0.73825259773E+02  0.00000000000E+00 0. -1.
</event>
<event>
 7    1  0.2810263E-009  0.1065419E+03  0.7561462E-02  0.1267111E+00
         -2   -1    0    0    0  501 -0.00000000000E+00  0.00000000000E+00  0.90508191091E+02  0.90508191091E+02  0.00000000000E+00 0.  1.
          2   -1    0    0  501    0  0.00000000000E+00 -0.00000000000E+00 -0.34412411905E+03  0.34412411905E+03  0.00000000000E+00 0. -1.
         25    2    1    2    0    0  0.10400071401E+03 -0.88235234112E+00 -0.20560364556E+02  0.16397263444E+03  0.12508944478E+03 0.  0.
          5    1    3    3  502    0  0.58271803928E+02  0.15162793074E+02 -0.71479538985E+02  0.93553783036E+02  0.41800000000E+01 0. -1.
         -5    1    3    3    0  502  0.45728910082E+02 -0.16045145415E+02  0.50919174429E+02  0.70418851405E+02  0.41800000000E+01 0. -1.
        -11    1    1    2    0    0 -0.82890166925E+02 -0.93916755045E+00 -0.23518257220E+03  0.24936419967E+03  0.00000000000E+00 0.  1.
         11    1    1    2    0    0 -0.21110547085E+02  0.18215198916E+01  0.21270088010E+01  0.21295476031E+02  0.00000000000E+00 0. -1.
</event>
<event>
 7    1  0.2810263E-009  0.1114025E+03  0.7561462E-02  0.1257994E+00
          2   -1    0    0  501    0  0.00000000000E+00  0.00000000000E+00  0.57535760244E+03  0.57535760244E+03  0.00000000000E+00 0. -1.
         -2   -1    0    0    0  501 -0.00000000000E+00 -0.00000000000E+00 -0.30920344736E+02  0.30920344736E+02  0.00000000000E+00 0.  1.
         25    2    1    2    0    0  0.13710865394E+02 -0.52955538939E+02  0.42809247819E+03  0.44933552520E+03  0.12508783869E+03 0.  0.
          5    1    3    3  502    0  0.61176234613E+02  0.42675003338E+01  0.21460270532E+03  0.22323202452E+03  0.41800000000E+01 0. -1.
         -5    1    3    3    0  502 -0.47465369219E+02 -0.57223039273E+02  0.21348977287E+03  0.22610350067E+03  0.41800000000E+01 0. -1.
        -11    1    1    2    0    0 -0.55147151043E+01 -0.16262518491E+02 -0.42167239065E+01  0.17682260909E+02  0.00000000000E+00 0.  1.
         11    1    1    2    0    0 -0.81961502899E+01  0.69218057431E+02  0.12056150342E+03  0.13926016107E+03  0.00000000000E+00 0. -1.
</event>
<event>
 7    1  0.2810263E-009  0.1213653E+03  0.7561462E-02  0.1240862E+00
         -2   -1    0    0    0  501 -0.00000000000E+00  0.00000000000E+00  0.30314281306E+03  0.30314281306E+03  0.00000000000E+00 0.  1.
          2   -1    0    0  501    0  0.00000000000E+00 -0.00000000000E+00 -0.68788177015E+02  0.68788177015E+02  0.00000000000E+00 0. -1.
         25    2    1    2    0    0 -0.89457641794E+02  0.53943959818E+02  0.14910031234E+03  0.22088730993E+03  0.12509068738E+03 0.  0.
          5    1    3    3  502    0 -0.50056102119E+02 -0.19907102869E+02  0.12096198847E+03  0.13248087091E+03  0.41800000000E+01 0. -1.
         -5    1    3    3    0  502 -0.39401539675E+02  0.73851062687E+02  0.28138323878E+02  0.88406439016E+02  0.41800000000E+01 0. -1.
        -11    1    1    2    0    0  0.69339686747E+02 -0.46261940900E+02  0.95865269937E+02  0.12703664556E+03  0.00000000000E+00 0.  1.
         11    1    1    2    0    0  0.20117955047E+02 -0.76820189176E+01 -0.10610946235E+02  0.24007034592E+02  0.00000000000E+00 0. -1.
</event>
<event>
 7    1  0.2810263E-009  0.1573530E+03  0.7561462E-02  0.1191718E+00
         -1   -1    0    0    0  501 -0.00000000000E+00  0.00000000000E+00  0.27883077271E+03  0.27883077271E+03  0.00000000000E+00 0.  1.
          1   -1    0    0  501    0  0.00000000000E+00 -0.00000000000E+00 -0.12974359309E+03  0.12974359309E+03  0.00000000000E+00 0. -1.
         25    2    1    2    0    0  0.74397299068E+02  0.90473341672E+02  0.18798852703E+03  0.25437794489E+03  0.12509224153E+03 0.  0.
          5    1    3    3  502    0  0.76441940983E+01  0.10287322935E+03  0.11770031142E+03  0.15656363157E+03  0.41800000000E+01 0.  1.
         -5    1    3    3    0  502  0.66753104970E+02 -0.12399887681E+02  0.70288215611E+02  0.97814313326E+02  0.41800000000E+01 0.  1.
        -11    1    1    2    0    0  0.10550219795E+02 -0.46703189856E+02 -0.33590879074E+02  0.58487966604E+02  0.00000000000E+00 0. -1.
         11    1    1    2    0    0 -0.84947518863E+02 -0.43770151816E+02 -0.53104683481E+01  0.95708454303E+02  0.00000000000E+00 0.  1.
</event>
<event>
 7    1  0.2810263E-009  0.1074673E+03  0.7561462E-02  0.1265333E+00
          2   -1    0    0  501    0  0.00000000000E+00  0.00000000000E+00  0.56792873538E+02  0.56792873538E+02  0.00000000000E+00 0. -1.
         -2   -1    0    0    0  501 -0.00000000000E+00 -0.00000000000E+00 -0.25932433641E+03  0.25932433641E+03  0.00000000000E+00 0.  1.
         25    2    1    2    0    0  0.40688950910E+02 -0.24962571210E+02 -0.76738038577E+02  0.15432053048E+03  0.12508948347E+03 0.  0.
          5    1    3    3  502    0  0.57153570734E+02  0.27185508620E+02 -0.44524598829E+01  0.63583640393E+02  0.41800000000E+01 0.  1.
         -5    1    3    3    0  502 -0.16464619824E+02 -0.52148079830E+02 -0.72285578694E+02  0.90736890089E+02  0.41800000000E+01 0.  1.
        -11    1    1    2    0    0 -0.61181687608E+02  0.38328103825E+02 -0.68600975420E+02  0.99590844307E+02  0.00000000000E+00 0.  1.
         11    1    1    2    0    0  0.20492736697E+02 -0.13365532615E+02 -0.57192448877E+02  0.62205835160E+02  0.00000000000E+00 0. -1.
</event>
<event>
 7    1  0.2810263E-009  0.1641259E+03  0.7561462E-02  0.1184116E+00
         -1   -1    0    0    0  501 -0.00000000000E+00  0.00000000000E+00  0.42289573229E+02  0.42289573229E+02  0.00000000000E+00 0.  1.
          1   -1    0    0  501    0  0.00000000000E+00 -0.00000000000E+00 -0.13275667448E+04  0.13275667448E+04  0.00000000000E+00 0. -1.
         25    2    1    2    0    0  0.33363201560E+02 -0.11889535371E+03 -0.11512530491E+04  0.11645947491E+04  0.12509251897E+03 0.  0.
          5    1    3    3  502    0  0.33369994322E+02 -0.14523819370E+03 -0.98318493253E+03  0.99442333711E+03  0.41800000000E+01 0.  1.
         -5    1    3    3    0  502 -0.67927626482E-02  0.26342839988E+02 -0.16806811657E+03  0.17017141203E+03  0.41800000000E+01 0.  1.
        -11    1    1    2    0    0  0.11609193339E+02 -0.10411561237E+02 -0.28203415216E+02  0.32227420114E+02  0.00000000000E+00 0. -1.
         11    1    1    2    0    0 -0.44972394899E+02  0.12930691495E+03 -0.10582070724E+03  0.17303414876E+03  0.00000000000E+00 0.  1.
</event>
<event>
 7    1  0.2810263E-009  0.1210398E+03  0.7561462E-02  0.1241391E+00
         -2   -1    0    0    0  501 -0.00000000000E+00  0.00000000000E+00  0.12812920080E+03  0.12812920080E+03  0.00000000000E+00 0.  1.
          2   -1    0    0  501    0  0.00000000000E+00 -0.00000000000E+00 -0.18914251875E+03  0.18914251875E+03  0.00000000000E+00 0. -1.
         25    2    1    2    0    0  0.20688218323E+02 -0.66303435284E+02  0.55514877489E+02  0.15347685709E+03  0.12509634740E+03 0.  0.
          5    1    3    3  502    0  0.52756112345E+02 -0.76932325008E+02  0.69777854325E+02  0.11656848363E+03  0.41800000000E+01 0.  1.
         -5    1    3    3    0  502 -0.32067894022E+02  0.10628889723E+02 -0.14262976836E+02  0.36908373467E+02  0.41800000000E+01 0.  1.
        -11    1    1    2    0    0  0.36084126481E+02  0.32657276957E+02 -0.42401376014E+02  0.64547955893E+02  0.00000000000E+00 0. -1.
         11    1    1    2    0    0 -0.56772344804E+02  0.33646158327E+02 -0.74126819425E+02  0.99246906565E+02  0.00000000000E+00 0.  1.
</event>
<event>
 7    1  0.2810263E-009  0.1492989E+03  0.7561462E-02  0.1201337E+00
         -2   -1    0    0    0  501 -0.00000000000E+00  0.00000000000E+00  0.10959956309E+04  0.10959956309E+04  0.00000000000E+00 0.  1.
          2   -1    0    0  501    0  0.00000000000E+00 -0.00000000000E+00 -0.24990810615E+02  0.24990810615E+02  0.00000000000E+00 0. -1.
         25    2    1    2    0    0 -0.51520563989E+02 -0.10723853417E+03  0.68651429865E+03  0.70788727826E+03  0.12509214503E+03 0.  0.
          5    1    3    3  502    0 -0.61565818328E+02 -0.12230320237E+03  0.44376871115E+03  0.46443144240E+03  0.41800000000E+01 0.  1.
         -5    1    3    3    0  502  0.10045254339E+02  0.15064668203E+02  0.24274558750E+03  0.24345583586E+03  0.41800000000E+01 0.  1.
        -11    1    1    2    0    0 -0.16425153946E+02  0.42161129769E+00  0.14031320094E+02  0.21606512486E+02  0.00000000000E+00 0. -1.
         11    1    1    2    0    0  0.67945717935E+02  0.10681692287E+03  0.37045920154E+03  0.39149265077E+03  0.00000000000E+00 0.  1.
</event>
<event>
 7    1  0.2810263E-009  0.9896659E+02  0.7561462E-02  0.1282484E+00
          2   -1    0    0  501    0  0.00000000000E+00  0.00000000000E+00  0.78377744100E+03  0.78377744100E+03  0.00000000000E+00 0. -1.
         -2   -1    0    0    0  501 -0.00000000000E+00 -0.00000000000E+00 -0.27666863955E+02  0.27666863955E+02  0.00000000000E+00 0.  1.
         25    2    1    2    0    0 -0.47928142902E+02 -0.23770373391E+02  0.63788743669E+03  0.65223521703E+03  0.12509300109E+03 0.  0.
          5    1    3    3  502    0 -0.68094298613E+02 -0.16075890485E+02  0.17068627993E+03  0.18451706239E+03  0.41800000000E+01 0.  1.
         -5    1    3    3    0  502  0.20166155711E+02 -0.76944829057E+01  0.46720115676E+03  0.46771815464E+03  0.41800000000E+01 0.  1.
        -11    1    1    2    0    0 -0.34364542000E+00 -0.32054320049E+02  0.44966578799E+02  0.55223099649E+02  0.00000000000E+00 0.  1.
         11    1    1    2    0    0  0.48271788322E+02  0.55824693440E+02  0.73256561556E+02  0.10398598827E+03  0.00000000000E+00 0. -1.
</event>
<event>
 7    1  0.2810263E-009  0.1907500E+03  0.7561462E-02  0.1157787E+00
         -3   -1    0    0    0  501 -0.00000000000E+00  0.00000000000E+00  0.21662601807E+03  0.21662601807E+03  0.00000000000E+00 0.  1.
          3   -1    0    0  501    0  0.00000000000E+00 -0.00000000000E+00 -0.18957766671E+03  0.18957766671E+03  0.00000000000E+00 0. -1.
         25    2    1    2    0    0 -0.14131619911E+03 -0.75277156984E+02 -0.45755237478E+02  0.20827198348E+03  0.12508700512E+03 0.  0.
          5    1    3    3  502    0 -0.93035841067E+02  0.20224184570E+02 -0.12395121267E+02  0.96103053000E+02  0.41800000000E+01 0. -1.
         -5    1    3    3    0  502 -0.48280358046E+02 -0.95501341554E+02 -0.33360116211E+02  0.11216893048E+03  0.41800000000E+01 0. -1.
        -11    1    1    2    0    0  0.83519216129E+01  0.40935427823E+02 -0.14715776761E+01  0.41804657475E+02  0.00000000000E+00 0.  1.
         11    1    1    2    0    0  0.13296427750E+03  0.34341729160E+02  0.74275166509E+02  0.15612704382E+03  0.00000000000E+00 0. -1.
</event>
<event>
 7    1  0.2810263E-009  0.1702607E+03  0.7561462E-02  0.1177576E+00
         -1   -1    0    0    0  501 -0.00000000000E+00  0.00000000000E+00  0.26762874019E+03  0.26762874019E+03  0.00000000000E+00 0.  1.
          1   -1    0    0  501    0  0.00000000000E+00 -0.00000000000E+00 -0.13912865122E+03  0.13912865122E+03  0.00000000000E+00 0. -1.
         25    2    1    2    0    0  0.15547667079E+03  0.28612022953E+02  0.88341873689E+02  0.22009605679E+03  0.12508534907E+03 0.  0.
          5    1    3    3  502    0 -0.56207213726E+01 -0.13094743830E+02 -0.17410228520E+02  0.22883471805E+02  0.41800000000E+01 0.  1.
         -5    1    3    3    0  502  0.16109739216E+03  0.41706766784E+02  0.10575210221E+03  0.19721258499E+03  0.41800000000E+01 0.  1.
        -11    1    1    2    0    0 -0.10648353173E+03 -0.28441049250E+02 -0.16845604286E+02  0.11149623400E+03  0.00000000000E+00 0. -1.
         11    1    1    2    0    0 -0.48993139055E+02 -0.17097370389E+00  0.57003819559E+02  0.75165100618E+02  0.00000000000E+00 0.  1.
</event>
<event>
 7    1  0.2834652E-009  0.1889712E+03  0.7561462E-02  0.1159393E+00
         -1   -1    0    0    0  501 -0.00000000000E+00  0.00000000000E+00  0.77456317690E+02  0.77456317690E+02  0.00000000000E+00 0.  1.
          1   -1    0    0  501    0  0.00000000000E+00 -0.00000000000E+00 -0.48581649739E+03  0.48581649739E+03  0.00000000000E+00 0. -1.
         25    2    1    2    0    0 -0.25340930466E+02 -0.15692743249E+03 -0.24123374880E+03  0.31481618624E+03  0.12508847963E+03 0.  0.
          5    1    3    3  502    0  0.32536392470E+02 -0.12362674821E+03 -0.11524881056E+03  0.17216837817E+03  0.41800000000E+01 0. -1.
         -5    1    3    3    0  502 -0.57877322936E+02 -0.33300684282E+02 -0.12598493824E+03  0.14264780807E+03  0.41800000000E+01 0. -1.
        -11    1    1    2    0    0  0.54041410633E+02  0.54461907255E+02 -0.80910788144E+02  0.11150394183E+03  0.00000000000E+00 0.  1.
         11    1    1    2    0    0 -0.28700480166E+02  0.10246552523E+03 -0.86215642758E+02  0.13695268701E+03  0.00000000000E+00 0. -1.
</event>
<event>
 7    1  0.2810263E-009  0.2388020E+03  0.7561462E-02  0.1120593E+00
         -2   -1    0    0    0  501 -0.00000000000E+00  0.00000000000E+00  0.60906897436E+02  0.60906897436E+02  0.00000000000E+00 0.  1.
          2   -1    0    0  501    0  0.00000000000E+00 -0.00000000000E+00 -0.10504111272E+04  0.10504111272E+04  0.00000000000E+00 0. -1.
         25    2    1    2    0    0 -0.40552864208E+02  0.22393182608E+03 -0.44703610006E+03  0.51699069192E+03  0.12509237888E+03 0.  0.
          5    1    3    3  502    0  0.24433168850E+02  0.73531564217E+02 -0.24410768834E+03  0.25614430812E+03  0.41800000000E+01 0.  1.
         -5    1    3    3    0  502 -0.64986033058E+02  0.15040026186E+03 -0.20292841172E+03  0.26084638380E+03  0.41800000000E+01 0.  1.
        -11    1    1    2    0    0  0.47164985211E+02 -0.86499947415E+02 -0.16042434039E+03  0.18826243843E+03  0.00000000000E+00 0. -1.
         11    1    1    2    0    0 -0.66121210026E+01 -0.13743187866E+03 -0.38204378934E+03  0.40606489431E+03  0.00000000000E+00 0.  1.
</event>
<event>
 7    1  0.2810263E-009  0.1018301E+03  0.7561462E-02  0.1276494E+00
          1   -1    0    0  501    0  0.00000000000E+00  0.00000000000E+00  0.16997642954E+03  0.16997642954E+03  0.00000000000E+00 0.  1.
         -1   -1    0    0    0  501 -0.00000000000E+00 -0.00000000000E+00 -0.13507305819E+03  0.13507305819E+03  0.00000000000E+00 0. -1.
         25    2    1    2    0    0  0.64078047531E+02  0.35008555149E+02  0.97942996046E+02  0.17484809905E+03  0.12508969645E+03 0.  0.
          5    1    3    3  502    0  0.44336268170E+02  0.48439832675E+02 -0.78931662630E+01  0.66271385519E+02  0.41800000000E+01 0.  1.
         -5    1    3    3    0  502  0.19741779361E+02 -0.13431277526E+02  0.10583616231E+03  0.10857671353E+03  0.41800000000E+01 0.  1.
        -11    1    1    2    0    0 -0.74207095621E+01 -0.53507040137E+02 -0.25241122603E+02  0.59625368300E+02  0.00000000000E+00 0.  1.
         11    1    1    2    0    0 -0.56657337969E+02  0.18498484988E+02 -0.37798502096E+02  0.70576020384E+02  0.00000000000E+00 0. -1.
</event>
<event>
 7    1  0.2810263E-009  0.1734902E+03  0.7561462E-02  0.1174256E+00
          2   -1    0    0  501    0  0.00000000000E+00  0.00000000000E+00  0.15304775264E+04  0.15304775264E+04  0.00000000000E+00 0.  1.
         -2   -1    0    0    0  501 -0.00000000000E+00 -0.00000000000E+00 -0.22076160746E+02  0.22076160746E+02  0.00000000000E+00 0. -1.
         25    2    1    2    0    0  0.31603820488E+02  0.13329417643E+03  0.10146982474E+04  0.10315162340E+04  0.12508824427E+03 0.  0.
          5    1    3    3  502    0  0.12918328963E+02  0.15516063582E+03  0.82008932683E+03  0.83474887392E+03  0.41800000000E+01 0. -1.
         -5    1    3    3    0  502  0.18685491526E+02 -0.21866459388E+02  0.19460892055E+03  0.19676736009E+03  0.41800000000E+01 0. -1.
        -11    1    1    2    0    0 -0.59407778799E+02 -0.63117499526E+02  0.20376723256E+03  0.22143664555E+03  0.00000000000E+00 0.  1.
         11    1    1    2    0    0  0.27803958311E+02 -0.70176676901E+02  0.28993588570E+03  0.29960080757E+03  0.00000000000E+00 0. -1.
</event>
<event>
 7    1  0.2810263E-009  0.1087738E+03  0.7561462E-02  0.1262858E+00
         -1   -1    0    0    0  501 -0.00000000000E+00  0.00000000000E+00  0.47262649770E+02  0.47262649770E+02  0.00000000000E+00 0.  1.
          1   -1    0    0  501    0  0.00000000000E+00 -0.00000000000E+00 -0.30480675941E+03  0.30480675941E+03  0.00000000000E+00 0. -1.
         25    2    1    2    0    0 -0.64693125984E+00  0.17969179638E+02 -0.86134518188E+02  0.15293747239E+03  0.12508958910E+03 0.  0.
          5    1    3    3  502    0  0.61103076987E+02 -0.28029079787E+00 -0.34496581404E+02  0.70293321936E+02  0.41800000000E+01 0. -1.
         -5    1    3    3    0  502 -0.61750008247E+02  0.18249470435E+02 -0.51637936784E+02  0.82644150458E+02  0.41800000000E+01 0. -1.
        -11    1    1    2    0    0  0.44628034316E+02 -0.17081151284E+02 -0.13082988384E+03  0.13928347239E+03  0.00000000000E+00 0. -1.
         11    1    1    2    0    0 -0.43981103057E+02 -0.88802835345E+00 -0.40579707612E+02  0.59848464394E+02  0.00000000000E+00 0.  1.
</event>
<event>
 7    1  0.2810263E-009  0.1477638E+03  0.7561462E-02  0.1203248E+00
          1   -1    0    0  501    0  0.00000000000E+00  0.00000000000E+00  0.31680566183E+03  0.31680566183E+03  0.00000000000E+00 0. -1.
         -1   -1    0    0    0  501 -0.00000000000E+00 -0.00000000000E+00 -0.14789376793E+03  0.14789376793E+03  0.00000000000E+00 0.  1.
         25    2    1    2    0    0  0.11067748397E+03  0.25638623289E+02  0.24732458651E+03  0.29953777735E+03  0.12508630823E+03 0.  0.
          5    1    3    3  502    0  0.10845482304E+03 -0.20767453376E+02  0.11616170633E+03  0.16032701013E+03  0.41800000000E+01 0. -1.
         -5    1    3    3    0  502  0.22226609313E+01  0.46406076665E+02  0.13116288018E+03  0.13921076722E+03  0.41800000000E+01 0. -1.
        -11    1    1    2    0    0 -0.32664382607E+02  0.28555748903E+02 -0.49600196197E+02  0.65898195341E+02  0.00000000000E+00 0. -1.
         11    1    1    2    0    0 -0.78013101363E+02 -0.54194372192E+02 -0.28812496411E+02  0.99263457078E+02  0.00000000000E+00 0.  1.
</event>
<event>
 7    1  0.2810263E-009  0.3409193E+03  0.7561462E-02  0.1066405E+00
         -2   -1    0    0    0  501 -0.00000000000E+00  0.00000000000E+00  0.72356117075E+02  0.72356117075E+02  0.00000000000E+00 0.  1.
          2   -1    0    0  501    0  0.00000000000E+00 -0.00000000000E+00 -0.17035103348E+04  0.17035103348E+04  0.00000000000E+00 0. -1.
         25    2    1    2    0    0 -0.33135641233E+03  0.20199738966E+02 -0.74612297373E+03  0.82616715574E+03  0.12509027082E+03 0.  0.
          5    1    3    3  502    0 -0.11381998905E+02 -0.12603843162E+02 -0.49169380466E+01  0.18167428031E+02  0.41800000000E+01 0.  1.
         -5    1    3    3    0  502 -0.31997441343E+03  0.32803582128E+02 -0.74120603568E+03  0.80799972771E+03  0.41800000000E+01 0.  1.
        -11    1    1    2    0    0  0.22124062628E+03 -0.53523470328E+02 -0.63199773072E+03  0.67173901794E+03  0.00000000000E+00 0. -1.
         11    1    1    2    0    0  0.11011578605E+03  0.33323731362E+02 -0.25303351325E+03  0.27796027816E+03  0.00000000000E+00 0.  1.
</event>
<event>
 7    1  0.2810263E-009  0.1525241E+03  0.7561462E-02  0.1197405E+00
         -1   -1    0    0    0  501 -0.00000000000E+00  0.00000000000E+00  0.99019907792E+03  0.99019907792E+03  0.00000000000E+00 0.  1.
          1   -1    0    0  501    0  0.00000000000E+00 -0.00000000000E+00 -0.34213255999E+02  0.34213255999E+02  0.00000000000E+00 0. -1.
         25    2    1    2    0    0 -0.64246838686E+02  0.12560463061E+03  0.66967885411E+03  0.69571678252E+03  0.12509154375E+03 0.  0.
          5    1    3    3  502    0 -0.28081656459E+02  0.11305469693E+03  0.62897004293E+03  0.63968017887E+03  0.41800000000E+01 0.  1.
         -5    1    3    3    0  502 -0.36165182227E+02  0.12549933684E+02  0.40708811179E+02  0.56036603650E+02  0.41800000000E+01 0.  1.
        -11    1    1    2    0    0  0.52048061431E+02 -0.46065627773E+02  0.19485923881E+03  0.20688442598E+03  0.00000000000E+00 0.  1.
         11    1    1    2    0    0  0.12198777255E+02 -0.79539002839E+02  0.91447728993E+02  0.12181112542E+03  0.00000000000E+00 0. -1.
</event>
<event>
 7    1  0.2810263E-009  0.1063981E+03  0.7561462E-02  0.1267389E+00
         -1   -1    0    0    0  501 -0.00000000000E+00  0.00000000000E+00  0.33438320691E+02  0.33438320691E+02  0.00000000000E+00 0.  1.
          1   -1    0    0  501    0  0.00000000000E+00 -0.00000000000E+00 -0.42777951969E+03  0.42777951969E+03  0.00000000000E+00 0. -1.
         25    2    1    2    0    0  0.29351641962E+01 -0.19876830431E+02 -0.31585077965E+03  0.34031560132E+03  0.12509712196E+03 0.  0.
          5    1    3    3  502    0  0.60362516251E+02 -0.19577507174E+02 -0.11545285008E+03  0.13180950325E+03  0.41800000000E+01 0.  1.
         -5    1    3    3    0  502 -0.57427352054E+02 -0.29932325649E+00 -0.20039792957E+03  0.20850609807E+03  0.41800000000E+01 0.  1.
        -11    1    1    2    0    0 -0.24576787020E+02  0.49305390177E+02 -0.42057143024E+02  0.69309762949E+02  0.00000000000E+00 0.  1.
         11    1    1    2    0    0  0.21641622824E+02 -0.29428559746E+02 -0.36433276321E+02  0.51592476105E+02  0.00000000000E+00 0. -1.
</event>
<event>
 7    1  0.2810263E-009  0.8764412E+02  0.7561462E-02  0.1308659E+00
         -1   -1    0    0    0  501 -0.00000000000E+00  0.00000000000E+00  0.35277684810E+02  0.35277684810E+02  0.00000000000E+00 0.  1.
          1   -1    0    0  501    0  0.00000000000E+00 -0.00000000000E+00 -0.61894195352E+03  0.61894195352E+03  0.00000000000E+00 0. -1.
         25    2    1    2    0    0 -0.20913425728E+01 -0.35303987661E+02 -0.52342344127E+03  0.53932468961E+03  0.12509307211E+03 0.  0.
          5    1    3    3  502    0  0.69014585487E+01 -0.80555419473E+02 -0.27716297859E+03  0.28874486114E+03  0.41800000000E+01 0.  1.
         -5    1    3    3    0  502 -0.89928011215E+01  0.45251431813E+02 -0.24626046268E+03  0.25057982847E+03  0.41800000000E+01 0.  1.
        -11    1    1    2    0    0  0.17257016005E+02  0.16859750916E+02 -0.80214455871E+02  0.83764042005E+02  0.00000000000E+00 0. -1.
         11    1    1    2    0    0 -0.15165673432E+02  0.18444236745E+02  0.19973628437E+02  0.31130906711E+02  0.00000000000E+00 0.  1.
</event>
<event>
 7    1  0.2810263E-009  0.1450917E+03  0.7561462E-02  0.1206637E+00
         -2   -1    0    0    0  501 -0.00000000000E+00  0.00000000000E+00  0.23070548617E+03  0.23070548617E+03  0.00000000000E+00 0.  1.
          2   -1    0    0  501    0  0.00000000000E+00 -0.00000000000E+00 -0.12942552136E+03  0.12942552136E+03  0.00000000000E+00 0. -1.
         25    2    1    2    0    0 -0.25208290240E+02  0.10705837659E+03 -0.26232277745E+02  0.16862223076E+03  0.12509344674E+03 0.  0.
          5    1    3    3  502    0 -0.64728952984E+01 -0.19238374216E+02  0.23682352752E+02  0.31469662342E+02  0.41800000000E+01 0. -1.
         -5    1    3    3    0  502 -0.18735394941E+02  0.12629675080E+03 -0.49914630498E+02  0.13715256842E+03  0.41800000000E+01 0. -1.
        -11    1    1    2    0    0 -0.25567349759E+02 -0.80392546318E+02  0.87733764736E+02  0.12171221940E+03  0.00000000000E+00 0.  1.
         11    1    1    2    0    0  0.50775639999E+02 -0.26665830268E+02  0.39778477819E+02  0.69796557356E+02  0.00000000000E+00 0. -1.
</event>
<event>
 7    1  0.2810263E-009  0.1123954E+03  0.7561462E-02  0.1256197E+00
         -1   -1    0    0    0  501 -0.00000000000E+00  0.00000000000E+00  0.41504302567E+03  0.41504302567E+03  0.00000000000E+00 0.  1.
          1   -1    0    0  501    0  0.00000000000E+00 -0.00000000000E+00 -0.37922310583E+02  0.37922310583E+02  0.00000000000E+00 0. -1.
         25    2    1    2    0    0  0.53676918548E+02  0.33045667251E+02  0.23762439998E+03  0.27583636719E+03  0.12508844188E+03 0.  0.
          5    1    3    3  502    0 -0.35576439925E+02  0.11416481813E+02  0.27806379960E+02  0.46762017719E+02  0.41800000000E+01 0. -1.
         -5    1    3    3    0  502  0.89253358473E+02  0.21629185439E+02  0.20981802002E+03  0.22907434947E+03  0.41800000000E+01 0. -1.
        -11    1    1    2    0    0 -0.70988326557E+02 -0.20519114453E+02  0.13694438737E+03  0.15560893868E+03  0.00000000000E+00 0.  1.
         11    1    1    2    0    0  0.17311408009E+02 -0.12526552799E+02  0.25519277343E+01  0.21520030377E+02  0.00000000000E+00 0. -1.
</event>
<event>
 7    1  0.2810263E-009  0.6794140E+02  0.7561462E-02  0.1367237E+00
         -2   -1    0    0    0  501 -0.00000000000E+00  0.00000000000E+00  0.30996571530E+02  0.30996571530E+02  0.00000000000E+00 0.  1.
          2   -1    0    0  501    0  0.00000000000E+00 -0.00000000000E+00 -0.37245551903E+03  0.37245551903E+03  0.00000000000E+00 0. -1.
         25    2    1    2    0    0  0.10368537001E+02  0.13502242830E+02 -0.20012558409E+03  0.23661294619E+03  0.12508245192E+03 0.  0.
          5    1    3    3  502    0 -0.43258056791E+00 -0.24726399963E+02  0.67040025039E+01  0.25961472043E+02  0.41800000000E+01 0.  1.
         -5    1    3    3    0  502  0.10801117569E+02  0.38228642793E+02 -0.20682958659E+03  0.21065147415E+03  0.41800000000E+01 0.  1.
        -11    1    1    2    0    0  0.27701010034E+02  0.56041300352E+01 -0.12057627587E+02  0.30726838650E+02  0.00000000000E+00 0.  1.
         11    1    1    2    0    0 -0.38069547036E+02 -0.19106372865E+02 -0.12927573582E+03  0.13611230572E+03  0.00000000000E+00 0. -1.
</event>
<event>
 7    1  0.2810263E-009  0.9834107E+02  0.7561462E-02  0.1283824E+00
          3   -1    0    0  501    0  0.00000000000E+00  0.00000000000E+00  0.51581505364E+03  0.51581505364E+03  0.00000000000E+00 0. -1.
         -3   -1    0    0    0  501 -0.00000000000E+00 -0.00000000000E+00 -0.28192568804E+02  0.28192568804E+02  0.00000000000E+00 0.  1.
         25    2    1    2    0    0 -0.18134271338E+02 -0.47768871860E+02  0.29849890353E+03  0.32766334027E+03  0.12510376587E+03 0.  0.
          5    1    3    3  502    0 -0.48390619597E+02 -0.16694397197E+02  0.38887957813E+02  0.64421274635E+02  0.41800000000E+01 0. -1.
         -5    1    3    3    0  502  0.30256348259E+02 -0.31074474664E+02  0.25961094571E+03  0.26324206564E+03  0.41800000000E+01 0. -1.
        -11    1    1    2    0    0 -0.15849266761E+02  0.62670060700E+02  0.92578651630E+02  0.11291387206E+03  0.00000000000E+00 0.  1.
         11    1    1    2    0    0  0.33983538099E+02 -0.14901188839E+02  0.96544929683E+02  0.10343041012E+03  0.00000000000E+00 0. -1.
</event>
<event>
 7    1  0.2810263E-009  0.1056256E+03  0.7561462E-02  0.1268892E+00
          2   -1    0    0  501    0  0.00000000000E+00  0.00000000000E+00  0.77342362479E+02  0.77342362479E+02  0.00000000000E+00 0.  1.
         -2   -1    0    0    0  501 -0.00000000000E+00 -0.00000000000E+00 -0.16918943184E+03  0.16918943184E+03  0.00000000000E+00 0. -1.
         25    2    1    2    0    0 -0.23265530714E+02  0.20109187656E+02 -0.72400282020E+02  0.14776692816E+03  0.12509036683E+03 0.  0.
          5    1    3    3  502    0 -0.13082496624E+02  0.66022119622E+02 -0.79924381766E+01  0.67907462515E+02  0.41800000000E+01 0.  1.
         -5    1    3    3    0  502 -0.10183034091E+02 -0.45912931966E+02 -0.64407843843E+02  0.79859465648E+02  0.41800000000E+01 0.  1.
        -11    1    1    2    0    0  0.52713453680E+02  0.10909957161E+02 -0.74542794744E+01  0.54344288077E+02  0.00000000000E+00 0.  1.
         11    1    1    2    0    0 -0.29447922966E+02 -0.31019144817E+02 -0.11992507872E+02  0.44420578083E+02  0.00000000000E+00 0. -1.
</event>
<event>
 7    1  0.2810263E-009  0.1105116E+03  0.7561462E-02  0.1259625E+00
          1   -1    0    0  501    0  0.00000000000E+00  0.00000000000E+00  0.70168064960E+03  0.70168064960E+03  0.00000000000E+00 0. -1.
         -1   -1    0    0    0  501 -0.00000000000E+00 -0.00000000000E+00 -0.18516758870E+02  0.18516758870E+02  0.00000000000E+00 0.  1.
         25    2    1    2    0    0  0.21962547829E+02  0.17532583266E+02  0.44654396515E+03  0.46458664353E+03  0.12509792786E+03 0.  0.
          5    1    3    3  502    0 -0.15460673323E+02 -0.48763110974E+02  0.15725286914E+03  0.16541708093E+03  0.41800000000E+01 0. -1.
         -5    1    3    3    0  502  0.37423221152E+02  0.66295694240E+02  0.28929109601E+03  0.29916956260E+03  0.41800000000E+01 0. -1.
        -11    1    1    2    0    0 -0.48120370921E+02  0.16194036278E+02  0.16052654856E+03  0.16836445498E+03  0.00000000000E+00 0. -1.
         11    1    1    2    0    0  0.26157823092E+02 -0.33726619544E+02  0.76093377032E+02  0.87246309967E+02  0.00000000000E+00 0.  1.
</event>
<event>
 7    1  0.2810263E-009  0.1662795E+03  0.7561462E-02  0.1181784E+00
          2   -1    0    0  501    0  0.00000000000E+00  0.00000000000E+00  0.80843274642E+03  0.80843274642E+03  0.00000000000E+00 0.  1.
         -2   -1    0    0    0  501 -0.00000000000E+00 -0.00000000000E+00 -0.45906511896E+02  0.45906511896E+02  0.00000000000E+00 0. -1.
         25    2    1    2    0    0  0.13501850082E+03  0.81971615472E+02  0.46268305662E+03  0.50465107126E+03  0.12509097303E+03 0.  0.
          5    1    3    3  502    0  0.31553424448E+02  0.24261898826E+02  0.17018607133E+02  0.43489811654E+02  0.41800000000E+01 0. -1.
         -5    1    3    3    0  502  0.10346507637E+03  0.57709716646E+02  0.44566444949E+03  0.46116125960E+03  0.41800000000E+01 0. -1.
        -11    1    1    2    0    0 -0.11311204097E+03 -0.95678659407E+02  0.28114602396E+03  0.31779211202E+03  0.00000000000E+00 0.  1.
         11    1    1    2    0    0 -0.21906459852E+02  0.13707043935E+02  0.18697153943E+02  0.31896075029E+02  0.00000000000E+00 0. -1.
</event>
<event>
 7    1  0.2810263E-009  0.1139367E+03  0.7561462E-02  0.1253449E+00
          1   -1    0    0  501    0  0.00000000000E+00  0.00000000000E+00  0.14720563271E+03  0.14720563271E+03  0.00000000000E+00 0. -1.
         -1   -1    0    0    0  501 -0.00000000000E+00 -0.00000000000E+00 -0.12734981807E+03  0.12734981807E+03  0.00000000000E+00 0.  1.
         25    2    1    2    0    0 -0.62440746510E+02 -0.40322797561E+02  0.43466786675E+02  0.15185831158E+03  0.12508721127E+03 0.  0.
          5    1    3    3  502    0  0.36721585978E+02  0.29058131216E+01  0.78591669779E+01  0.37896669144E+02  0.41800000000E+01 0.  1.
         -5    1    3    3    0  502 -0.99162332488E+02 -0.43228610682E+02  0.35607619697E+02  0.11396164243E+03  0.41800000000E+01 0.  1.
        -11    1    1    2    0    0  0.15097763098E+02 -0.60585592945E+01  0.32184010042E+02  0.36061878676E+02  0.00000000000E+00 0. -1.
         11    1    1    2    0    0  0.47342983413E+02  0.46381356855E+02 -0.55794982075E+02  0.86635260529E+02  0.00000000000E+00 0.  1.
</event>
<event>
 7    1  0.2810263E-009  0.3218429E+03  0.7561462E-02  0.1074804E+00
         -2   -1    0    0    0  501 -0.00000000000E+00  0.00000000000E+00  0.10338685356E+03  0.10338685356E+03  0.00000000000E+00 0.  1.
          2   -1    0    0  501    0  0.00000000000E+00 -0.00000000000E+00 -0.10756932999E+04  0.10756932999E+04  0.00000000000E+00 0. -1.
         25    2    1    2    0    0  0.29484904679E+03 -0.93514828246E+02 -0.38925151133E+03  0.51268434611E+03  0.12509003228E+03 0.  0.
          5    1    3    3  502    0  0.16672184705E+02  0.23208596635E+02 -0.56949198662E+02  0.63853616412E+02  0.41800000000E+01 0. -1.
         -5    1    3    3    0  502  0.27817686208E+03 -0.11672342488E+03 -0.33230231267E+03  0.44883072970E+03  0.41800000000E+01 0. -1.
        -11    1    1    2    0    0 -0.17708120477E+02  0.19309517802E+02 -0.15488201597E+02  0.30435495680E+02  0.00000000000E+00 0.  1.
         11    1    1    2    0    0 -0.27714092631E+03  0.74205310444E+02 -0.56756673341E+03  0.63596031166E+03  0.00000000000E+00 0. -1.
</event>
<event>
 7    1  0.2810263E-009  0.1655007E+03  0.7561462E-02  0.1182623E+00
         -2   -1    0    0    0  501 -0.00000000000E+00  0.00000000000E+00  0.26672105913E+02  0.26672105913E+02  0.00000000000E+00 0.  1.
          2   -1    0    0  501    0  0.00000000000E+00 -0.00000000000E+00 -0.10920918774E+04  0.10920918774E+04  0.00000000000E+00 0. -1.
         25    2    1    2    0    0 -0.12760147276E+03 -0.50882816021E+00 -0.51424602699E+03  0.54440610742E+03  0.12508652512E+03 0.  0.
          5    1    3    3  502    0  0.23929550656E+02  0.21901559994E+01 -0.43801480885E+02  0.50134442309E+02  0.41800000000E+01 0.  1.
         -5    1    3    3    0  502 -0.15153102341E+03 -0.26989841596E+01 -0.47044454611E+03  0.49427166511E+03  0.41800000000E+01 0.  1.
        -11    1    1    2    0    0 -0.36779913238E+01 -0.21564671729E+02 -0.34834803208E+02  0.41134246091E+02  0.00000000000E+00 0.  1.
         11    1    1    2    0    0  0.13127946408E+03  0.22073499889E+02 -0.51633894124E+03  0.53322362975E+03  0.00000000000E+00 0. -1.
</event>
<event>
 7    1  0.2810263E-009  0.1008600E+03  0.7561462E-02  0.1278498E+00
         -1   -1    0    0    0  501 -0.00000000000E+00  0.00000000000E+00  0.24593574962E+03  0.24593574962E+03  0.00000000000E+00 0.  1.
          1   -1    0    0  501    0  0.00000000000E+00 -0.00000000000E+00 -0.69120002531E+02  0.69120002531E+02  0.00000000000E+00 0. -1.
         25    2    1    2    0    0 -0.23832863432E+02  0.67413983032E+02  0.12106007956E+03  0.18819388399E+03  0.12509494243E+03 0.  0.
          5    1    3    3  502    0 -0.69868292916E+01  0.80221776858E+02  0.13862873428E+03  0.16037377477E+03  0.41800000000E+01 0.  1.
         -5    1    3    3    0  502 -0.16846034140E+02 -0.12807793826E+02 -0.17568654714E+02  0.27820109227E+02  0.41800000000E+01 0.  1.
        -11    1    1    2    0    0 -0.22495717254E+02 -0.73626003383E+01  0.44203394535E+02  0.50141851451E+02  0.00000000000E+00 0.  1.
         11    1    1    2    0    0  0.46328580685E+02 -0.60051382694E+02  0.11552272990E+02  0.76720016703E+02  0.00000000000E+00 0. -1.
</event>
<event>
 7    1  0.2810263E-009  0.1244825E+03  0.7561462E-02  0.1235880E+00
          2   -1    0    0  501    0  0.00000000000E+00  0.00000000000E+00  0.41010093030E+03  0.41010093030E+03  0.00000000000E+00 0. -1.
         -2   -1    0    0    0  501 -0.00000000000E+00 -0.00000000000E+00 -0.20836102037E+03  0.20836102037E+03  0.00000000000E+00 0.  1.
         25    2    1    2    0    0  0.38957114434E+02 -0.85392273419E+01  0.37486816395E+03  0.39719248090E+03  0.12508057951E+03 0.  0.
          5    1    3    3  502    0  0.72377556930E+02 -0.24559827671E+02  0.14163275454E+03  0.16099380560E+03  0.41800000000E+01 0.  1.
         -5    1    3    3    0  502 -0.33420442496E+02  0.16020600329E+02  0.23323540941E+03  0.23619867531E+03  0.41800000000E+01 0.  1.
        -11    1    1    2    0    0  0.47252108745E+02 -0.62188244403E+01 -0.41294549610E+02  0.63060886339E+02  0.00000000000E+00 0. -1.
         11    1    1    2    0    0 -0.86209223179E+02  0.14758051782E+02 -0.13183370441E+03  0.15820858343E+03  0.00000000000E+00 0.  1.
</event>
<event>
 7    1  0.2810263E-009  0.1624938E+03  0.7561462E-02  0.1185910E+00
         -2   -1    0    0    0  501 -0.00000000000E+00  0.00000000000E+00  0.12997640371E+03  0.12997640371E+03  0.00000000000E+00 0.  1.
          2   -1    0    0  501    0  0.00000000000E+00 -0.00000000000E+00 -0.24551163324E+03  0.24551163324E+03  0.00000000000E+00 0. -1.
         25    2    1    2    0    0 -0.67870936123E+02 -0.11936539601E+03 -0.23022611863E+02  0.18716849581E+03  0.12508974152E+03 0.  0.
          5    1    3    3  502    0 -0.71828580399E+02 -0.59629523244E+01 -0.85323096515E+01  0.72699205433E+02  0.41800000000E+01 0. -1.
         -5    1    3    3    0  502  0.39576442764E+01 -0.11340244368E+03 -0.14490302212E+02  0.11446929038E+03  0.41800000000E+01 0. -1.
        -11    1    1    2    0    0  0.48669768351E+02  0.62451074148E+02 -0.10026272652E+03  0.12775561570E+03  0.00000000000E+00 0. -1.
         11    1    1    2    0    0  0.19201167772E+02  0.56914321861E+02  0.77501088626E+01  0.60563925435E+02  0.00000000000E+00 0.  1.
</event>
<event>
 7    1  0.2810263E-009  0.2342664E+03  0.7561462E-02  0.1123672E+00
         -1   -1    0    0    0  501 -0.00000000000E+00  0.00000000000E+00  0.36647073653E+02  0.36647073653E+02  0.00000000000E+00 0.  1.
          1   -1    0    0  501    0  0.00000000000E+00 -0.00000000000E+00 -0.16578512173E+04  0.16578512173E+04  0.00000000000E+00 0. -1.
         25    2    1    2    0    0 -0.83633207592E+02 -0.20168174869E+03 -0.72478067580E+03  0.76721885300E+03  0.12509076393E+03 0.  0.
          5    1    3    3  502    0 -0.10764608525E+03 -0.12158975998E+03 -0.39779646485E+03  0.42968738549E+03  0.41800000000E+01 0. -1.
         -5    1    3    3    0  502  0.24012877661E+02 -0.80091988706E+02 -0.32698421095E+03  0.33753146751E+03  0.41800000000E+01 0. -1.
        -11    1    1    2    0    0  0.77634488427E+02  0.13748449365E+03 -0.76208553788E+03  0.77826953353E+03  0.00000000000E+00 0. -1.
         11    1    1    2    0    0  0.59987191648E+01  0.64197255037E+02 -0.13433792997E+03  0.14900990441E+03  0.00000000000E+00 0.  1.
</event>
<event>
 7    1  0.2810263E-009  0.1157271E+03  0.7561462E-02  0.1250317E+00
          1   -1    0    0  501    0  0.00000000000E+00  0.00000000000E+00  0.34884715693E+03  0.34884715693E+03  0.00000000000E+00 0.  1.
         -1   -1    0    0    0  501 -0.00000000000E+00 -0.00000000000E+00 -0.58551838296E+02  0.58551838296E+02  0.00000000000E+00 0. -1.
         25    2    1    2    0    0  0.36074626146E+02  0.41802285258E+02  0.51613977036E+02  0.14615210743E+03  0.12509047196E+03 0.  0.
          5    1    3    3  502    0  0.33091030588E+02  0.81630467269E+02  0.10709146507E+02  0.88829655582E+02  0.41800000000E+01 0.  1.
         -5    1    3    3    0  502  0.29835955584E+01 -0.39828182011E+02  0.40904830528E+02  0.57322451843E+02  0.41800000000E+01 0.  1.
        -11    1    1    2    0    0 -0.61881318763E+02 -0.45817893853E+02  0.20233403349E+03  0.21648934874E+03  0.00000000000E+00 0.  1.
         11    1    1    2    0    0  0.25806692617E+02  0.40156085945E+01  0.36347308114E+02  0.44757539067E+02  0.00000000000E+00 0. -1.
</event>
<event>
 7    1  0.2810263E-009  0.2154977E+03  0.7561462E-02  0.1137285E+00
          2   -1    0    0  501    0  0.00000000000E+00  0.00000000000E+00  0.25919366915E+03  0.25919366915E+03  0.00000000000E+00 0. -1.
         -2   -1    0    0    0  501 -0.00000000000E+00 -0.00000000000E+00 -0.24456082471E+03  0.24456082471E+03  0.00000000000E+00 0.  1.
         25    2    1    2    0    0 -0.74543505013E+02  0.18770799978E+03 -0.95225204623E+02  0.25594123451E+03  0.12508816334E+03 0.  0.
          5    1    3    3  502    0 -0.43633913033E+02  0.16502769276E+03 -0.20662426274E+02  0.17199554065E+03  0.41800000000E+01 0. -1.
         -5    1    3    3    0  502 -0.30909591980E+02  0.22680307017E+02 -0.74562778349E+02  0.83945693861E+02  0.41800000000E+01 0. -1.
        -11    1    1    2    0    0  0.95351183946E+02 -0.13745058709E+03  0.75986106900E+02  0.18373459286E+03  0.00000000000E+00 0. -1.
         11    1    1    2    0    0 -0.20807678933E+02 -0.50257412686E+02  0.33871942160E+02  0.64078666482E+02  0.00000000000E+00 0.  1.
</event>
<event>
 7    1  0.2810263E-009  0.2950976E+03  0.7561462E-02  0.1087717E+00
          1   -1    0    0  501    0  0.00000000000E+00  0.00000000000E+00  0.12558855514E+04  0.12558855514E+04  0.00000000000E+00 0. -1.
         -1   -1    0    0    0  501 -0.00000000000E+00 -0.00000000000E+00 -0.89259993003E+02  0.89259993003E+02  0.00000000000E+00 0.  1.
         25    2    1    2    0    0  0.25810363759E+03  0.11587323381E+03  0.87815431225E+03  0.93104560632E+03  0.12508729306E+03 0.  0.
          5    1    3    3  502    0  0.77596161968E+02 -0.46865962891E+01  0.37588800993E+03  0.38386507649E+03  0.41800000000E+01 0. -1.
         -5    1    3    3    0  502  0.18050747562E+03  0.12055983010E+03  0.50226630231E+03  0.54718052983E+03  0.41800000000E+01 0. -1.
        -11    1    1    2    0    0 -0.61428127123E+02 -0.70292044254E+02  0.11335622394E+03  0.14684692640E+03  0.00000000000E+00 0. -1.
         11    1    1    2    0    0 -0.19667551046E+03 -0.45581189558E+02  0.17511502226E+03  0.26725301173E+03  0.00000000000E+00 0.  1.
</event>
<event>
 7    1  0.2810263E-009  0.1324732E+03  0.7561462E-02  0.1223831E+00
          2   -1    0    0  501    0  0.00000000000E+00  0.00000000000E+00  0.98105029679E+02  0.98105029679E+02  0.00000000000E+00 0.  1.
         -2   -1    0    0    0  501 -0.00000000000E+00 -0.00000000000E+00 -0.37747109110E+03  0.37747109110E+03  0.00000000000E+00 0. -1.
         25    2    1    2    0    0  0.64242162417E+02 -0.10086078999E+03 -0.18818462048E+02  0.17407301856E+03  0.12508927566E+03 0.  0.
          5    1    3    3  502    0  0.57909059360E+02 -0.91793059056E+02  0.38737766699E+02  0.11531483780E+03  0.41800000000E+01 0. -1.
         -5    1    3    3    0  502  0.63331030568E+01 -0.90677309347E+01 -0.57556228747E+02  0.58758180760E+02  0.41800000000E+01 0. -1.
        -11    1    1    2    0    0 -0.76698731977E+02  0.48636344969E+02 -0.11611236085E+03  0.14741190550E+03  0.00000000000E+00 0.  1.
         11    1    1    2    0    0  0.12456569561E+02  0.52224445022E+02 -0.14443523852E+03  0.15409119673E+03  0.00000000000E+00 0. -1.
</event>
<event>
 7    1  0.2810263E-009  0.9412043E+02  0.7561462E-02  0.1293169E+00
          1   -1    0    0  501    0  0.00000000000E+00  0.00000000000E+00  0.13016437196E+04  0.13016437196E+04  0.00000000000E+00 0. -1.
         -1   -1    0    0    0  501 -0.00000000000E+00 -0.00000000000E+00 -0.12118142920E+02  0.12118142920E+02  0.00000000000E+00 0.  1.
         25    2    1    2    0    0 -0.43484730421E+02  0.35431507272E+02  0.90196474124E+03  0.91232357304E+03  0.12509034337E+03 0.  0.
          5    1    3    3  502    0 -0.43002405319E+02 -0.46156279824E+01  0.96250269278E+02  0.10560349247E+03  0.41800000000E+01 0.  1.
         -5    1    3    3    0  502 -0.48232510228E+00  0.40047135255E+02  0.80571447196E+03  0.80672008058E+03  0.41800000000E+01 0.  1.
        -11    1    1    2    0    0  0.26130943013E+02 -0.65101428171E+02  0.25106279557E+03  0.26067901613E+03  0.00000000000E+00 0.  1.
         11    1    1    2    0    0  0.17353787409E+02  0.29669920898E+02  0.13649803984E+03  0.14075927331E+03  0.00000000000E+00 0. -1.
</event>
<event>
 7    1  0.2810263E-009  0.9987793E+02  0.7561462E-02  0.1280553E+00
          2   -1    0    0  501    0  0.00000000000E+00  0.00000000000E+00  0.27831849014E+03  0.27831849014E+03  0.00000000000E+00 0. -1.
         -2   -1    0    0    0  501 -0.00000000000E+00 -0.00000000000E+00 -0.73551362390E+02  0.73551362390E+02  0.00000000000E+00 0.  1.
         25    2    1    2    0    0  0.19848688217E+02  0.20886322993E+02  0.21999319870E+03  0.25470341195E+03  0.12508641681E+03 0.  0.
          5    1    3    3  502    0 -0.16919858750E+02  0.52819523551E+02  0.40845421523E+02  0.69007278947E+02  0.41800000000E+01 0. -1.
         -5    1    3    3    0  502  0.36768546967E+02 -0.31933200557E+02  0.17914777718E+03  0.18569613300E+03  0.41800000000E+01 0. -1.
        -11    1    1    2    0    0  0.28368907977E+02 -0.34964559440E+02 -0.13149208570E+01  0.45044915068E+02  0.00000000000E+00 0.  1.
         11    1    1    2    0    0 -0.48217596194E+02  0.14078236447E+02 -0.13911150100E+02  0.52121525508E+02  0.00000000000E+00 0. -1.
</event>
<event>
 7    1  0.4338387E-009  0.1133194E+03  0.7561462E-02  0.1254544E+00
         -1   -1    0    0    0  501 -0.00000000000E+00  0.00000000000E+00  0.58256886607E+02  0.58256886607E+02  0.00000000000E+00 0.  1.
          1   -1    0    0  501    0  0.00000000000E+00 -0.00000000000E+00 -0.37538534362E+03  0.37538534362E+03  0.00000000000E+00 0. -1.
         25    2    1    2    0    0  0.25231943607E+02 -0.92118436701E+02 -0.12795773440E+03  0.20283773171E+03  0.12508999262E+03 0.  0.
          5    1    3    3  502    0  0.57438412746E+02 -0.68180602783E+02 -0.25648154776E+02  0.92860465743E+02  0.41800000000E+01 0.  1.
         -5    1    3    3    0  502 -0.32206469139E+02 -0.23937833918E+02 -0.10230957962E+03  0.10997726596E+03  0.41800000000E+01 0.  1.
        -11    1    1    2    0    0 -0.24975228885E+02  0.60854183371E+02 -0.37034241522E+02  0.75488600045E+02  0.00000000000E+00 0.  1.
         11    1    1    2    0    0 -0.25671472238E+00  0.31264253330E+02 -0.15213648109E+03  0.15531589847E+03  0.00000000000E+00 0. -1.
</event>
<event>
 7    1  0.2810263E-009  0.1021160E+03  0.7561462E-02  0.1275908E+00
          3   -1    0    0  501    0  0.00000000000E+00  0.00000000000E+00  0.33542536249E+02  0.33542536249E+02  0.00000000000E+00 0. -1.
         -3   -1    0    0    0  501 -0.00000000000E+00 -0.00000000000E+00 -0.40810463447E+03  0.40810463447E+03  0.00000000000E+00 0.  1.
         25    2    1    2    0    0 -0.27370318781E+02  0.31307017207E+02 -0.23404212646E+03  0.26861126131E+03  0.12508808523E+03 0.  0.
          5    1    3    3  502    0 -0.56676195545E+02 -0.24455478984E+02 -0.73325764003E+02  0.95939572964E+02  0.41800000000E+01 0. -1.
         -5    1    3    3    0  502  0.29305876764E+02  0.55762496190E+02 -0.16071636246E+03  0.17267168835E+03  0.41800000000E+01 0. -1.
        -11    1    1    2    0    0 -0.21339149741E+02 -0.21474816630E-01 -0.10029901538E+03  0.10254390406E+03  0.00000000000E+00 0.  1.
         11    1    1    2    0    0  0.48709468522E+02 -0.31285542390E+02 -0.40220956376E+02  0.70492005349E+02  0.00000000000E+00 0. -1.
</event>
<event>
 7    1  0.2810263E-009  0.1019299E+03  0.7561462E-02  0.1276289E+00
         -1   -1    0    0    0  501 -0.00000000000E+00  0.00000000000E+00  0.51187485210E+02  0.51187485210E+02  0.00000000000E+00 0.  1.
          1   -1    0    0  501    0  0.00000000000E+00 -0.00000000000E+00 -0.43264292507E+03  0.43264292507E+03  0.00000000000E+00 0. -1.
         25    2    1    2    0    0 -0.49512155077E+01  0.72116947396E+02 -0.32458476638E+03  0.35528888637E+03  0.12509817575E+03 0.  0.
          5    1    3    3  502    0  0.39094100223E+02  0.36013596526E+02 -0.44517972949E+02  0.69459701428E+02  0.41800000000E+01 0.  1.
         -5    1    3    3    0  502 -0.44045315731E+02  0.36103350870E+02 -0.28006679343E+03  0.28582918494E+03  0.41800000000E+01 0.  1.
        -11    1    1    2    0    0 -0.24149706748E+02 -0.54009722667E+02 -0.70165101902E+02  0.91779082603E+02  0.00000000000E+00 0. -1.
         11    1    1    2    0    0  0.29100922255E+02 -0.18107224730E+02  0.13294428425E+02  0.36762441305E+02  0.00000000000E+00 0.  1.
</event>
<event>
 7    1  0.2810263E-009  0.1095592E+03  0.7561462E-02  0.1261388E+00
         -2   -1    0    0    0  501 -0.00000000000E+00  0.00000000000E+00  0.41946094321E+02  0.41946094321E+02  0.00000000000E+00 0.  1.
          2   -1    0    0  501    0  0.00000000000E+00 -0.00000000000E+00 -0.32320065663E+03  0.32320065663E+03  0.00000000000E+00 0. -1.
         25    2    1    2    0    0 -0.97057170872E+01  0.36769879821E+02 -0.11469484642E+03  0.17392027355E+03  0.12508848369E+03 0.  0.
          5    1    3    3  502    0 -0.86039158436E+01  0.80641650770E+02 -0.96775759089E+02  0.12633338100E+03  0.41800000000E+01 0.  1.
         -5    1    3    3    0  502 -0.11018012436E+01 -0.43871770949E+02 -0.17919087328E+02  0.47586892553E+02  0.41800000000E+01 0.  1.
        -11    1    1    2    0    0  0.43874453358E+02 -0.33310686356E+00 -0.73147470775E+02  0.85297310030E+02  0.00000000000E+00 0.  1.
         11    1    1    2    0    0 -0.34168736271E+02 -0.36436772957E+02 -0.93412245113E+02  0.10592916737E+03  0.00000000000E+00 0. -1.
</event>
<event>
 7    1  0.2810263E-009  0.7060829E+02  0.7561462E-02  0.1358037E+00
          3   -1    0    0  501    0  0.00000000000E+00  0.00000000000E+00  0.45278037646E+03  0.45278037646E+03  0.00000000000E+00 0. -1.
         -3   -1    0    0    0  501 -0.00000000000E+00 -0.00000000000E+00 -0.74828436488E+02  0.74828436488E+02  0.00000000000E+00 0.  1.
         25    2    1    2    0    0  0.43950653702E+02  0.41773643090E+02  0.39050604348E+03  0.41451066746E+03  0.12508967273E+03 0.  0.
          5    1    3    3  502    0  0.31343318263E+02  0.15725315285E+02  0.15839051846E+02  0.38704484287E+02  0.41800000000E+01 0. -1.
         -5    1    3    3    0  502  0.12607335439E+02  0.26048327805E+02  0.37466699164E+03  0.37580618317E+03  0.41800000000E+01 0. -1.
        -11    1    1    2    0    0 -0.53760068075E+02 -0.30859239432E+02  0.29433141469E+02  0.68620313279E+02  0.00000000000E+00 0. -1.
         11    1    1    2    0    0  0.98094143728E+01 -0.10914403657E+02 -0.41987244977E+02  0.44477832212E+02  0.00000000000E+00 0.  1.
</event>
<event>
 7    1  0.2810263E-009  0.1177369E+03  0.7561462E-02  0.1246878E+00
          1   -1    0    0  501    0  0.00000000000E+00  0.00000000000E+00  0.12012031351E+04  0.12012031351E+04  0.00000000000E+00 0. -1.
         -1   -1    0    0    0  501 -0.00000000000E+00 -0.00000000000E+00 -0.14310889432E+02  0.14310889432E+02  0.00000000000E+00 0.  1.
         25    2    1    2    0    0  0.13274837874E+02  0.72154160831E+02  0.71954897797E+03  0.73401667496E+03  0.12508918088E+03 0.  0.
          5    1    3    3  502    0 -0.38118336105E+02  0.52697328726E+02  0.17597072516E+03  0.18765176396E+03  0.41800000000E+01 0.  1.
         -5    1    3    3    0  502  0.51393173979E+02  0.19456832106E+02  0.54357825281E+03  0.54636491100E+03  0.41800000000E+01 0.  1.
        -11    1    1    2    0    0  0.36743387141E+02 -0.45593680883E+02  0.26391432305E+03  0.27033244375E+03  0.00000000000E+00 0. -1.
         11    1    1    2    0    0 -0.50018225014E+02 -0.26560479949E+02  0.20342894460E+03  0.21116490578E+03  0.00000000000E+00 0.  1.
</event>
<event>
 7    1  0.2810263E-009  0.1097608E+03  0.7561462E-02  0.1261014E+00
         -1   -1    0    0    0  501 -0.00000000000E+00  0.00000000000E+00  0.33117392790E+02  0.33117392790E+02  0.00000000000E+00 0.  1.
          1   -1    0    0  501    0  0.00000000000E+00 -0.00000000000E+00 -0.42716053834E+03  0.42716053834E+03  0.00000000000E+00 0. -1.
         25    2    1    2    0    0  0.52985404821E+02  0.26424083524E+01 -0.21874345694E+03  0.25750875225E+03  0.12509045562E+03 0.  0.
          5    1    3    3  502    0  0.59931650255E+02  0.44730740461E+02 -0.69307282015E+02  0.10204711453E+03  0.41800000000E+01 0.  1.
         -5    1    3    3    0  502 -0.69462454342E+01 -0.42088332109E+02 -0.14943617493E+03  0.15546163772E+03  0.41800000000E+01 0.  1.
        -11    1    1    2    0    0 -0.20584380823E+02  0.41897172614E+02 -0.74962862364E+02  0.88309232478E+02  0.00000000000E+00 0.  1.
         11    1    1    2    0    0 -0.32401023999E+02 -0.44539580967E+02 -0.10033682624E+03  0.11445994640E+03  0.00000000000E+00 0. -1.
</event>
<event>
 7    1  0.2810263E-009  0.1387027E+03  0.7561462E-02  0.1215085E+00
          2   -1    0    0  501    0  0.00000000000E+00  0.00000000000E+00  0.15398659772E+03  0.15398659772E+03  0.00000000000E+00 0.  1.
         -2   -1    0    0    0  501 -0.00000000000E+00 -0.00000000000E+00 -0.15755307353E+03  0.15755307353E+03  0.00000000000E+00 0. -1.
         25    2    1    2    0    0 -0.13393938894E+02 -0.10990340699E+03  0.13282263507E+01  0.16705558770E+03  0.12509056212E+03 0.  0.
          5    1    3    3  502    0 -0.52313696959E+02 -0.78876926652E+02  0.41036807587E+02  0.10324623201E+03  0.41800000000E+01 0.  1.
         -5    1    3    3    0  502  0.38919758065E+02 -0.31026480336E+02 -0.39708581237E+02  0.63809355691E+02  0.41800000000E+01 0.  1.
        -11    1    1    2    0    0  0.24630983207E+02  0.11690815704E+03  0.15180388227E+02  0.12043523863E+03  0.00000000000E+00 0.  1.
         11    1    1    2    0    0 -0.11237044313E+02 -0.70047500550E+01 -0.20075090381E+02  0.24048844921E+02  0.00000000000E+00 0. -1.
</event>
<event>
 7    1  0.2810263E-009  0.1160771E+03  0.7561462E-02  0.1249713E+00
          1   -1    0    0  501    0  0.00000000000E+00  0.00000000000E+00  0.40145613569E+03  0.40145613569E+03  0.00000000000E+00 0. -1.
         -1   -1    0    0    0  501 -0.00000000000E+00 -0.00000000000E+00 -0.55811595509E+02  0.55811595509E+02  0.00000000000E+00 0.  1.
         25    2    1    2    0    0  0.30216688238E+02  0.64368898366E+02  0.29948114349E+03  0.33225362754E+03  0.12508842626E+03 0.  0.
          5    1    3    3  502    0  0.42736987202E+02  0.85333558014E+02  0.29066043232E+03  0.30595624772E+03  0.41800000000E+01 0. -1.
         -5    1    3    3    0  502 -0.12520298964E+02 -0.20964659648E+02  0.88207111722E+01  0.26297379829E+02  0.41800000000E+01 0. -1.
        -11    1    1    2    0    0  0.13353159173E+02  0.15751935187E+02  0.23014433370E+02  0.30920777244E+02  0.00000000000E+00 0. -1.
         11    1    1    2    0    0 -0.43569847412E+02 -0.80120833553E+02  0.23148963320E+02  0.94093326413E+02  0.00000000000E+00 0.  1.
</event>
<event>
 7    1  0.2810263E-009  0.1371877E+03  0.7561462E-02  0.1217164E+00
          1   -1    0    0  501    0  0.00000000000E+00  0.00000000000E+00  0.45591340537E+03  0.45591340537E+03  0.00000000000E+00 0. -1.
         -1   -1    0    0    0  501 -0.00000000000E+00 -0.00000000000E+00 -0.17134678335E+03  0.17134678335E+03  0.00000000000E+00 0.  1.
         25    2    1    2    0    0  0.99189857618E+02 -0.67025760528E+02  0.39984878610E+03  0.43572478872E+03  0.12508380922E+03 0.  0.
          5    1    3    3  502    0  0.11000169383E+00 -0.31536841952E+01 -0.88832657158E+01  0.10312256502E+02  0.41800000000E+01 0. -1.
         -5    1    3    3    0  502  0.99079855924E+02 -0.63872076333E+02  0.40873205182E+03  0.42541253222E+03  0.41800000000E+01 0. -1.
        -11    1    1    2    0    0 -0.44315194878E+01  0.55553881243E+02 -0.56900432111E+02  0.79646288429E+02  0.00000000000E+00 0.  1.
         11    1    1    2    0    0 -0.94758338130E+02  0.11471879285E+02 -0.58381731968E+02  0.11188911157E+03  0.00000000000E+00 0. -1.
</event>
<event>
 7    1  0.2810263E-009  0.1150350E+03  0.7561462E-02  0.1251520E+00
         -1   -1    0    0    0  501 -0.00000000000E+00  0.00000000000E+00  0.95052768171E+02  0.95052768171E+02  0.00000000000E+00 0.  1.
          1   -1    0    0  501    0  0.00000000000E+00 -0.00000000000E+00 -0.17093586712E+03  0.17093586712E+03  0.00000000000E+00 0. -1.
         25    2    1    2    0    0  0.58395251334E+02 -0.29980026225E+02 -0.42970224944E+02  0.14765798723E+03  0.12509050168E+03 0.  0.
          5    1    3    3  502    0 -0.15204880726E+02 -0.41139738603E+02 -0.56741437728E+02  0.71838218559E+02  0.41800000000E+01 0. -1.
         -5    1    3    3    0  502  0.73600132060E+02  0.11159712378E+02  0.13771212784E+02  0.75819768670E+02  0.41800000000E+01 0. -1.
        -11    1    1    2    0    0 -0.30275285112E+02  0.61903812025E+02 -0.31489135174E+02  0.75764374648E+02  0.00000000000E+00 0.  1.
         11    1    1    2    0    0 -0.28119966222E+02 -0.31923785800E+02 -0.14237388322E+01  0.42566273415E+02  0.00000000000E+00 0. -1.
</event>
<event>
 7    1  0.2810263E-009  0.2135866E+03  0.7561462E-02  0.1138757E+00
          2   -1    0    0  501    0  0.00000000000E+00  0.00000000000E+00  0.36915494331E+03  0.36915494331E+03  0.00000000000E+00 0. -1.
         -2   -1    0    0    0  501 -0.00000000000E+00 -0.00000000000E+00 -0.15251231013E+03  0.15251231013E+03  0.00000000000E+00 0.  1.
         25    2    1    2    0    0 -0.79948872744E-01 -0.19550147228E+03  0.19656252892E+03  0.30414613926E+03  0.12508882521E+03 0.  0.
          5    1    3    3  502    0 -0.46274504474E+02 -0.24742135932E+02  0.65040665697E+02  0.83673554060E+02  0.41800000000E+01 0.  1.
         -5    1    3    3    0  502  0.46194555601E+02 -0.17075933635E+03  0.13152186323E+03  0.22047258520E+03  0.41800000000E+01 0.  1.
        -11    1    1    2    0    0  0.90918081328E+01  0.21393314506E+02 -0.28270031980E+02  0.36599584544E+02  0.00000000000E+00 0.  1.
         11    1    1    2    0    0 -0.90118592601E+01  0.17410815778E+03  0.48350136247E+02  0.18092152964E+03  0.00000000000E+00 0. -1.
</event>
<event>
 7    1  0.2810263E-009  0.1170153E+03  0.7561462E-02  0.1248104E+00
         -3   -1    0    0    0  501 -0.00000000000E+00  0.00000000000E+00  0.46152767317E+03  0.46152767317E+03  0.00000000000E+00 0.  1.
          3   -1    0    0  501    0  0.00000000000E+00 -0.00000000000E+00 -0.46261340475E+02  0.46261340475E+02  0.00000000000E+00 0. -1.
         25    2    1    2    0    0  0.76073435429E+01  0.81783204055E+02  0.13194605738E+03  0.19951232577E+03  0.12509613077E+03 0.  0.
          5    1    3    3  502    0  0.37238403669E+02  0.10334169062E+03  0.80669867063E+02  0.13634993062E+03  0.41800000000E+01 0. -1.
         -5    1    3    3    0  502 -0.29631060127E+02 -0.21558486568E+02  0.51276190320E+02  0.63162395150E+02  0.41800000000E+01 0. -1.
        -11    1    1    2    0    0 -0.18564943470E+02 -0.41248671862E+02  0.37101710855E+02  0.58503393105E+02  0.00000000000E+00 0. -1.
         11    1    1    2    0    0  0.10957599927E+02 -0.40534532194E+02  0.24621856446E+03  0.24977329477E+03  0.00000000000E+00 0.  1.
</event>
<event>
 7    1  0.2810263E-009  0.9451939E+02  0.7561462E-02  0.1292262E+00
         -2   -1    0    0    0  501 -0.00000000000E+00  0.00000000000E+00  0.57782153225E+03  0.57782153225E+03  0.00000000000E+00 0. -1.
          2   -1    0    0  501    0  0.00000000000E+00 -0.00000000000E+00 -0.24805606644E+02  0.24805606644E+02  0.00000000000E+00 0.  1.
         25    2    1    2    0    0  0.37333278572E+02 -0.39265587844E+02  0.36644518235E+03  0.39097982301E+03  0.12509032838E+03 0.  0.
          5    1    3    3  502    0  0.20107096859E+02  0.21392316948E+02  0.29125104510E+03  0.29275684491E+03  0.41800000000E+01 0. -1.
         -5    1    3    3    0  502  0.17226181713E+02 -0.60657904792E+02  0.75194137251E+02  0.98222978101E+02  0.41800000000E+01 0. -1.
        -11    1    1    2    0    0 -0.45024265054E+02 -0.10170307616E+02  0.61145562448E+02  0.76612005637E+02  0.00000000000E+00 0.  1.
         11    1    1    2    0    0  0.76909864820E+01  0.49435895461E+02  0.12542518081E+03  0.13503531025E+03  0.00000000000E+00 0. -1.
</event>
<event>
 7    1  0.2810263E-009  0.4459915E+03  0.7561462E-02  0.1028924E+00
         -2   -1    0    0    0  501 -0.00000000000E+00  0.00000000000E+00  0.17006965990E+03  0.17006965990E+03  0.00000000000E+00 0.  1.
          2   -1    0    0  501    0  0.00000000000E+00 -0.00000000000E+00 -0.12535307113E+04  0.12535307113E+04  0.00000000000E+00 0. -1.
         25    2    1    2    0    0 -0.25777444486E+03 -0.36371406887E+03 -0.47031671048E+03  0.65998446351E+03  0.12508435391E+03 0.  0.
          5    1    3    3  502    0 -0.19886817926E+03 -0.26901793185E+03 -0.26698513384E+03  0.42803940762E+03  0.41800000000E+01 0. -1.
         -5    1    3    3    0  502 -0.58906265594E+02 -0.94696137027E+02 -0.20333157664E+03  0.23194505589E+03  0.41800000000E+01 0. -1.
        -11    1    1    2    0    0  0.16333857992E+03  0.23350703330E+03 -0.31442545553E+03  0.42434466342E+03  0.00000000000E+00 0.  1.
         11    1    1    2    0    0  0.94435864933E+02  0.13020703558E+03 -0.29871888536E+03  0.33927124424E+03  0.00000000000E+00 0. -1.
</event>
<event>
 7    1  0.2810263E-009  0.1018560E+03  0.7561462E-02  0.1276441E+00
         -1   -1    0    0    0  501 -0.00000000000E+00  0.00000000000E+00  0.34521964324E+03  0.34521964324E+03  0.00000000000E+00 0.  1.
          1   -1    0    0  501    0  0.00000000000E+00 -0.00000000000E+00 -0.38963206040E+02  0.38963206040E+02  0.00000000000E+00 0. -1.
         25    2    1    2    0    0 -0.85264233337E+01 -0.31894633055E+02  0.21105007801E+03  0.24754688988E+03  0.12508940701E+03 0.  0.
          5    1    3    3  502    0 -0.52987174070E+02 -0.56415911276E+02  0.11264883139E+03  0.13673926749E+03  0.41800000000E+01 0. -1.
         -5    1    3    3    0  502  0.44460750736E+02  0.24521278220E+02  0.98401246621E+02  0.11080762238E+03  0.41800000000E+01 0. -1.
        -11    1    1    2    0    0  0.30219735764E+02 -0.67258781748E+01 -0.72917494068E+00  0.30967750369E+02  0.00000000000E+00 0. -1.
         11    1    1    2    0    0 -0.21693312430E+02  0.38620511230E+02  0.95935534129E+02  0.10566820903E+03  0.00000000000E+00 0.  1.
</event>
<event>
 7    1  0.2810263E-009  0.1054187E+03  0.7561462E-02  0.1269297E+00
         -2   -1    0    0    0  501 -0.00000000000E+00  0.00000000000E+00  0.37063240202E+02  0.37063240202E+02  0.00000000000E+00 0.  1.
          2   -1    0    0  501    0  0.00000000000E+00 -0.00000000000E+00 -0.66034195455E+03  0.66034195455E+03  0.00000000000E+00 0. -1.
         25    2    1    2    0    0  0.77641233221E+02  0.28087323559E+02 -0.16472186765E+03  0.22271013858E+03  0.12509777498E+03 0.  0.
          5    1    3    3  502    0  0.62040458086E+02 -0.10131484048E+02 -0.16960904223E+03  0.18093193476E+03  0.41800000000E+01 0. -1.
         -5    1    3    3    0  502  0.15600775135E+02  0.38218807608E+02  0.48871745798E+01  0.41778203829E+02  0.41800000000E+01 0. -1.
        -11    1    1    2    0    0 -0.34097468405E+02  0.21533313213E+02 -0.71852256040E+02  0.82395798604E+02  0.00000000000E+00 0.  1.
         11    1    1    2    0    0 -0.43543764816E+02 -0.49620636772E+02 -0.38670459066E+03  0.39229925757E+03  0.00000000000E+00 0. -1.
</event>
<event>
 7    1  0.2810263E-009  0.1268300E+03  0.7561462E-02  0.1232237E+00
          1   -1    0    0  501    0  0.00000000000E+00  0.00000000000E+00  0.32025147062E+03  0.32025147062E+03  0.00000000000E+00 0. -1.
         -1   -1    0    0    0  501 -0.00000000000E+00 -0.00000000000E+00 -0.61828671218E+02  0.61828671218E+02  0.00000000000E+00 0.  1.
         25    2    1    2    0    0  0.81444525262E+02 -0.16684550764E+02  0.18618563406E+03  0.23921762068E+03  0.12509354414E+03 0.  0.
          5    1    3    3  502    0  0.95889328800E+01  0.50495227562E+02  0.58576682593E+02  0.78041115983E+02  0.41800000000E+01 0.  1.
         -5    1    3    3    0  502  0.71855592382E+02 -0.67179778326E+02  0.12760895147E+03  0.16117650470E+03  0.41800000000E+01 0.  1.
        -11    1    1    2    0    0 -0.24468292537E+02 -0.23490807088E+02  0.64297274856E+02  0.72695631995E+02  0.00000000000E+00 0. -1.
         11    1    1    2    0    0 -0.56976232725E+02  0.40175357851E+02  0.79398904905E+01  0.70166889164E+02  0.00000000000E+00 0.  1.
</event>
<event>
 7    1  0.2810263E-009  0.9987158E+02  0.7561462E-02  0.1280566E+00
          1   -1    0    0  501    0  0.00000000000E+00  0.00000000000E+00  0.93540561911E+02  0.93540561911E+02  0.00000000000E+00 0. -1.
         -1   -1    0    0    0  501 -0.00000000000E+00 -0.00000000000E+00 -0.28112887833E+03  0.28112887833E+03  0.00000000000E+00 0.  1.
         25    2    1    2    0    0  0.66196679825E+02  0.39038718225E+02  0.74602630749E+01  0.14700119347E+03  0.12509066079E+03 0.  0.
          5    1    3    3  502    0  0.68285262093E+02  0.41011631752E+02 -0.46816256751E+02  0.92488189809E+02  0.41800000000E+01 0. -1.
         -5    1    3    3    0  502 -0.20885822681E+01 -0.19729135266E+01  0.54276519826E+02  0.54513003661E+02  0.41800000000E+01 0. -1.
        -11    1    1    2    0    0 -0.25510227268E+02  0.27123832273E+02 -0.42643718090E+02  0.56612372013E+02  0.00000000000E+00 0.  1.
         11    1    1    2    0    0 -0.40686452557E+02 -0.66162550498E+02 -0.15240486141E+03  0.17105587476E+03  0.00000000000E+00 0. -1.
</event>
<event>
 7    1  0.2810263E-009  0.1048591E+03  0.7561462E-02  0.1270397E+00
         -2   -1    0    0    0  501 -0.00000000000E+00  0.00000000000E+00  0.69086733251E+03  0.69086733251E+03  0.00000000000E+00 0. -1.
          2   -1    0    0  501    0  0.00000000000E+00 -0.00000000000E+00 -0.21226838284E+02  0.21226838284E+02  0.00000000000E+00 0.  1.
         25    2    1    2    0    0  0.50436070885E+02  0.23429773666E+01  0.52767079193E+03  0.54464093478E+03  0.12509195177E+03 0.  0.
          5    1    3    3  502    0 -0.18281435765E+01  0.57675610331E+02  0.25770173483E+03  0.26411640364E+03  0.41800000000E+01 0. -1.
         -5    1    3    3    0  502  0.52264214462E+02 -0.55332632964E+02  0.26996905709E+03  0.28052453114E+03  0.41800000000E+01 0. -1.
        -11    1    1    2    0    0 -0.31909198949E+01 -0.23609039360E+02  0.10296632421E+02  0.25953599914E+02  0.00000000000E+00 0.  1.
         11    1    1    2    0    0 -0.47245150990E+02  0.21266061993E+02  0.13167306988E+03  0.14149963610E+03  0.00000000000E+00 0. -1.
</event>
<event>
 7    1  0.2810263E-009  0.1380511E+03  0.7561462E-02  0.1215976E+00
          2   -1    0    0  501    0  0.00000000000E+00  0.00000000000E+00  0.52751912141E+03  0.52751912141E+03  0.00000000000E+00 0. -1.
         -2   -1    0    0    0  501 -0.00000000000E+00 -0.00000000000E+00 -0.59963746479E+02  0.59963746479E+02  0.00000000000E+00 0.  1.
         25    2    1    2    0    0  0.90812693152E+02  0.74525327152E+02  0.11968827431E+03  0.20922203125E+03  0.12509039023E+03 0.  0.
          5    1    3    3  502    0  0.66523661211E+02  0.88284397092E+02  0.13701868944E+03  0.17609976129E+03  0.41800000000E+01 0.  1.
         -5    1    3    3    0  502  0.24289031941E+02 -0.13759069940E+02 -0.17330415132E+02  0.33122269954E+02  0.41800000000E+01 0.  1.
        -11    1    1    2    0    0 -0.10224065172E+03 -0.59218575502E+02  0.33501017737E+03  0.35523486525E+03  0.00000000000E+00 0. -1.
         11    1    1    2    0    0  0.11427958563E+02 -0.15306751650E+02  0.12856923249E+02  0.23025971390E+02  0.00000000000E+00 0.  1.
</event>
<event>
 7    1  0.2810263E-009  0.9421537E+02  0.7561462E-02  0.1292953E+00
         -1   -1    0    0    0  501 -0.00000000000E+00  0.00000000000E+00  0.21558947954E+03  0.21558947954E+03  0.00000000000E+00 0.  1.
          1   -1    0    0  501    0  0.00000000000E+00 -0.00000000000E+00 -0.10163302588E+03  0.10163302588E+03  0.00000000000E+00 0. -1.
         25    2    1    2    0    0  0.68988955287E+02  0.24658863155E+02  0.15243712852E+03  0.21036147736E+03  0.12508931817E+03 0.  0.
          5    1    3    3  502    0  0.70093263805E+02  0.69829584496E+01  0.15533313116E+02  0.72253605834E+02  0.41800000000E+01 0. -1.
         -5    1    3    3    0  502 -0.11043085189E+01  0.17675904706E+02  0.13690381540E+03  0.13810787152E+03  0.41800000000E+01 0. -1.
        -11    1    1    2    0    0  0.74859937679E+01 -0.21900881836E+02 -0.79819068201E+01  0.24482638019E+02  0.00000000000E+00 0. -1.
         11    1    1    2    0    0 -0.76474949054E+02 -0.27579813194E+01 -0.30498768048E+02  0.82378390044E+02  0.00000000000E+00 0.  1.
</event>
<event>
 7    1  0.2810263E-009  0.8996254E+02  0.7561462E-02  0.1302942E+00
         -1   -1    0    0    0  501 -0.00000000000E+00  0.00000000000E+00  0.23566827675E+03  0.23566827675E+03  0.00000000000E+00 0. -1.
          1   -1    0    0  501    0  0.00000000000E+00 -0.00000000000E+00 -0.58495928708E+02  0.58495928708E+02  0.00000000000E+00 0.  1.
         25    2    1    2    0    0 -0.24744857578E-01 -0.15266618891E+02  0.47627541067E+02  0.13471860832E+03  0.12509056917E+03 0.  0.
          5    1    3    3  502    0 -0.41994196646E+02  0.69767247452E+01 -0.23714595860E+02  0.48908503319E+02  0.41800000000E+01 0.  1.
         -5    1    3    3    0  502  0.41969451788E+02 -0.22243343636E+02  0.71342136927E+02  0.85810105004E+02  0.41800000000E+01 0.  1.
        -11    1    1    2    0    0  0.15295166640E+02 -0.34324740656E+02  0.33794055122E+02  0.50538778233E+02  0.00000000000E+00 0.  1.
         11    1    1    2    0    0 -0.15270421783E+02  0.49591359546E+02  0.95750751855E+02  0.10890681890E+03  0.00000000000E+00 0. -1.
</event>
<event>
 7    1  0.2810263E-009  0.1040938E+03  0.7561462E-02  0.1271915E+00
         -1   -1    0    0    0  501 -0.00000000000E+00  0.00000000000E+00  0.13198558608E+02  0.13198558608E+02  0.00000000000E+00 0.  1.
          1   -1    0    0  501    0  0.00000000000E+00 -0.00000000000E+00 -0.10156645408E+04  0.10156645408E+04  0.00000000000E+00 0. -1.
         25    2    1    2    0    0  0.28580567649E+02 -0.17334059500E+02 -0.68182244039E+03  0.69400640812E+03  0.12508291578E+03 0.  0.
          5    1    3    3  502    0  0.77332486649E+02 -0.80271213427E+01 -0.35739403733E+03  0.36577686981E+03  0.41800000000E+01 0. -1.
         -5    1    3    3    0  502 -0.48751919000E+02 -0.93069381572E+01 -0.32442840307E+03  0.32822953831E+03  0.41800000000E+01 0. -1.
        -11    1    1    2    0    0 -0.14150654354E+02 -0.28850006243E+02 -0.46790198788E+02  0.56761664717E+02  0.00000000000E+00 0.  1.
         11    1    1    2    0    0 -0.14429913295E+02  0.46184065743E+02 -0.27385334305E+03  0.27809502661E+03  0.00000000000E+00 0. -1.
</event>
<event>
 7    1  0.2810263E-009  0.1839707E+03  0.7561462E-02  0.1164015E+00
          1   -1    0    0  501    0  0.00000000000E+00  0.00000000000E+00  0.23581927114E+03  0.23581927114E+03  0.00000000000E+00 0. -1.
         -1   -1    0    0    0  501 -0.00000000000E+00 -0.00000000000E+00 -0.17684622776E+03  0.17684622776E+03  0.00000000000E+00 0.  1.
         25    2    1    2    0    0 -0.17047294283E+03  0.82074142080E+01  0.10776975612E+02  0.21187661062E+03  0.12508864473E+03 0.  0.
          5    1    3    3  502    0 -0.11747637264E+02  0.12928928654E+02 -0.41031608154E+02  0.44790952715E+02  0.41800000000E+01 0.  1.
         -5    1    3    3    0  502 -0.15872530557E+03 -0.47215144463E+01  0.51808583765E+02  0.16708565791E+03  0.41800000000E+01 0.  1.
        -11    1    1    2    0    0  0.65809498859E+02 -0.45514275505E+02  0.87939704673E+00  0.80020077193E+02  0.00000000000E+00 0.  1.
         11    1    1    2    0    0  0.10466344397E+03  0.37306861297E+02  0.47316670721E+02  0.12076881109E+03  0.00000000000E+00 0. -1.
</event>
<event>
 7    1  0.2810263E-009  0.1420320E+03  0.7561462E-02  0.1210621E+00
         -1   -1    0    0    0  501 -0.00000000000E+00  0.00000000000E+00  0.17494508311E+03  0.17494508311E+03  0.00000000000E+00 0.  1.
          1   -1    0    0  501    0  0.00000000000E+00 -0.00000000000E+00 -0.16285352467E+03  0.16285352467E+03  0.00000000000E+00 0. -1.
         25    2    1    2    0    0 -0.50381164766E+02  0.10273648619E+03  0.66125311582E+02  0.18196447733E+03  0.12508184049E+03 0.  0.
          5    1    3    3  502    0 -0.31844686417E+02 -0.36656720101E+01 -0.24781501140E+02  0.40732252614E+02  0.41800000000E+01 0.  1.
         -5    1    3    3    0  502 -0.18536478350E+02  0.10640215820E+03  0.90906812722E+02  0.14123222472E+03  0.41800000000E+01 0.  1.
        -11    1    1    2    0    0  0.72748047221E+02 -0.95686299590E+02 -0.55378368301E+02  0.13234390798E+03  0.00000000000E+00 0.  1.
         11    1    1    2    0    0 -0.22366882455E+02 -0.70501865988E+01  0.13446151548E+01  0.23490222472E+02  0.00000000000E+00 0. -1.
</event>
<event>
 7    1  0.2810263E-009  0.9260655E+02  0.7561462E-02  0.1296660E+00
          1   -1    0    0  501    0  0.00000000000E+00  0.00000000000E+00  0.56673730674E+03  0.56673730674E+03  0.00000000000E+00 0. -1.
         -1   -1    0    0    0  501 -0.00000000000E+00 -0.00000000000E+00 -0.24009068290E+02  0.24009068290E+02  0.00000000000E+00 0.  1.
         25    2    1    2    0    0  0.41649091040E+02  0.14886052946E+02  0.28729566038E+03  0.31645305966E+03  0.12508997216E+03 0.  0.
          5    1    3    3  502    0  0.31971031363E+02 -0.38076659864E+02  0.41805071694E+02  0.65093127841E+02  0.41800000000E+01 0. -1.
         -5    1    3    3    0  502  0.96780596769E+01  0.52962712810E+02  0.24549058869E+03  0.25135993181E+03  0.41800000000E+01 0. -1.
        -11    1    1    2    0    0  0.18744799058E+02 -0.85143786500E+01  0.12950974729E+02  0.24322620787E+02  0.00000000000E+00 0.  1.
         11    1    1    2    0    0 -0.60393890098E+02 -0.63716742957E+01  0.24248160334E+03  0.24997069458E+03  0.00000000000E+00 0. -1.
</event>
<event>
 7    1  0.2810263E-009  0.1573785E+03  0.7561462E-02  0.1191689E+00
          1   -1    0    0  501    0  0.00000000000E+00  0.00000000000E+00  0.33377787505E+03  0.33377787505E+03  0.00000000000E+00 0. -1.
         -1   -1    0    0    0  501 -0.00000000000E+00 -0.00000000000E+00 -0.10905192615E+03  0.10905192615E+03  0.00000000000E+00 0.  1.
         25    2    1    2    0    0  0.49295655313E+01  0.15048957111E+03  0.68732376494E+02  0.20746766030E+03  0.12508908370E+03 0.  0.
          5    1    3    3  502    0 -0.87686031029E+01  0.39464089091E+02 -0.35907147714E+02  0.54231894537E+02  0.41800000000E+01 0. -1.
         -5    1    3    3    0  502  0.13698168634E+02  0.11102548202E+03  0.10463952421E+03  0.15323576576E+03  0.41800000000E+01 0. -1.
        -11    1    1    2    0    0  0.22972882555E+02 -0.26464885034E+02  0.79790795416E+02  0.87147659210E+02  0.00000000000E+00 0. -1.
         11    1    1    2    0    0 -0.27902448086E+02 -0.12402468607E+03  0.76202776988E+02  0.14821448170E+03  0.00000000000E+00 0.  1.
</event>
<event>
 7    1  0.2810263E-009  0.1739046E+03  0.7561462E-02  0.1173836E+00
         -1   -1    0    0    0  501 -0.00000000000E+00  0.00000000000E+00  0.77959834947E+02  0.77959834947E+02  0.00000000000E+00 0.  1.
          1   -1    0    0  501    0  0.00000000000E+00 -0.00000000000E+00 -0.75863854865E+03  0.75863854865E+03  0.00000000000E+00 0. -1.
         25    2    1    2    0    0 -0.12116559033E+03 -0.90934200604E+02 -0.61927001309E+03  0.64968554956E+03  0.12508331252E+03 0.  0.
          5    1    3    3  502    0 -0.14363554924E+03 -0.55779386014E+02 -0.46946853415E+03  0.49412618618E+03  0.41800000000E+01 0. -1.
         -5    1    3    3    0  502  0.22469958908E+02 -0.35154814590E+02 -0.14980147894E+03  0.15555936338E+03  0.41800000000E+01 0. -1.
        -11    1    1    2    0    0  0.81555432658E+02  0.66152568027E+02  0.56708575826E+01  0.10516467790E+03  0.00000000000E+00 0.  1.
         11    1    1    2    0    0  0.39610157675E+02  0.24781632577E+02 -0.67079558192E+02  0.81748156135E+02  0.00000000000E+00 0. -1.
</event>
<event>
 7    1  0.2810263E-009  0.1251492E+03  0.7561462E-02  0.1234836E+00
         -2   -1    0    0    0  501 -0.00000000000E+00  0.00000000000E+00  0.47297050293E+02  0.47297050293E+02  0.00000000000E+00 0. -1.
          2   -1    0    0  501    0  0.00000000000E+00 -0.00000000000E+00 -0.35823119176E+03  0.35823119176E+03  0.00000000000E+00 0.  1.
         25    2    1    2    0    0 -0.70644005860E+02  0.34390293984E-01 -0.21324084757E+03  0.25711646493E+03  0.12508653292E+03 0.  0.
          5    1    3    3  502    0  0.16332156095E+02 -0.43021830224E+02 -0.76788340485E+02  0.89618853111E+02  0.41800000000E+01 0.  1.
         -5    1    3    3    0  502 -0.86976161955E+02  0.43056220518E+02 -0.13645250709E+03  0.16749761181E+03  0.41800000000E+01 0.  1.
        -11    1    1    2    0    0  0.11261765022E+02 -0.35868554984E+02 -0.14983428689E+02  0.40470776164E+02  0.00000000000E+00 0. -1.
         11    1    1    2    0    0  0.59382240838E+02  0.35834164690E+02 -0.82709865204E+02  0.10794100096E+03  0.00000000000E+00 0.  1.
</event>
<event>
 7    1  0.2810263E-009  0.1039448E+03  0.7561462E-02  0.1272213E+00
         -2   -1    0    0    0  501 -0.00000000000E+00  0.00000000000E+00  0.25713239540E+02  0.25713239540E+02  0.00000000000E+00 0.  1.
          2   -1    0    0  501    0  0.00000000000E+00 -0.00000000000E+00 -0.58158286902E+03  0.58158286902E+03  0.00000000000E+00 0. -1.
         25    2    1    2    0    0  0.23394673087E+02 -0.49675775293E+02 -0.34565865894E+03  0.37167858038E+03  0.12510022075E+03 0.  0.
          5    1    3    3  502    0  0.54254484288E+02 -0.21469934453E+01 -0.62597190694E+02  0.82970111058E+02  0.41800000000E+01 0. -1.
         -5    1    3    3    0  502 -0.30859811201E+02 -0.47528781848E+02 -0.28306146825E+03  0.28870846932E+03  0.41800000000E+01 0. -1.
        -11    1    1    2    0    0 -0.53114844014E+02  0.32981162984E+02 -0.82967940955E+02  0.10388754975E+03  0.00000000000E+00 0.  1.
         11    1    1    2    0    0  0.29720170927E+02  0.16694612309E+02 -0.12724302959E+03  0.13172997844E+03  0.00000000000E+00 0. -1.
</event>
<event>
 7    1  0.2810263E-009  0.2871101E+03  0.7561462E-02  0.1091868E+00
         -2   -1    0    0    0  501 -0.00000000000E+00  0.00000000000E+00  0.32956102833E+03  0.32956102833E+03  0.00000000000E+00 0.  1.
          2   -1    0    0  501    0  0.00000000000E+00 -0.00000000000E+00 -0.28940519253E+03  0.28940519253E+03  0.00000000000E+00 0. -1.
         25    2    1    2    0    0  0.15245194121E+03  0.22561638844E+03  0.11739264733E+03  0.32182788840E+03  0.12509119472E+03 0.  0.
          5    1    3    3  502    0  0.16278037147E+03  0.22252495010E+03  0.86730483852E+02  0.28905786961E+03  0.41800000000E+01 0. -1.
         -5    1    3    3    0  502 -0.10328430266E+02  0.30914383435E+01  0.30662163476E+02  0.32770018795E+02  0.41800000000E+01 0. -1.
        -11    1    1    2    0    0 -0.73361556106E+02 -0.36523157797E+02 -0.22997737871E+02  0.85116126069E+02  0.00000000000E+00 0. -1.
         11    1    1    2    0    0 -0.79090385100E+02 -0.18909323064E+03 -0.54239073658E+02  0.21202220639E+03  0.00000000000E+00 0.  1.
</event>
<event>
 7    1  0.2810263E-009  0.1157598E+03  0.7561462E-02  0.1250261E+00
         -2   -1    0    0    0  501 -0.00000000000E+00  0.00000000000E+00  0.23340861548E+02  0.23340861548E+02  0.00000000000E+00 0.  1.
          2   -1    0    0  501    0  0.00000000000E+00 -0.00000000000E+00 -0.92126614088E+03  0.92126614088E+03  0.00000000000E+00 0. -1.
         25    2    1    2    0    0 -0.96496830238E+01 -0.96163580445E+02 -0.54183681999E+03  0.56442452366E+03  0.12508937938E+03 0.  0.
          5    1    3    3  502    0  0.13193276640E+02 -0.57204453864E+02 -0.74741708854E+02  0.95132578714E+02  0.41800000000E+01 0. -1.
         -5    1    3    3    0  502 -0.22842959664E+02 -0.38959126582E+02 -0.46709511113E+03  0.46929194495E+03  0.41800000000E+01 0. -1.
        -11    1    1    2    0    0  0.45323407210E+02  0.38327395472E+02 -0.22280474114E+03  0.23057569941E+03  0.00000000000E+00 0. -1.
         11    1    1    2    0    0 -0.35673724186E+02  0.57836184973E+02 -0.13328371820E+03  0.14960677935E+03  0.00000000000E+00 0.  1.
</event>
<event>
 7    1  0.2810263E-009  0.1854638E+03  0.7561462E-02  0.1162618E+00
          2   -1    0    0  501    0  0.00000000000E+00  0.00000000000E+00  0.12197428472E+04  0.12197428472E+04  0.00000000000E+00 0.  1.
         -2   -1    0    0    0  501 -0.00000000000E+00 -0.00000000000E+00 -0.41611484191E+02  0.41611484191E+02  0.00000000000E+00 0. -1.
         25    2    1    2    0    0  0.15354532813E+03 -0.74933161780E+02  0.88519693848E+03  0.91017223487E+03  0.12509488684E+03 0.  0.
          5    1    3    3  502    0  0.25648847675E+02 -0.66759193312E+02  0.18608450405E+03  0.19939801485E+03  0.41800000000E+01 0.  1.
         -5    1    3    3    0  502  0.12789648045E+03 -0.81739684685E+01  0.69911243443E+03  0.71077422002E+03  0.41800000000E+01 0.  1.
        -11    1    1    2    0    0 -0.23640932086E+02  0.15014119337E+02  0.13589750549E+03  0.13875319617E+03  0.00000000000E+00 0.  1.
         11    1    1    2    0    0 -0.12990439604E+03  0.59919042443E+02  0.15703691900E+03  0.21242890031E+03  0.00000000000E+00 0. -1.
</event>
<event>
 7    1  0.2810263E-009  0.8329125E+02  0.7561462E-02  0.1319963E+00
          3   -1    0    0  501    0  0.00000000000E+00  0.00000000000E+00  0.30267376572E+02  0.30267376572E+02  0.00000000000E+00 0. -1.
         -3   -1    0    0    0  501 -0.00000000000E+00 -0.00000000000E+00 -0.46769308950E+03  0.46769308950E+03  0.00000000000E+00 0.  1.
         25    2    1    2    0    0  0.25054026595E+02 -0.93638470197E+01 -0.32890376895E+03  0.35290132863E+03  0.12508506162E+03 0.  0.
          5    1    3    3  502    0  0.61854633300E+02 -0.91067978944E+01 -0.81824444575E+02  0.10306134852E+03  0.41800000000E+01 0.  1.
         -5    1    3    3    0  502 -0.36800606705E+02 -0.25704912527E+00 -0.24707932438E+03  0.24983998012E+03  0.41800000000E+01 0.  1.
        -11    1    1    2    0    0 -0.35932467958E+02  0.27831171648E+02 -0.11417854434E+03  0.12289205164E+03  0.00000000000E+00 0.  1.
         11    1    1    2    0    0  0.10878441364E+02 -0.18467324628E+02  0.56566003589E+01  0.22167085804E+02  0.00000000000E+00 0. -1.
</event>
<event>
 7    1  0.2810263E-009  0.2274103E+03  0.7561462E-02  0.1128476E+00
          1   -1    0    0  501    0  0.00000000000E+00  0.00000000000E+00  0.51668997182E+03  0.51668997182E+03  0.00000000000E+00 0. -1.
         -1   -1    0    0    0  501 -0.00000000000E+00 -0.00000000000E+00 -0.11350386899E+03  0.11350386899E+03  0.00000000000E+00 0.  1.
         25    2    1    2    0    0  0.52900237278E+02 -0.20904051016E+03  0.19489446695E+03  0.31642799601E+03  0.12508578425E+03 0.  0.
          5    1    3    3  502    0  0.46306553787E+02 -0.21528665855E+03  0.14078168390E+03  0.26139930603E+03  0.41800000000E+01 0.  1.
         -5    1    3    3    0  502  0.65936834909E+01  0.62461483865E+01  0.54112783049E+02  0.55028689980E+02  0.41800000000E+01 0.  1.
        -11    1    1    2    0    0 -0.57811039204E+02  0.10065476881E+03  0.15283716956E+03  0.19191847002E+03  0.00000000000E+00 0. -1.
         11    1    1    2    0    0  0.49108019258E+01  0.10838574135E+03  0.55454466326E+02  0.12184737478E+03  0.00000000000E+00 0.  1.
</event>
<event>
 7    1  0.2810263E-009  0.1123004E+03  0.7561462E-02  0.1256368E+00
         -1   -1    0    0    0  501 -0.00000000000E+00  0.00000000000E+00  0.23684961443E+02  0.23684961443E+02  0.00000000000E+00 0.  1.
          1   -1    0    0  501    0  0.00000000000E+00 -0.00000000000E+00 -0.74670529758E+03  0.74670529758E+03  0.00000000000E+00 0. -1.
         25    2    1    2    0    0  0.35091633763E+01 -0.55617983864E+02 -0.24749521240E+03  0.28285545069E+03  0.12509057304E+03 0.  0.
          5    1    3    3  502    0  0.24938036548E+02  0.25124607352E+02 -0.20912388303E+02  0.41327375262E+02  0.41800000000E+01 0.  1.
         -5    1    3    3    0  502 -0.21428873172E+02 -0.80742591217E+02 -0.22658282410E+03  0.24152807542E+03  0.41800000000E+01 0.  1.
        -11    1    1    2    0    0  0.40073069037E+02  0.81902912268E+01 -0.13864591732E+03  0.14455318095E+03  0.00000000000E+00 0.  1.
         11    1    1    2    0    0 -0.43582232413E+02  0.47427692638E+02 -0.33687920641E+03  0.34298162739E+03  0.00000000000E+00 0. -1.
</event>
<event>
 7    1  0.2810263E-009  0.9764800E+02  0.7561462E-02  0.1285321E+00
          4   -1    0    0  501    0  0.00000000000E+00  0.00000000000E+00  0.24085588090E+03  0.24085588090E+03  0.00000000000E+00 0. -1.
         -4   -1    0    0    0  501 -0.00000000000E+00 -0.00000000000E+00 -0.56304645239E+02  0.56304645239E+02  0.00000000000E+00 0.  1.
         25    2    1    2    0    0 -0.34335215904E+02  0.11562301407E+02  0.74607153545E+02  0.15009281720E+03  0.12509609326E+03 0.  0.
          5    1    3    3  502    0 -0.71966821205E+02 -0.88808663542E+01  0.11241047991E+02  0.73497800657E+02  0.41800000000E+01 0. -1.
         -5    1    3    3    0  502  0.37631605301E+02  0.20443167762E+02  0.63366105554E+02  0.76595016540E+02  0.41800000000E+01 0. -1.
        -11    1    1    2    0    0  0.46254878616E+02  0.16527763547E+02  0.10531202634E+03  0.11620371618E+03  0.00000000000E+00 0. -1.
         11    1    1    2    0    0 -0.11919662713E+02 -0.28090064954E+02  0.46320557810E+01  0.30863992760E+02  0.00000000000E+00 0.  1.
</event>
<event>
 7    1  0.3171401E-009  0.1079732E+03  0.7561462E-02  0.1264370E+00
         -1   -1    0    0    0  501 -0.00000000000E+00  0.00000000000E+00  0.11510610779E+03  0.11510610779E+03  0.00000000000E+00 0.  1.
          1   -1    0    0  501    0  0.00000000000E+00 -0.00000000000E+00 -0.14929146482E+03  0.14929146482E+03  0.00000000000E+00 0. -1.
         25    2    1    2    0    0 -0.73103282871E+02 -0.70622976154E+01 -0.20954498795E+02  0.14656145524E+03  0.12508878098E+03 0.  0.
          5    1    3    3  502    0 -0.10441725494E+03 -0.17607945196E+02  0.22023947651E+01  0.10599681979E+03  0.41800000000E+01 0.  1.
         -5    1    3    3    0  502  0.31313972069E+02  0.10545647580E+02 -0.23156893560E+02  0.40564635447E+02  0.41800000000E+01 0.  1.
        -11    1    1    2    0    0  0.31997724694E+02 -0.78389904810E+01 -0.50559733267E+02  0.60345594581E+02  0.00000000000E+00 0. -1.
         11    1    1    2    0    0  0.41105558177E+02  0.14901288096E+02  0.37328875034E+02  0.57490522795E+02  0.00000000000E+00 0.  1.
</event>
<event>
 7    1  0.2810263E-009  0.1343439E+03  0.7561462E-02  0.1221149E+00
         -4   -1    0    0    0  501 -0.00000000000E+00  0.00000000000E+00  0.76007604764E+03  0.76007604764E+03  0.00000000000E+00 0.  1.
          4   -1    0    0  501    0  0.00000000000E+00 -0.00000000000E+00 -0.36703207373E+02  0.36703207373E+02  0.00000000000E+00 0. -1.
         25    2    1    2    0    0  0.96821100565E+02 -0.10463079741E+02  0.57676442673E+03  0.59815441071E+03  0.12509074131E+03 0.  0.
          5    1    3    3  502    0  0.45952015321E+02  0.45733801698E+02  0.40748644691E+03  0.41263282122E+03  0.41800000000E+01 0.  1.
         -5    1    3    3    0  502  0.50869085244E+02 -0.56196881439E+02  0.16927797982E+03  0.18552158950E+03  0.41800000000E+01 0.  1.
        -11    1    1    2    0    0 -0.78632723704E+02 -0.29431514288E+02  0.12272483477E+03  0.14869668571E+03  0.00000000000E+00 0. -1.
         11    1    1    2    0    0 -0.18188376861E+02  0.39894594030E+02  0.23883578759E+02  0.49928158588E+02  0.00000000000E+00 0.  1.
</event>
<event>
 7    1  0.2810263E-009  0.1263666E+03  0.7561462E-02  0.1232949E+00
          2   -1    0    0  501    0  0.00000000000E+00  0.00000000000E+00  0.10601735101E+03  0.10601735101E+03  0.00000000000E+00 0. -1.
         -2   -1    0    0    0  501 -0.00000000000E+00 -0.00000000000E+00 -0.22752363282E+03  0.22752363282E+03  0.00000000000E+00 0.  1.
         25    2    1    2    0    0  0.39702496404E+02 -0.86406358751E+02 -0.37352712126E+01  0.15717430814E+03  0.12508982307E+03 0.  0.
          5    1    3    3  502    0  0.82124126845E+02 -0.57571296225E+02  0.16777189162E+02  0.10177314398E+03  0.41800000000E+01 0.  1.
         -5    1    3    3    0  502 -0.42421630441E+02 -0.28835062525E+02 -0.20512460375E+02  0.55401164164E+02  0.41800000000E+01 0.  1.
        -11    1    1    2    0    0 -0.21283106884E+02  0.12416020445E+02  0.10786897283E+02  0.26897683085E+02  0.00000000000E+00 0. -1.
         11    1    1    2    0    0 -0.18419389520E+02  0.73990338306E+02 -0.12855790787E+03  0.14946899260E+03  0.00000000000E+00 0.  1.
</event>
<event>
 7    1  0.2810263E-009  0.7263494E+02  0.7561462E-02  0.1351355E+00
         -2   -1    0    0    0  501 -0.00000000000E+00  0.00000000000E+00  0.31523319220E+02  0.31523319220E+02  0.00000000000E+00 0.  1.
          2   -1    0    0  501    0  0.00000000000E+00 -0.00000000000E+00 -0.51826545460E+03  0.51826545460E+03  0.00000000000E+00 0. -1.
         25    2    1    2    0    0 -0.32126684573E+02 -0.24238345820E+02 -0.37920115982E+03  0.40132436744E+03  0.12509239393E+03 0.  0.
          5    1    3    3  502    0 -0.30451504608E+02 -0.93610248862E+01 -0.38377795839E+03  0.38512065209E+03  0.41800000000E+01 0. -1.
         -5    1    3    3    0  502 -0.16751799647E+01 -0.14877320934E+02  0.45767985647E+01  0.16203715351E+02  0.41800000000E+01 0. -1.
        -11    1    1    2    0    0  0.84207967918E+01  0.56742874147E+02 -0.84411812366E+02  0.10205889306E+03  0.00000000000E+00 0. -1.
         11    1    1    2    0    0  0.23705887781E+02 -0.32504528327E+02 -0.23129163194E+02  0.46405513329E+02  0.00000000000E+00 0.  1.
</event>
<event>
 7    1  0.2810263E-009  0.9977911E+02  0.7561462E-02  0.1280761E+00
         -2   -1    0    0    0  501 -0.00000000000E+00  0.00000000000E+00  0.10947402123E+02  0.10947402123E+02  0.00000000000E+00 0.  1.
          2   -1    0    0  501    0  0.00000000000E+00 -0.00000000000E+00 -0.14538398756E+04  0.14538398756E+04  0.00000000000E+00 0. -1.
         25    2    1    2    0    0  0.29848316786E+01 -0.39637832892E+02 -0.11102390861E+04  0.11179689616E+04  0.12507479251E+03 0.  0.
          5    1    3    3  502    0  0.50414169154E+02 -0.85706079022E+01 -0.21947857758E+03  0.22539601192E+03  0.41800000000E+01 0. -1.
         -5    1    3    3    0  502 -0.47429337475E+02 -0.31067224990E+02 -0.89076050856E+03  0.89257294970E+03  0.41800000000E+01 0. -1.
        -11    1    1    2    0    0 -0.32084490417E+02  0.50922000481E+02 -0.15188622725E+03  0.16337653041E+03  0.00000000000E+00 0.  1.
         11    1    1    2    0    0  0.29099658739E+02 -0.11284167589E+02 -0.18076716011E+03  0.18344178572E+03  0.00000000000E+00 0. -1.
</event>
<event>
 7    1  0.2810263E-009  0.1347694E+03  0.7561462E-02  0.1220546E+00
          2   -1    0    0  501    0  0.00000000000E+00  0.00000000000E+00  0.33306821261E+03  0.33306821261E+03  0.00000000000E+00 0. -1.
         -2   -1    0    0    0  501 -0.00000000000E+00 -0.00000000000E+00 -0.96752418846E+02  0.96752418846E+02  0.00000000000E+00 0.  1.
         25    2    1    2    0    0  0.10235524705E+03 -0.87312637970E+02  0.17273925329E+03  0.25216363514E+03  0.12509019111E+03 0.  0.
          5    1    3    3  502    0  0.71850919962E+02 -0.64194365253E+02  0.25194639676E+02  0.99678049229E+02  0.41800000000E+01 0.  1.
         -5    1    3    3    0  502  0.30504327091E+02 -0.23118272717E+02  0.14754461361E+03  0.15248558591E+03  0.41800000000E+01 0.  1.
        -11    1    1    2    0    0 -0.38669436435E+02  0.30478401979E+02  0.76853173538E+02  0.91272496319E+02  0.00000000000E+00 0.  1.
         11    1    1    2    0    0 -0.63685810618E+02  0.56834235991E+02 -0.13276633060E+02  0.86384500000E+02  0.00000000000E+00 0. -1.
</event>
<event>
 7    1  0.2810263E-009  0.1377277E+03  0.7561462E-02  0.1216420E+00
          2   -1    0    0  501    0  0.00000000000E+00  0.00000000000E+00  0.74102001770E+03  0.74102001770E+03  0.00000000000E+00 0.  1.
         -2   -1    0    0    0  501 -0.00000000000E+00 -0.00000000000E+00 -0.43158900496E+02  0.43158900496E+02  0.00000000000E+00 0. -1.
         25    2    1    2    0    0 -0.48683114185E+02 -0.10389283622E+03  0.55123836636E+03  0.57677977886E+03  0.12508960677E+03 0.  0.
          5    1    3    3  502    0 -0.68886680359E+02 -0.65496326755E+02  0.50235274578E+03  0.51128357801E+03  0.41800000000E+01 0. -1.
         -5    1    3    3    0  502  0.20203566174E+02 -0.38396509469E+02  0.48885620580E+02  0.65496200844E+02  0.41800000000E+01 0. -1.
        -11    1    1    2    0    0  0.63019047348E+02  0.10487448051E+03  0.14903878041E+03  0.19282794159E+03  0.00000000000E+00 0.  1.
         11    1    1    2    0    0 -0.14335933163E+02 -0.98164428437E+00 -0.24160295658E+01  0.14571197755E+02  0.00000000000E+00 0. -1.
</event>
<event>
 7    1  0.2810263E-009  0.1552218E+03  0.7561462E-02  0.1194199E+00
         -2   -1    0    0    0  501 -0.00000000000E+00  0.00000000000E+00  0.79841926111E+02  0.79841926111E+02  0.00000000000E+00 0.  1.
          2   -1    0    0  501    0  0.00000000000E+00 -0.00000000000E+00 -0.54798299454E+03  0.54798299454E+03  0.00000000000E+00 0. -1.
         25    2    1    2    0    0  0.11316448556E+03 -0.48774538382E+02 -0.43781628347E+03  0.47171596081E+03  0.12509073994E+03 0.  0.
          5    1    3    3  502    0  0.17698343749E+02 -0.72093781866E+02 -0.23160226668E+03  0.24324437730E+03  0.41800000000E+01 0.  1.
         -5    1    3    3    0  502  0.95466141809E+02  0.23319243485E+02 -0.20621401679E+03  0.22847158351E+03  0.41800000000E+01 0.  1.
        -11    1    1    2    0    0 -0.16051543493E+02  0.36462886201E+02  0.21580289910E+02  0.45308972966E+02  0.00000000000E+00 0.  1.
         11    1    1    2    0    0 -0.97112942065E+02  0.12311652180E+02 -0.51905074867E+02  0.11079998688E+03  0.00000000000E+00 0. -1.
</event>
<event>
 7    1  0.2810263E-009  0.2083038E+03  0.7561462E-02  0.1142916E+00
          1   -1    0    0  501    0  0.00000000000E+00  0.00000000000E+00  0.32327370701E+03  0.32327370701E+03  0.00000000000E+00 0. -1.
         -1   -1    0    0    0  501 -0.00000000000E+00 -0.00000000000E+00 -0.13842721850E+03  0.13842721850E+03  0.00000000000E+00 0.  1.
         25    2    1    2    0    0 -0.47704757224E+02 -0.17440164318E+03  0.10066889704E+03  0.24181252437E+03  0.12508954035E+03 0.  0.
          5    1    3    3  502    0 -0.63693863396E+02 -0.18624368882E+03  0.79106968419E+02  0.21217682416E+03  0.41800000000E+01 0. -1.
         -5    1    3    3    0  502  0.15989106172E+02  0.11842045637E+02  0.21561928617E+02  0.29635700206E+02  0.41800000000E+01 0. -1.
        -11    1    1    2    0    0 -0.22167195996E+02  0.72720778278E+02  0.52880220574E+02  0.92606770269E+02  0.00000000000E+00 0. -1.
         11    1    1    2    0    0  0.69871953220E+02  0.10168086490E+03  0.31297370904E+02  0.12728163088E+03  0.00000000000E+00 0.  1.
</event>
<event>
 7    1  0.2810263E-009  0.1076460E+03  0.7561462E-02  0.1264992E+00
          2   -1    0    0  501    0  0.00000000000E+00  0.00000000000E+00  0.31741498982E+03  0.31741498982E+03  0.00000000000E+00 0. -1.
         -2   -1    0    0    0  501 -0.00000000000E+00 -0.00000000000E+00 -0.52947137569E+02  0.52947137569E+02  0.00000000000E+00 0.  1.
         25    2    1    2    0    0 -0.58769009695E+01  0.51514728361E+02  0.21187966114E+03  0.25145467443E+03  0.12509259484E+03 0.  0.
          5    1    3    3  502    0  0.49334262412E+02  0.60966313117E+02  0.13597651021E+03  0.15702816471E+03  0.41800000000E+01 0. -1.
         -5    1    3    3    0  502 -0.55211163382E+02 -0.94515847562E+01  0.75903150924E+02  0.94426509713E+02  0.41800000000E+01 0. -1.
        -11    1    1    2    0    0 -0.28024606902E+02 -0.21847131281E+02 -0.14266330759E+02  0.38291042432E+02  0.00000000000E+00 0.  1.
         11    1    1    2    0    0  0.33901507871E+02 -0.29667597079E+02  0.66854521875E+02  0.80616410535E+02  0.00000000000E+00 0. -1.
</event>
<event>
 7    1  0.2810263E-009  0.1360215E+03  0.7561462E-02  0.1218785E+00
         -2   -1    0    0    0  501 -0.00000000000E+00  0.00000000000E+00  0.13912182843E+02  0.13912182843E+02  0.00000000000E+00 0.  1.
          2   -1    0    0  501    0  0.00000000000E+00 -0.00000000000E+00 -0.15995225472E+04  0.15995225472E+04  0.00000000000E+00 0. -1.
         25    2    1    2    0    0  0.25469374066E+02  0.95778917871E+02 -0.99589476196E+03  0.10086012012E+04  0.12509083076E+03 0.  0.
          5    1    3    3  502    0 -0.71458567890E+01 -0.18375949224E+02 -0.42498764463E+03  0.42546528562E+03  0.41800000000E+01 0. -1.
         -5    1    3    3    0  502  0.32615230855E+02  0.11415486710E+03 -0.57090711733E+03  0.58313591553E+03  0.41800000000E+01 0. -1.
        -11    1    1    2    0    0 -0.46784754966E+02 -0.14374573305E+02 -0.17797895327E+03  0.18458588641E+03  0.00000000000E+00 0.  1.
         11    1    1    2    0    0  0.21315380901E+02 -0.81404344567E+02 -0.41173664915E+03  0.42024764250E+03  0.00000000000E+00 0. -1.
</event>
<event>
 7    1  0.2995493E-009  0.1881260E+03  0.7561462E-02  0.1160162E+00
          1   -1    0    0  501    0  0.00000000000E+00  0.00000000000E+00  0.27009388943E+04  0.27009388943E+04  0.00000000000E+00 0. -1.
         -1   -1    0    0    0  501 -0.00000000000E+00 -0.00000000000E+00 -0.15994312139E+02  0.15994312139E+02  0.00000000000E+00 0.  1.
         25    2    1    2    0    0  0.15028913359E+03  0.73035059550E+02  0.17763709259E+04  0.17885930704E+04  0.12510220390E+03 0.  0.
          5    1    3    3  502    0  0.16015906234E+03  0.69567997295E+02  0.17604275341E+04  0.17690712837E+04  0.41800000000E+01 0. -1.
         -5    1    3    3    0  502 -0.98699287471E+01  0.34670622557E+01  0.15943391813E+02  0.19521786718E+02  0.41800000000E+01 0. -1.
        -11    1    1    2    0    0 -0.79136716039E+02 -0.87217442994E+02  0.58406225671E+03  0.59581727224E+03  0.00000000000E+00 0.  1.
         11    1    1    2    0    0 -0.71152417555E+02  0.14182383444E+02  0.32451139952E+03  0.33252286379E+03  0.00000000000E+00 0. -1.
</event>
<event>
 7    1  0.2810263E-009  0.9464099E+02  0.7561462E-02  0.1291987E+00
          1   -1    0    0  501    0  0.00000000000E+00  0.00000000000E+00  0.13121950925E+03  0.13121950925E+03  0.00000000000E+00 0. -1.
         -1   -1    0    0    0  501 -0.00000000000E+00 -0.00000000000E+00 -0.97288579863E+02  0.97288579863E+02  0.00000000000E+00 0.  1.
         25    2    1    2    0    0 -0.18802250184E+02 -0.13844899579E+02 -0.65187766614E+01  0.12741713920E+03  0.12508967605E+03 0.  0.
          5    1    3    3  502    0  0.40396058362E+01  0.54473906474E+02 -0.72163182798E+01  0.55256425430E+02  0.41800000000E+01 0.  1.
         -5    1    3    3    0  502 -0.22841856020E+02 -0.68318806052E+02  0.69754161838E+00  0.72160713766E+02  0.41800000000E+01 0.  1.
        -11    1    1    2    0    0  0.35700798182E+02 -0.60807963380E+01 -0.15460893353E+02  0.39377179917E+02  0.00000000000E+00 0.  1.
         11    1    1    2    0    0 -0.16898547998E+02  0.19925695917E+02  0.55910599403E+02  0.61713770001E+02  0.00000000000E+00 0. -1.
</event>
<event>
 7    1  0.2810263E-009  0.1259183E+03  0.7561462E-02  0.1233641E+00
          4   -1    0    0  501    0  0.00000000000E+00  0.00000000000E+00  0.28136681747E+03  0.28136681747E+03  0.00000000000E+00 0.  1.
         -4   -1    0    0    0  501 -0.00000000000E+00 -0.00000000000E+00 -0.70721122570E+02  0.70721122570E+02  0.00000000000E+00 0. -1.
         25    2    1    2    0    0  0.37846170028E+02 -0.81581703901E+02  0.13360864177E+03  0.20392912078E+03  0.12509160703E+03 0.  0.
          5    1    3    3  502    0 -0.25833482311E+02 -0.45406856821E+02  0.10407135641E+01  0.52418574374E+02  0.41800000000E+01 0.  1.
         -5    1    3    3    0  502  0.63679652338E+02 -0.36174847080E+02  0.13256792820E+03  0.15151054640E+03  0.41800000000E+01 0.  1.
        -11    1    1    2    0    0  0.24902964785E+02  0.49921029297E+02  0.27694223994E+02  0.62283520002E+02  0.00000000000E+00 0.  1.
         11    1    1    2    0    0 -0.62749134812E+02  0.31660674603E+02  0.49342829139E+02  0.85875299263E+02  0.00000000000E+00 0. -1.
</event>
<event>
 7    1  0.2810263E-009  0.1075333E+03  0.7561462E-02  0.1265207E+00
          4   -1    0    0  501    0  0.00000000000E+00  0.00000000000E+00  0.33090513963E+03  0.33090513963E+03  0.00000000000E+00 0. -1.
         -4   -1    0    0    0  501 -0.00000000000E+00 -0.00000000000E+00 -0.47555727525E+02  0.47555727525E+02  0.00000000000E+00 0.  1.
         25    2    1    2    0    0  0.59576653215E+02 -0.18976649716E+02  0.15622536870E+03  0.20967347493E+03  0.12508840642E+03 0.  0.
          5    1    3    3  502    0  0.63394868396E+02 -0.50626818354E+02  0.15779914133E+03  0.17748246528E+03  0.41800000000E+01 0. -1.
         -5    1    3    3    0  502 -0.38182151805E+01  0.31650168638E+02 -0.15737726330E+01  0.32191009650E+02  0.41800000000E+01 0. -1.
        -11    1    1    2    0    0 -0.77709669292E+02  0.34193026230E+01  0.62165323760E+02  0.99574152320E+02  0.00000000000E+00 0.  1.
         11    1    1    2    0    0  0.18133016077E+02  0.15557347093E+02  0.64958719648E+02  0.69213239911E+02  0.00000000000E+00 0. -1.
</event>
<event>
 7    1  0.2810263E-009  0.2487051E+03  0.7561462E-02  0.1114126E+00
          1   -1    0    0  501    0  0.00000000000E+00  0.00000000000E+00  0.93319623313E+03  0.93319623313E+03  0.00000000000E+00 0. -1.
         -1   -1    0    0    0  501 -0.00000000000E+00 -0.00000000000E+00 -0.10769590631E+03  0.10769590631E+03  0.00000000000E+00 0.  1.
         25    2    1    2    0    0  0.20927748082E+03 -0.11590910824E+03  0.12901635426E+03  0.29920692577E+03  0.12509028504E+03 0.  0.
          5    1    3    3  502    0  0.14564209775E+03 -0.26148237973E+02  0.29817199382E+02  0.15100294290E+03  0.41800000000E+01 0. -1.
         -5    1    3    3    0  502  0.63635383072E+02 -0.89760870264E+02  0.99199154881E+02  0.14820398287E+03  0.41800000000E+01 0. -1.
        -11    1    1    2    0    0 -0.44904235147E+02  0.26928002628E+02  0.66970322436E+02  0.85009009798E+02  0.00000000000E+00 0.  1.
         11    1    1    2    0    0 -0.16437324568E+03  0.88981105609E+02  0.62951365012E+03  0.65667620388E+03  0.00000000000E+00 0. -1.
</event>
<event>
 7    1  0.2810263E-009  0.1118045E+03  0.7561462E-02  0.1257264E+00
         -1   -1    0    0    0  501 -0.00000000000E+00  0.00000000000E+00  0.71256810850E+02  0.71256810850E+02  0.00000000000E+00 0.  1.
          1   -1    0    0  501    0  0.00000000000E+00 -0.00000000000E+00 -0.21415635498E+03  0.21415635498E+03  0.00000000000E+00 0. -1.
         25    2    1    2    0    0  0.39157321992E+02  0.24655006096E+02 -0.12142246556E+03  0.18036798467E+03  0.12509208432E+03 0.  0.
          5    1    3    3  502    0  0.20872358550E+01 -0.43344087707E+02 -0.10199055792E+02  0.44772308760E+02  0.41800000000E+01 0.  1.
         -5    1    3    3    0  502  0.37070086137E+02  0.67999093803E+02 -0.11122340977E+03  0.13559567591E+03  0.41800000000E+01 0.  1.
        -11    1    1    2    0    0  0.86101549696E-02 -0.53695949850E+02 -0.67927072195E+01  0.54123894684E+02  0.00000000000E+00 0.  1.
         11    1    1    2    0    0 -0.39165932147E+02  0.29040943753E+02 -0.14684371356E+02  0.50921286484E+02  0.00000000000E+00 0. -1.
</event>
<event>
 7    1  0.2810263E-009  0.9556341E+02  0.7561462E-02  0.1289912E+00
         -2   -1    0    0    0  501 -0.00000000000E+00  0.00000000000E+00  0.65274607116E+02  0.65274607116E+02  0.00000000000E+00 0.  1.
          2   -1    0    0  501    0  0.00000000000E+00 -0.00000000000E+00 -0.23025653965E+03  0.23025653965E+03  0.00000000000E+00 0. -1.
         25    2    1    2    0    0 -0.38356308253E+02 -0.42937550682E+02 -0.85900155516E+02  0.16229978893E+03  0.12509014800E+03 0.  0.
          5    1    3    3  502    0 -0.37763649578E+01 -0.51654537096E+02 -0.10820193752E+03  0.12003159508E+03  0.41800000000E+01 0. -1.
         -5    1    3    3    0  502 -0.34579943295E+02  0.87169864142E+01  0.22301782002E+02  0.42268193845E+02  0.41800000000E+01 0. -1.
        -11    1    1    2    0    0 -0.27308464410E+02  0.19426335741E+02 -0.43559238275E+02  0.54959457674E+02  0.00000000000E+00 0. -1.
         11    1    1    2    0    0  0.65664772664E+02  0.23511214941E+02 -0.35522538744E+02  0.78271900167E+02  0.00000000000E+00 0.  1.
</event>
<event>
 7    1  0.2810263E-009  0.1424941E+03  0.7561462E-02  0.1210012E+00
         -1   -1    0    0    0  501 -0.00000000000E+00  0.00000000000E+00  0.21141308765E+02  0.21141308765E+02  0.00000000000E+00 0.  1.
          1   -1    0    0  501    0  0.00000000000E+00 -0.00000000000E+00 -0.15430049767E+04  0.15430049767E+04  0.00000000000E+00 0. -1.
         25    2    1    2    0    0  0.12055630191E+03 -0.24215613140E+02 -0.10490738561E+04  0.10636370456E+04  0.12509033261E+03 0.  0.
          5    1    3    3  502    0  0.93504269597E+02  0.32027318862E+02 -0.82786711638E+03  0.83375669855E+03  0.41800000000E+01 0.  1.
         -5    1    3    3    0  502  0.27052032309E+02 -0.56242932002E+02 -0.22120673976E+03  0.22988034707E+03  0.41800000000E+01 0.  1.
        -11    1    1    2    0    0 -0.35716664602E+02  0.12635547876E+02 -0.26880707977E+02  0.46453306252E+02  0.00000000000E+00 0.  1.
         11    1    1    2    0    0 -0.84839637305E+02  0.11580065264E+02 -0.44590910380E+03  0.45405593358E+03  0.00000000000E+00 0. -1.
</event>
<event>
 7    1  0.2810263E-009  0.1072910E+03  0.7561462E-02  0.1265670E+00
          1   -1    0    0  501    0  0.00000000000E+00  0.00000000000E+00  0.93407979996E+03  0.93407979996E+03  0.00000000000E+00 0. -1.
         -1   -1    0    0    0  501 -0.00000000000E+00 -0.00000000000E+00 -0.14484280959E+02  0.14484280959E+02  0.00000000000E+00 0.  1.
         25    2    1    2    0    0 -0.31378306934E+02  0.32928151671E+01  0.60263120364E+03  0.61628530718E+03  0.12509105270E+03 0.  0.
          5    1    3    3  502    0 -0.36598640935E+02  0.53099972813E+02  0.19187148493E+03  0.20246285279E+03  0.41800000000E+01 0.  1.
         -5    1    3    3    0  502  0.52203340009E+01 -0.49807157646E+02  0.41075971872E+03  0.41382245439E+03  0.41800000000E+01 0.  1.
        -11    1    1    2    0    0  0.31764291680E+02  0.42970739269E+02  0.17244964859E+03  0.18053901506E+03  0.00000000000E+00 0. -1.
         11    1    1    2    0    0 -0.38598474626E+00 -0.46263554436E+02  0.14451466677E+03  0.15173975868E+03  0.00000000000E+00 0.  1.
</event>
<event>
 7    1  0.2810263E-009  0.6459318E+02  0.7561462E-02  0.1379508E+00
         -2   -1    0    0    0  501 -0.00000000000E+00  0.00000000000E+00  0.97299602965E+02  0.97299602965E+02  0.00000000000E+00 0. -1.
          2   -1    0    0  501    0  0.00000000000E+00 -0.00000000000E+00 -0.25465181911E+03  0.25465181911E+03  0.00000000000E+00 0.  1.
         25    2    1    2    0    0  0.16298664798E+02  0.14539473375E+02 -0.18929044960E+03  0.22793466796E+03  0.12508515414E+03 0.  0.
          5    1    3    3  502    0 -0.14708225127E+02 -0.71679996899E+01 -0.18910128074E+03  0.18985383558E+03  0.41800000000E+01 0. -1.
         -5    1    3    3    0  502  0.31006889925E+02  0.21707473065E+02 -0.18916885597E+00  0.38080832377E+02  0.41800000000E+01 0. -1.
        -11    1    1    2    0    0 -0.40508489643E+02  0.78277766471E+01 -0.31913107517E+02  0.52159929561E+02  0.00000000000E+00 0.  1.
         11    1    1    2    0    0  0.24209824845E+02 -0.22367250022E+02  0.63851340968E+02  0.71856824561E+02  0.00000000000E+00 0. -1.
</event>
<event>
 7    1  0.2810263E-009  0.3895434E+02  0.7561462E-02  0.1516050E+00
         -1   -1    0    0    0  501 -0.00000000000E+00  0.00000000000E+00  0.61786397076E+02  0.61786397076E+02  0.00000000000E+00 0.  1.
          1   -1    0    0  501    0  0.00000000000E+00 -0.00000000000E+00 -0.28722681329E+03  0.28722681329E+03  0.00000000000E+00 0. -1.
         25    2    1    2    0    0 -0.12931917678E+02 -0.32331702402E+01 -0.22338333207E+03  0.25637030547E+03  0.12509169675E+03 0.  0.
          5    1    3    3  502    0 -0.13920650722E+02 -0.77659452745E+01  0.12325513427E+02  0.20578753698E+02  0.41800000000E+01 0.  1.
         -5    1    3    3    0  502  0.98873304382E+00  0.45327750343E+01 -0.23570884550E+03  0.23579155178E+03  0.41800000000E+01 0.  1.
        -11    1    1    2    0    0  0.24470945923E+02 -0.18433507381E+02  0.36052340022E+02  0.47311654058E+02  0.00000000000E+00 0.  1.
         11    1    1    2    0    0 -0.11539028245E+02  0.21666677621E+02 -0.38109424161E+02  0.45331250831E+02  0.00000000000E+00 0. -1.
</event>
<event>
 7    1  0.2810263E-009  0.2257216E+03  0.7561462E-02  0.1129688E+00
         -2   -1    0    0    0  501 -0.00000000000E+00  0.00000000000E+00  0.81354629839E+02  0.81354629839E+02  0.00000000000E+00 0.  1.
          2   -1    0    0  501    0  0.00000000000E+00 -0.00000000000E+00 -0.73328285680E+03  0.73328285680E+03  0.00000000000E+00 0. -1.
         25    2    1    2    0    0 -0.20890338577E+03  0.16999300946E+02 -0.23300915068E+03  0.33744781348E+03  0.12509261249E+03 0.  0.
          5    1    3    3  502    0 -0.20768925844E+02 -0.39935829574E+02 -0.26894146215E+02  0.52602150765E+02  0.41800000000E+01 0. -1.
         -5    1    3    3    0  502 -0.18813445993E+03  0.56935130520E+02 -0.20611500447E+03  0.28484566271E+03  0.41800000000E+01 0. -1.
        -11    1    1    2    0    0  0.89479160243E+02 -0.53315058262E+01 -0.27805551243E+03  0.29214690323E+03  0.00000000000E+00 0. -1.
         11    1    1    2    0    0  0.11942422553E+03 -0.11667795120E+02 -0.14086356385E+03  0.18504276994E+03  0.00000000000E+00 0.  1.
</event>
<event>
 7    1  0.2810263E-009  0.9940411E+02  0.7561462E-02  0.1281554E+00
          2   -1    0    0  501    0  0.00000000000E+00  0.00000000000E+00  0.32138998676E+03  0.32138998676E+03  0.00000000000E+00 0. -1.
         -2   -1    0    0    0  501 -0.00000000000E+00 -0.00000000000E+00 -0.53727084721E+02  0.53727084721E+02  0.00000000000E+00 0.  1.
         25    2    1    2    0    0  0.68460798313E+02  0.11233928233E+02  0.18191864603E+03  0.23141854260E+03  0.12508823301E+03 0.  0.
          5    1    3    3  502    0 -0.41822702414E+01 -0.31687313643E+02  0.12612261797E+03  0.13017666609E+03  0.41800000000E+01 0. -1.
         -5    1    3    3    0  502  0.72643068555E+02  0.42921241876E+02  0.55796028057E+02  0.10124187651E+03  0.41800000000E+01 0. -1.
        -11    1    1    2    0    0 -0.36439437402E+02  0.16247640691E+02 -0.81828739344E+01  0.40728096592E+02  0.00000000000E+00 0.  1.
         11    1    1    2    0    0 -0.32021360911E+02 -0.27481568924E+02  0.93927129949E+02  0.10297043229E+03  0.00000000000E+00 0. -1.
</event>
<event>
 7    1  0.2810263E-009  0.1314245E+03  0.7561462E-02  0.1225357E+00
          2   -1    0    0  501    0  0.00000000000E+00  0.00000000000E+00  0.22479738675E+03  0.22479738675E+03  0.00000000000E+00 0. -1.
         -2   -1    0    0    0  501 -0.00000000000E+00 -0.00000000000E+00 -0.82015424331E+02  0.82015424331E+02  0.00000000000E+00 0.  1.
         25    2    1    2    0    0  0.59375998735E+02 -0.57843001061E+02  0.80631895404E+02  0.17035049464E+03  0.12508583641E+03 0.  0.
          5    1    3    3  502    0 -0.15440547046E+02  0.24985264165E+02  0.43485720509E+02  0.52641753454E+02  0.41800000000E+01 0. -1.
         -5    1    3    3    0  502  0.74816545781E+02 -0.82828265227E+02  0.37146174895E+02  0.11770874119E+03  0.41800000000E+01 0. -1.
        -11    1    1    2    0    0 -0.63446350162E+02 -0.55642747525E-01  0.32380464702E+02  0.71231572630E+02  0.00000000000E+00 0.  1.
         11    1    1    2    0    0  0.40703514277E+01  0.57898643809E+02  0.29769602312E+02  0.65230743806E+02  0.00000000000E+00 0. -1.
</event>
<event>
 7    1  0.2810263E-009  0.1851592E+03  0.7561462E-02  0.1162901E+00
         -1   -1    0    0    0  501 -0.00000000000E+00  0.00000000000E+00  0.13579838906E+03  0.13579838906E+03  0.00000000000E+00 0.  1.
          1   -1    0    0  501    0  0.00000000000E+00 -0.00000000000E+00 -0.29589753009E+03  0.29589753009E+03  0.00000000000E+00 0. -1.
         25    2    1    2    0    0 -0.14390604012E+03 -0.83957979539E+02 -0.10379311762E+03  0.23276280587E+03  0.12509045455E+03 0.  0.
          5    1    3    3  502    0  0.95511313666E+01  0.11403837160E+02  0.10728129439E+02  0.18810549530E+02  0.41800000000E+01 0. -1.
         -5    1    3    3    0  502 -0.15345717148E+03 -0.95361816699E+02 -0.11452124706E+03  0.21395225634E+03  0.41800000000E+01 0. -1.
        -11    1    1    2    0    0  0.82141684369E+02  0.18602337027E+02  0.13237824701E+02  0.85255752045E+02  0.00000000000E+00 0. -1.
         11    1    1    2    0    0  0.61764355748E+02  0.65355642511E+02 -0.69543848104E+02  0.11367736124E+03  0.00000000000E+00 0.  1.
</event>
<event>
 7    1  0.2810263E-009  0.8277746E+02  0.7561462E-02  0.1321349E+00
          1   -1    0    0  501    0  0.00000000000E+00  0.00000000000E+00  0.27678208343E+02  0.27678208343E+02  0.00000000000E+00 0. -1.
         -1   -1    0    0    0  501 -0.00000000000E+00 -0.00000000000E+00 -0.58690486342E+03  0.58690486342E+03  0.00000000000E+00 0.  1.
         25    2    1    2    0    0  0.54376223442E+00 -0.59519400168E+02 -0.23259767942E+03  0.27072428959E+03  0.12508839206E+03 0.  0.
          5    1    3    3  502    0 -0.20156334071E+02 -0.11422620756E+02 -0.21355761860E+03  0.21485130423E+03  0.41800000000E+01 0. -1.
         -5    1    3    3    0  502  0.20700096305E+02 -0.48096779411E+02 -0.19040060822E+02  0.55872985359E+02  0.41800000000E+01 0. -1.
        -11    1    1    2    0    0  0.73176901931E+01  0.73275594671E+02 -0.31672670246E+03  0.32517482285E+03  0.00000000000E+00 0.  1.
         11    1    1    2    0    0 -0.78614524275E+01 -0.13756194503E+02 -0.99022731922E+01  0.18683959319E+02  0.00000000000E+00 0. -1.
</event>
<event>
 7    1  0.2810263E-009  0.1091403E+03  0.7561462E-02  0.1262170E+00
          3   -1    0    0  501    0  0.00000000000E+00  0.00000000000E+00  0.12963440091E+03  0.12963440091E+03  0.00000000000E+00 0. -1.
         -3   -1    0    0    0  501 -0.00000000000E+00 -0.00000000000E+00 -0.12006449073E+03  0.12006449073E+03  0.00000000000E+00 0.  1.
         25    2    1    2    0    0  0.51150789137E+02  0.42619143863E+02 -0.43886066539E+01  0.14177316625E+03  0.12509027199E+03 0.  0.
          5    1    3    3  502    0 -0.25178445527E+02  0.18227162095E+02  0.39402332556E+02  0.50360696660E+02  0.41800000000E+01 0.  1.
         -5    1    3    3    0  502  0.76329234664E+02  0.24391981767E+02 -0.43790939210E+02  0.91412469587E+02  0.41800000000E+01 0.  1.
        -11    1    1    2    0    0 -0.13342684539E+02 -0.62535734863E+02  0.12588122065E+02  0.65170592929E+02  0.00000000000E+00 0. -1.
         11    1    1    2    0    0 -0.37808104598E+02  0.19916591000E+02  0.13703947760E+01  0.42755132466E+02  0.00000000000E+00 0.  1.
</event>
<event>
 7    1  0.2810263E-009  0.9024256E+02  0.7561462E-02  0.1302265E+00
         -2   -1    0    0    0  501 -0.00000000000E+00  0.00000000000E+00  0.13332943253E+03  0.13332943253E+03  0.00000000000E+00 0.  1.
          2   -1    0    0  501    0  0.00000000000E+00 -0.00000000000E+00 -0.12385640422E+03  0.12385640422E+03  0.00000000000E+00 0. -1.
         25    2    1    2    0    0 -0.63916642455E+02 -0.15469965517E+02 -0.13647141525E+02  0.14198033172E+03  0.12509002001E+03 0.  0.
          5    1    3    3  502    0  0.18796077159E+02  0.99656501484E+01  0.36075546613E+02  0.42089478054E+02  0.41800000000E+01 0. -1.
         -5    1    3    3    0  502 -0.82712719614E+02 -0.25435615666E+02 -0.49722688138E+02  0.99890853665E+02  0.41800000000E+01 0. -1.
        -11    1    1    2    0    0  0.28069041058E+02  0.22083688015E+02 -0.32774937867E+02  0.48474291067E+02  0.00000000000E+00 0. -1.
         11    1    1    2    0    0  0.35847601397E+02 -0.66137224978E+01  0.55895107706E+02  0.66731213960E+02  0.00000000000E+00 0.  1.
</event>
<event>
 7    1  0.2810263E-009  0.1164819E+03  0.7561462E-02  0.1249016E+00
          4   -1    0    0  501    0  0.00000000000E+00  0.00000000000E+00  0.10399511247E+03  0.10399511247E+03  0.00000000000E+00 0. -1.
         -4   -1    0    0    0  501 -0.00000000000E+00 -0.00000000000E+00 -0.18841051294E+03  0.18841051294E+03  0.00000000000E+00 0.  1.
         25    2    1    2    0    0 -0.76542618135E+02 -0.36184801914E+02  0.10486351673E+02  0.15142372562E+03  0.12510423186E+03 0.  0.
          5    1    3    3  502    0 -0.34850093416E+02  0.42702628024E+02 -0.17226037347E+02  0.57898637410E+02  0.41800000000E+01 0. -1.
         -5    1    3    3    0  502 -0.41692524719E+02 -0.78887429938E+02  0.27712389020E+02  0.93525088211E+02  0.41800000000E+01 0. -1.
        -11    1    1    2    0    0  0.64428039652E+02  0.39787255673E+02 -0.10157110714E+03  0.12669130915E+03  0.00000000000E+00 0.  1.
         11    1    1    2    0    0  0.12114578483E+02 -0.36024537593E+01  0.66693549961E+01  0.14290590644E+02  0.00000000000E+00 0. -1.
</event>
<event>
 7    1  0.2810263E-009  0.5924023E+02  0.7561462E-02  0.1401048E+00
          2   -1    0    0  501    0  0.00000000000E+00  0.00000000000E+00  0.25880902537E+03  0.25880902537E+03  0.00000000000E+00 0. -1.
         -2   -1    0    0    0  501 -0.00000000000E+00 -0.00000000000E+00 -0.48748375256E+02  0.48748375256E+02  0.00000000000E+00 0.  1.
         25    2    1    2    0    0 -0.26002409534E+02  0.15419718029E+02  0.12659249840E+03  0.18050680625E+03  0.12507259271E+03 0.  0.
          5    1    3    3  502    0 -0.24984955725E+02 -0.10770201430E+02 -0.18396804061E+02  0.33108307886E+02  0.41800000000E+01 0.  1.
         -5    1    3    3    0  502 -0.10174538095E+01  0.26189919459E+02  0.14498930246E+03  0.14739849837E+03  0.41800000000E+01 0.  1.
        -11    1    1    2    0    0 -0.14701342811E+02 -0.18456492340E+02 -0.95622091220E+01  0.25459918171E+02  0.00000000000E+00 0.  1.
         11    1    1    2    0    0  0.40703752345E+02  0.30367743110E+01  0.93030360841E+02  0.10159067620E+03  0.00000000000E+00 0. -1.
</event>
<event>
 7    1  0.2810263E-009  0.1288740E+03  0.7561462E-02  0.1229136E+00
         -1   -1    0    0    0  501 -0.00000000000E+00  0.00000000000E+00  0.67364390044E+02  0.67364390044E+02  0.00000000000E+00 0.  1.
          1   -1    0    0  501    0  0.00000000000E+00 -0.00000000000E+00 -0.26342639420E+03  0.26342639420E+03  0.00000000000E+00 0. -1.
         25    2    1    2    0    0  0.68459371218E+01  0.73850439023E+02 -0.13108714465E+03  0.19578643171E+03  0.12509089955E+03 0.  0.
          5    1    3    3  502    0  0.58784528149E+02  0.68835965781E+02 -0.99800223115E+02  0.13480195796E+03  0.41800000000E+01 0.  1.
         -5    1    3    3    0  502 -0.51938591027E+02  0.50144732423E+01 -0.31286921530E+02  0.60984473750E+02  0.41800000000E+01 0.  1.
        -11    1    1    2    0    0 -0.53437267635E+01  0.20111666262E+02 -0.95862964458E-01  0.20809702671E+02  0.00000000000E+00 0.  1.
         11    1    1    2    0    0 -0.15022103583E+01 -0.93962105285E+02 -0.64878996542E+02  0.11419464987E+03  0.00000000000E+00 0. -1.
</event>
<event>
 7    1  0.2810263E-009  0.1063693E+03  0.7561462E-02  0.1267445E+00
         -1   -1    0    0    0  501 -0.00000000000E+00  0.00000000000E+00  0.38324411578E+03  0.38324411578E+03  0.00000000000E+00 0.  1.
          1   -1    0    0  501    0  0.00000000000E+00 -0.00000000000E+00 -0.47471537153E+02  0.47471537153E+02  0.00000000000E+00 0. -1.
         25    2    1    2    0    0 -0.43549499055E+02 -0.37732819812E+02  0.27104024459E+03  0.30401918391E+03  0.12507807737E+03 0.  0.
          5    1    3    3  502    0 -0.41222031152E+01  0.44760995813E+02  0.72651880000E+02  0.85535415895E+02  0.41800000000E+01 0.  1.
         -5    1    3    3    0  502 -0.39427295939E+02 -0.82493815625E+02  0.19838836459E+03  0.21848376802E+03  0.41800000000E+01 0.  1.
        -11    1    1    2    0    0 -0.10797852627E+02  0.11310581650E+02  0.64394206020E+02  0.66265652094E+02  0.00000000000E+00 0.  1.
         11    1    1    2    0    0  0.54347351681E+02  0.26422238162E+02  0.33812801878E+00  0.60430816930E+02  0.00000000000E+00 0. -1.
</event>
<event>
 7    1  0.2810263E-009  0.1052642E+03  0.7561462E-02  0.1269600E+00
         -1   -1    0    0    0  501 -0.00000000000E+00  0.00000000000E+00  0.36868453039E+02  0.36868453039E+02  0.00000000000E+00 0.  1.
          1   -1    0    0  501    0  0.00000000000E+00 -0.00000000000E+00 -0.40498316567E+03  0.40498316567E+03  0.00000000000E+00 0. -1.
         25    2    1    2    0    0 -0.35553461380E+02  0.46239915968E+02 -0.20331449567E+03  0.24573867071E+03  0.12509409134E+03 0.  0.
          5    1    3    3  502    0 -0.61182852121E+02  0.48518701856E+02 -0.56114231752E+02  0.96248040128E+02  0.41800000000E+01 0.  1.
         -5    1    3    3    0  502  0.25629390741E+02 -0.22787858872E+01 -0.14720026391E+03  0.14949063058E+03  0.41800000000E+01 0.  1.
        -11    1    1    2    0    0  0.56271872718E+02 -0.59317476505E+02 -0.12438676898E+03  0.14885279633E+03  0.00000000000E+00 0.  1.
         11    1    1    2    0    0 -0.20718411338E+02  0.13077560536E+02 -0.40413447993E+02  0.47260151678E+02  0.00000000000E+00 0. -1.
</event>
<event>
 7    1  0.2810263E-009  0.2064579E+03  0.7561462E-02  0.1144402E+00
          1   -1    0    0  501    0  0.00000000000E+00  0.00000000000E+00  0.32115247672E+03  0.32115247672E+03  0.00000000000E+00 0. -1.
         -1   -1    0    0    0  501 -0.00000000000E+00 -0.00000000000E+00 -0.14596795018E+03  0.14596795018E+03  0.00000000000E+00 0.  1.
         25    2    1    2    0    0  0.13016812746E+03  0.12916392659E+03  0.51563367205E+02  0.22789076598E+03  0.12509340128E+03 0.  0.
          5    1    3    3  502    0  0.95857590317E+02  0.15257260433E+03  0.41614095860E+02  0.18497643792E+03  0.41800000000E+01 0. -1.
         -5    1    3    3    0  502  0.34310537140E+02 -0.23408677740E+02  0.99492713450E+01  0.42914328058E+02  0.41800000000E+01 0. -1.
        -11    1    1    2    0    0 -0.12708788255E+03 -0.10027682104E+03  0.13212601346E+03  0.20895945578E+03  0.00000000000E+00 0. -1.
         11    1    1    2    0    0 -0.30802449067E+01 -0.28887105549E+02 -0.85048541254E+01  0.30270205143E+02  0.00000000000E+00 0.  1.
</event>
<event>
 7    1  0.2810263E-009  0.9400731E+02  0.7561462E-02  0.1293428E+00
         -1   -1    0    0    0  501 -0.00000000000E+00  0.00000000000E+00  0.33920610030E+03  0.33920610030E+03  0.00000000000E+00 0.  1.
          1   -1    0    0  501    0  0.00000000000E+00 -0.00000000000E+00 -0.49234812281E+02  0.49234812281E+02  0.00000000000E+00 0. -1.
         25    2    1    2    0    0 -0.42319157062E+02 -0.55845975641E+02  0.15719059751E+03  0.21275889757E+03  0.12509108882E+03 0.  0.
          5    1    3    3  502    0 -0.79772560716E+01 -0.37897536696E+02 -0.10706538226E+02  0.40397552683E+02  0.41800000000E+01 0.  1.
         -5    1    3    3    0  502 -0.34341900991E+02 -0.17948438946E+02  0.16789713574E+03  0.17236134489E+03  0.41800000000E+01 0.  1.
        -11    1    1    2    0    0 -0.11441434554E+02  0.55148020050E+02  0.93284785656E+02  0.10896908633E+03  0.00000000000E+00 0.  1.
         11    1    1    2    0    0  0.53760591617E+02  0.69795559155E+00  0.39495904857E+02  0.66712928683E+02  0.00000000000E+00 0. -1.
</event>
<event>
 7    1  0.2810263E-009  0.1109317E+03  0.7561462E-02  0.1258854E+00
         -1   -1    0    0    0  501 -0.00000000000E+00  0.00000000000E+00  0.10186633887E+03  0.10186633887E+03  0.00000000000E+00 0.  1.
          1   -1    0    0  501    0  0.00000000000E+00 -0.00000000000E+00 -0.15239454095E+03  0.15239454095E+03  0.00000000000E+00 0. -1.
         25    2    1    2    0    0  0.28423762134E+02  0.47708160733E+02 -0.37762103431E+01  0.13691486994E+03  0.12508973976E+03 0.  0.
          5    1    3    3  502    0  0.54927965832E+02  0.62791986659E+02  0.32240610733E+02  0.89536832641E+02  0.41800000000E+01 0.  1.
         -5    1    3    3    0  502 -0.26504203697E+02 -0.15083825926E+02 -0.36016821076E+02  0.47378037302E+02  0.41800000000E+01 0.  1.
        -11    1    1    2    0    0 -0.17335785579E+02  0.26966641527E+02 -0.16003655051E+02  0.35830799487E+02  0.00000000000E+00 0.  1.
         11    1    1    2    0    0 -0.11087976555E+02 -0.74674802260E+02 -0.30748336688E+02  0.81515210396E+02  0.00000000000E+00 0. -1.
</event>
<event>
 7    1  0.2878957E-009  0.1230193E+03  0.7561462E-02  0.1238198E+00
          3   -1    0    0  501    0  0.00000000000E+00  0.00000000000E+00  0.53173948415E+03  0.53173948415E+03  0.00000000000E+00 0. -1.
         -3   -1    0    0    0  501 -0.00000000000E+00 -0.00000000000E+00 -0.71840358575E+02  0.71840358575E+02  0.00000000000E+00 0.  1.
         25    2    1    2    0    0  0.63284399033E+02 -0.35192224219E+02  0.46494265718E+03  0.48688872909E+03  0.12508218194E+03 0.  0.
          5    1    3    3  502    0  0.95556601572E+02 -0.43178629030E+02  0.40327538885E+03  0.41670609518E+03  0.41800000000E+01 0.  1.
         -5    1    3    3    0  502 -0.32272202539E+02  0.79864048105E+01  0.61667268332E+02  0.70182633907E+02  0.41800000000E+01 0.  1.
        -11    1    1    2    0    0 -0.30815642463E+02  0.59515121537E+02 -0.24935155925E+02  0.71508149976E+02  0.00000000000E+00 0.  1.
         11    1    1    2    0    0 -0.32468756570E+02 -0.24322897318E+02  0.19891624317E+02  0.45182963660E+02  0.00000000000E+00 0. -1.
</event>
<event>
 7    1  0.2810263E-009  0.1118646E+03  0.7561462E-02  0.1257155E+00
          2   -1    0    0  501    0  0.00000000000E+00  0.00000000000E+00  0.15137379563E+04  0.15137379563E+04  0.00000000000E+00 0.  1.
         -2   -1    0    0    0  501 -0.00000000000E+00 -0.00000000000E+00 -0.85646533890E+01  0.85646533890E+01  0.00000000000E+00 0. -1.
         25    2    1    2    0    0 -0.17190018463E+02  0.20863674600E+02  0.99359255151E+03  0.10018006524E+04  0.12509036395E+03 0.  0.
          5    1    3    3  502    0 -0.43516620884E+02 -0.41298028860E+02  0.49589442020E+03  0.49952774884E+03  0.41800000000E+01 0.  1.
         -5    1    3    3    0  502  0.26326602421E+02  0.62161703461E+02  0.49769813131E+03  0.50227290359E+03  0.41800000000E+01 0.  1.
        -11    1    1    2    0    0 -0.34094372271E+02  0.10701228913E+02  0.18930431620E+03  0.19264751920E+03  0.00000000000E+00 0. -1.
         11    1    1    2    0    0  0.51284390735E+02 -0.31564903513E+02  0.32227643519E+03  0.32785443804E+03  0.00000000000E+00 0.  1.
</event>
<event>
 7    1  0.2810263E-009  0.1094465E+03  0.7561462E-02  0.1261598E+00
         -2   -1    0    0    0  501 -0.00000000000E+00  0.00000000000E+00  0.73300600731E+02  0.73300600731E+02  0.00000000000E+00 0.  1.
          2   -1    0    0  501    0  0.00000000000E+00 -0.00000000000E+00 -0.22061591974E+03  0.22061591974E+03  0.00000000000E+00 0. -1.
         25    2    1    2    0    0  0.14099896169E+02 -0.56345691804E+02 -0.44937099814E+02  0.14505200206E+03  0.12508835399E+03 0.  0.
          5    1    3    3  502    0 -0.31278917766E+02  0.26845057701E+02 -0.24118511186E+02  0.47939574481E+02  0.41800000000E+01 0.  1.
         -5    1    3    3    0  502  0.45378813935E+02 -0.83190749505E+02 -0.20818588628E+02  0.97112427576E+02  0.41800000000E+01 0.  1.
        -11    1    1    2    0    0  0.76033940642E+01 -0.10137274155E+02 -0.71156323392E+02  0.72275848576E+02  0.00000000000E+00 0. -1.
         11    1    1    2    0    0 -0.21703290233E+02  0.66482965960E+02 -0.31221895799E+02  0.76588669835E+02  0.00000000000E+00 0.  1.
</event>
<event>
 7    1  0.2810263E-009  0.1291225E+03  0.7561462E-02  0.1228764E+00
          2   -1    0    0  501    0  0.00000000000E+00  0.00000000000E+00  0.17069873968E+03  0.17069873968E+03  0.00000000000E+00 0. -1.
         -2   -1    0    0    0  501 -0.00000000000E+00 -0.00000000000E+00 -0.13060668817E+03  0.13060668817E+03  0.00000000000E+00 0.  1.
         25    2    1    2    0    0  0.68853700242E+02  0.48720536792E+02  0.81265356568E+02  0.17136653156E+03  0.12509159532E+03 0.  0.
          5    1    3    3  502    0  0.12002118691E+02  0.72649722151E+02  0.60457699749E+01  0.74000383217E+02  0.41800000000E+01 0.  1.
         -5    1    3    3    0  502  0.56851581551E+02 -0.23929185359E+02  0.75219586593E+02  0.97366148347E+02  0.41800000000E+01 0.  1.
        -11    1    1    2    0    0 -0.70610292484E+01  0.25287552889E+02 -0.14075470616E+02  0.29789886509E+02  0.00000000000E+00 0.  1.
         11    1    1    2    0    0 -0.61792670994E+02 -0.74008089681E+02 -0.27097834444E+02  0.10014900977E+03  0.00000000000E+00 0. -1.
</event>
<event>
 7    1  0.2810263E-009  0.1074984E+03  0.7561462E-02  0.1265274E+00
         -1   -1    0    0    0  501 -0.00000000000E+00  0.00000000000E+00  0.13409524129E+03  0.13409524129E+03  0.00000000000E+00 0.  1.
          1   -1    0    0  501    0  0.00000000000E+00 -0.00000000000E+00 -0.12359956532E+03  0.12359956532E+03  0.00000000000E+00 0. -1.
         25    2    1    2    0    0 -0.64816393203E+02  0.23479157035E+01 -0.23087752780E+02  0.14278307537E+03  0.12508910723E+03 0.  0.
          5    1    3    3  502    0 -0.22347972076E+02  0.50344626947E+02  0.26858526292E+02  0.61423661182E+02  0.41800000000E+01 0.  1.
         -5    1    3    3    0  502 -0.42468421127E+02 -0.47996711244E+02 -0.49946279072E+02  0.81359414184E+02  0.41800000000E+01 0.  1.
        -11    1    1    2    0    0  0.70223822192E+02  0.19616600155E+02  0.48722213371E+02  0.87692931760E+02  0.00000000000E+00 0.  1.
         11    1    1    2    0    0 -0.54074289888E+01 -0.21964515858E+02 -0.15138784624E+02  0.27218799479E+02  0.00000000000E+00 0. -1.
</event>
<event>
 7    1  0.2810263E-009  0.8977181E+02  0.7561462E-02  0.1303405E+00
          1   -1    0    0  501    0  0.00000000000E+00  0.00000000000E+00  0.51789016901E+02  0.51789016901E+02  0.00000000000E+00 0. -1.
         -1   -1    0    0    0  501 -0.00000000000E+00 -0.00000000000E+00 -0.29845879401E+03  0.29845879401E+03  0.00000000000E+00 0.  1.
         25    2    1    2    0    0  0.21663975987E+02 -0.34247193855E+02 -0.78034643049E+02  0.15290212204E+03  0.12508978882E+03 0.  0.
          5    1    3    3  502    0  0.44757427441E+02  0.14238050817E+02  0.11387770468E+02  0.48508794238E+02  0.41800000000E+01 0. -1.
         -5    1    3    3    0  502 -0.23093451454E+02 -0.48485244672E+02 -0.89422413517E+02  0.10439332780E+03  0.41800000000E+01 0. -1.
        -11    1    1    2    0    0 -0.35235951626E+02 -0.62741150035E+01 -0.16661926721E+02  0.39478558840E+02  0.00000000000E+00 0. -1.
         11    1    1    2    0    0  0.13571975639E+02  0.40521308859E+02 -0.15197320734E+03  0.15786713003E+03  0.00000000000E+00 0.  1.
</event>
<event>
 7    1  0.2810263E-009  0.8405234E+02  0.7561462E-02  0.1317930E+00
          1   -1    0    0  501    0  0.00000000000E+00  0.00000000000E+00  0.28937771098E+03  0.28937771098E+03  0.00000000000E+00 0. -1.
         -1   -1    0    0    0  501 -0.00000000000E+00 -0.00000000000E+00 -0.73195663576E+02  0.73195663576E+02  0.00000000000E+00 0.  1.
         25    2    1    2    0    0 -0.43079794804E+02 -0.72985624385E+01  0.22378076429E+03  0.26006588440E+03  0.12508915234E+03 0.  0.
          5    1    3    3  502    0 -0.40769441809E+02  0.27765782748E+02  0.21879864580E+03  0.22432878968E+03  0.41800000000E+01 0. -1.
         -5    1    3    3    0  502 -0.23103529948E+01 -0.35064345187E+02  0.49821184851E+01  0.35737094719E+02  0.41800000000E+01 0. -1.
        -11    1    1    2    0    0  0.13887843832E+02 -0.31636319276E+02  0.26112691539E+02  0.43308215883E+02  0.00000000000E+00 0. -1.
         11    1    1    2    0    0  0.29191950972E+02  0.38934881714E+02 -0.33711408424E+02  0.59199274266E+02  0.00000000000E+00 0.  1.
</event>
<event>
 7    1  0.2810263E-009  0.1605921E+03  0.7561462E-02  0.1188030E+00
          1   -1    0    0  501    0  0.00000000000E+00  0.00000000000E+00  0.94975874770E+02  0.94975874770E+02  0.00000000000E+00 0. -1.
         -1   -1    0    0    0  501 -0.00000000000E+00 -0.00000000000E+00 -0.28057976714E+03  0.28057976714E+03  0.00000000000E+00 0.  1.
         25    2    1    2    0    0 -0.11463291694E+03  0.39502865940E+02 -0.85457710165E+02  0.19404145690E+03  0.12509150533E+03 0.  0.
          5    1    3    3  502    0 -0.43004992878E+02 -0.45478351214E+02 -0.35933351143E+02  0.72293761597E+02  0.41800000000E+01 0.  1.
         -5    1    3    3    0  502 -0.71627924059E+02  0.84981217153E+02 -0.49524359022E+02  0.12174769530E+03  0.41800000000E+01 0.  1.
        -11    1    1    2    0    0 -0.38638051414E+01 -0.27904153383E+02 -0.39488698736E+01  0.28445814094E+02  0.00000000000E+00 0.  1.
         11    1    1    2    0    0  0.11849672208E+03 -0.11598712556E+02 -0.96197312331E+02  0.15306837092E+03  0.00000000000E+00 0. -1.
</event>
<event>
 7    1  0.2810263E-009  0.1209505E+03  0.7561462E-02  0.1241537E+00
          1   -1    0    0  501    0  0.00000000000E+00  0.00000000000E+00  0.35552778917E+02  0.35552778917E+02  0.00000000000E+00 0. -1.
         -1   -1    0    0    0  501 -0.00000000000E+00 -0.00000000000E+00 -0.43998057033E+03  0.43998057033E+03  0.00000000000E+00 0.  1.
         25    2    1    2    0    0 -0.80866236083E+01  0.51525287677E+02 -0.16678258824E+03  0.21490095290E+03  0.12508292875E+03 0.  0.
          5    1    3    3  502    0 -0.62321315042E+02  0.51235815358E+02 -0.10702825097E+03  0.13409539138E+03  0.41800000000E+01 0. -1.
         -5    1    3    3    0  502  0.54234691434E+02  0.28947231839E+00 -0.59754337268E+02  0.80805561513E+02  0.41800000000E+01 0. -1.
        -11    1    1    2    0    0  0.25512376474E+02  0.20428815958E+02 -0.82122098588E+02  0.88386972746E+02  0.00000000000E+00 0.  1.
         11    1    1    2    0    0 -0.17425752865E+02 -0.71954103635E+02 -0.15552310458E+03  0.17224542360E+03  0.00000000000E+00 0. -1.
</event>
<event>
 7    1  0.2810263E-009  0.3048278E+03  0.7561462E-02  0.1082852E+00
          2   -1    0    0  501    0  0.00000000000E+00  0.00000000000E+00  0.10596263871E+04  0.10596263871E+04  0.00000000000E+00 0.  1.
         -2   -1    0    0    0  501 -0.00000000000E+00 -0.00000000000E+00 -0.99658996379E+02  0.99658996379E+02  0.00000000000E+00 0. -1.
         25    2    1    2    0    0 -0.27155159864E+03  0.12254979292E+03  0.36252099475E+03  0.48562019036E+03  0.12508707038E+03 0.  0.
          5    1    3    3  502    0 -0.39981295028E+02  0.12494616987E+02  0.64433341853E+00  0.42101151663E+02  0.41800000000E+01 0.  1.
         -5    1    3    3    0  502 -0.23157030361E+03  0.11005517594E+03  0.36187666134E+03  0.44351903870E+03  0.41800000000E+01 0.  1.
        -11    1    1    2    0    0  0.11076255363E+03 -0.30579068417E+01  0.22204168504E+03  0.24815358949E+03  0.00000000000E+00 0.  1.
         11    1    1    2    0    0  0.16078904501E+03 -0.11949188608E+03  0.37540471090E+03  0.42551160360E+03  0.00000000000E+00 0. -1.
</event>
<event>
 7    1  0.2810263E-009  0.2333560E+03  0.7561462E-02  0.1124300E+00
         -1   -1    0    0    0  501 -0.00000000000E+00  0.00000000000E+00  0.11858812453E+04  0.11858812453E+04  0.00000000000E+00 0.  1.
          1   -1    0    0  501    0  0.00000000000E+00 -0.00000000000E+00 -0.53605575894E+02  0.53605575894E+02  0.00000000000E+00 0. -1.
         25    2    1    2    0    0  0.18138832436E+03  0.10160846871E+03  0.81068735770E+03  0.84622010635E+03  0.12509385010E+03 0.  0.
          5    1    3    3  502    0  0.15325330292E+03  0.12938579550E+03  0.62828760118E+03  0.65953774807E+03  0.41800000000E+01 0. -1.
         -5    1    3    3    0  502  0.28135021433E+02 -0.27777326789E+02  0.18239975652E+03  0.18668235829E+03  0.41800000000E+01 0. -1.
        -11    1    1    2    0    0 -0.45228059271E+02 -0.75039624900E+02  0.12689257992E+03  0.15420197628E+03  0.00000000000E+00 0.  1.
         11    1    1    2    0    0 -0.13616026509E+03 -0.26568843808E+02  0.19469573182E+03  0.23906473859E+03  0.00000000000E+00 0. -1.
</event>
<event>
 7    1  0.2810263E-009  0.1030607E+03  0.7561462E-02  0.1273988E+00
         -2   -1    0    0    0  501 -0.00000000000E+00  0.00000000000E+00  0.54010502936E+02  0.54010502936E+02  0.00000000000E+00 0. -1.
          2   -1    0    0  501    0  0.00000000000E+00 -0.00000000000E+00 -0.38619052699E+03  0.38619052699E+03  0.00000000000E+00 0.  1.
         25    2    1    2    0    0 -0.31145571823E+02  0.44852882171E+02 -0.28643155131E+03  0.31728903832E+03  0.12508985797E+03 0.  0.
          5    1    3    3  502    0 -0.71567605559E+02 -0.43824246277E+01 -0.13414561084E+03  0.15216321868E+03  0.41800000000E+01 0.  1.
         -5    1    3    3    0  502  0.40422033736E+02  0.49235306799E+02 -0.15228594046E+03  0.16512581963E+03  0.41800000000E+01 0.  1.
        -11    1    1    2    0    0 -0.11291149662E+02 -0.54035992655E+01  0.27088160786E+02  0.29840532846E+02  0.00000000000E+00 0. -1.
         11    1    1    2    0    0  0.42436721485E+02 -0.39449282905E+02 -0.72836633539E+02  0.93071458770E+02  0.00000000000E+00 0.  1.
</event>
<event>
 7    1  0.2810263E-009  0.9996876E+02  0.7561462E-02  0.1280362E+00
         -3   -1    0    0    0  501 -0.00000000000E+00  0.00000000000E+00  0.16365855506E+03  0.16365855506E+03  0.00000000000E+00 0.  1.
          3   -1    0    0  501    0  0.00000000000E+00 -0.00000000000E+00 -0.10628000654E+03  0.10628000654E+03  0.00000000000E+00 0. -1.
         25    2    1    2    0    0  0.69972497310E+02 -0.10913560836E+02  0.56373810569E+02  0.15440274020E+03  0.12508774309E+03 0.  0.
          5    1    3    3  502    0 -0.44851078209E+01 -0.26782287583E+02 -0.28993679865E+02  0.39943873027E+02  0.41800000000E+01 0. -1.
         -5    1    3    3    0  502  0.74457605131E+02  0.15868726747E+02  0.85367490434E+02  0.11445886717E+03  0.41800000000E+01 0. -1.
        -11    1    1    2    0    0 -0.12860032103E+02  0.32663701077E+02  0.31563585939E+02  0.47207602683E+02  0.00000000000E+00 0.  1.
         11    1    1    2    0    0 -0.57112465207E+02 -0.21750140241E+02 -0.30558847986E+02  0.68328218715E+02  0.00000000000E+00 0. -1.
</event>
<event>
 7    1  0.2810263E-009  0.3094001E+03  0.7561462E-02  0.1080634E+00
          2   -1    0    0  501    0  0.00000000000E+00  0.00000000000E+00  0.19664651514E+04  0.19664651514E+04  0.00000000000E+00 0.  1.
         -2   -1    0    0    0  501 -0.00000000000E+00 -0.00000000000E+00 -0.53795299331E+02  0.53795299331E+02  0.00000000000E+00 0. -1.
         25    2    1    2    0    0  0.15064746583E+03 -0.26641844659E+03  0.96006893006E+03  0.10154080846E+04  0.12509108722E+03 0.  0.
          5    1    3    3  502    0  0.24944823856E+02 -0.41227706928E+02  0.50300766705E+02  0.69782573662E+02  0.41800000000E+01 0. -1.
         -5    1    3    3    0  502  0.12570264197E+03 -0.22519073966E+03  0.90976816335E+03  0.94562551091E+03  0.41800000000E+01 0. -1.
        -11    1    1    2    0    0 -0.44935717812E+02  0.14352581477E+03  0.56601842827E+03  0.58565838113E+03  0.00000000000E+00 0.  1.
         11    1    1    2    0    0 -0.10571174802E+03  0.12289263182E+03  0.38658249376E+03  0.41919398506E+03  0.00000000000E+00 0. -1.
</event>
<event>
 7    1  0.2810263E-009  0.9460240E+02  0.7561462E-02  0.1292074E+00
          1   -1    0    0  501    0  0.00000000000E+00  0.00000000000E+00  0.14175217302E+03  0.14175217302E+03  0.00000000000E+00 0. -1.
         -1   -1    0    0    0  501 -0.00000000000E+00 -0.00000000000E+00 -0.17002727267E+03  0.17002727267E+03  0.00000000000E+00 0.  1.
         25    2    1    2    0    0  0.29385268235E+02  0.65009285734E+02  0.68942329805E+02  0.15965499228E+03  0.12508785112E+03 0.  0.
          5    1    3    3  502    0 -0.23340575374E+02  0.32889949700E+01 -0.25550189578E+02  0.35012633922E+02  0.41800000000E+01 0.  1.
         -5    1    3    3    0  502  0.52725843609E+02  0.61720290764E+02  0.94492519384E+02  0.12464235835E+03  0.41800000000E+01 0.  1.
        -11    1    1    2    0    0 -0.61415341626E+01 -0.59862106513E+02 -0.10979128860E+03  0.12520110739E+03  0.00000000000E+00 0.  1.
         11    1    1    2    0    0 -0.23243734072E+02 -0.51471792213E+01  0.12573859151E+02  0.26923346031E+02  0.00000000000E+00 0. -1.
</event>
<event>
 7    1  0.2810263E-009  0.8460602E+02  0.7561462E-02  0.1316466E+00
         -1   -1    0    0    0  501 -0.00000000000E+00  0.00000000000E+00  0.23519492800E+03  0.23519492800E+03  0.00000000000E+00 0.  1.
          1   -1    0    0  501    0  0.00000000000E+00 -0.00000000000E+00 -0.75942578636E+02  0.75942578636E+02  0.00000000000E+00 0. -1.
         25    2    1    2    0    0 -0.17477206916E+02 -0.75550791504E+02  0.75609558330E+02  0.16546310354E+03  0.12509140044E+03 0.  0.
          5    1    3    3  502    0  0.46728835153E+01 -0.45031991724E+02 -0.29174499875E+02  0.54021661969E+02  0.41800000000E+01 0. -1.
         -5    1    3    3    0  502 -0.22150090431E+02 -0.30518799780E+02  0.10478405820E+03  0.11144144157E+03  0.41800000000E+01 0. -1.
        -11    1    1    2    0    0 -0.91563688415E+01  0.41904663852E+02  0.92407047362E+02  0.10187689799E+03  0.00000000000E+00 0.  1.
         11    1    1    2    0    0  0.26633575758E+02  0.33646127652E+02 -0.87642563310E+01  0.43797505096E+02  0.00000000000E+00 0. -1.
</event>
<event>
 7    1  0.2810263E-009  0.1241487E+03  0.7561462E-02  0.1236406E+00
          3   -1    0    0  501    0  0.00000000000E+00  0.00000000000E+00  0.36240309868E+03  0.36240309868E+03  0.00000000000E+00 0. -1.
         -3   -1    0    0    0  501 -0.00000000000E+00 -0.00000000000E+00 -0.61916974874E+02  0.61916974874E+02  0.00000000000E+00 0.  1.
         25    2    1    2    0    0 -0.34993306559E+02 -0.91237314610E+02  0.15892443715E+03  0.22461878950E+03  0.12509134580E+03 0.  0.
          5    1    3    3  502    0 -0.36500701418E+02 -0.33092318153E+02  0.15878341376E+03  0.16630408176E+03  0.41800000000E+01 0.  1.
         -5    1    3    3    0  502  0.15073948593E+01 -0.58144996456E+02  0.14102339104E+00  0.58314707748E+02  0.41800000000E+01 0.  1.
        -11    1    1    2    0    0  0.14066759666E+02 -0.21599538511E+02  0.20949144172E+02  0.33215665475E+02  0.00000000000E+00 0.  1.
         11    1    1    2    0    0  0.20926546892E+02  0.11283685312E+03  0.12061254248E+03  0.16648561857E+03  0.00000000000E+00 0. -1.
</event>
<event>
 7    1  0.2810263E-009  0.1427811E+03  0.7561462E-02  0.1209635E+00
         -1   -1    0    0    0  501 -0.00000000000E+00  0.00000000000E+00  0.26676783651E+02  0.26676783651E+02  0.00000000000E+00 0.  1.
          1   -1    0    0  501    0  0.00000000000E+00 -0.00000000000E+00 -0.14609421087E+04  0.14609421087E+04  0.00000000000E+00 0. -1.
         25    2    1    2    0    0 -0.63325390369E+02  0.95481630565E+02 -0.11976427008E+04  0.12095959543E+04  0.12508991511E+03 0.  0.
          5    1    3    3  502    0  0.18315205211E+02  0.45244931063E+02 -0.75910920802E+03  0.76068838076E+03  0.41800000000E+01 0. -1.
         -5    1    3    3    0  502 -0.81640595579E+02  0.50236699502E+02 -0.43853349282E+03  0.44890757350E+03  0.41800000000E+01 0. -1.
        -11    1    1    2    0    0  0.83280765834E+02 -0.77251938040E+02 -0.15589415273E+03  0.19288995501E+03  0.00000000000E+00 0.  1.
         11    1    1    2    0    0 -0.19955375465E+02 -0.18229692525E+02 -0.80728471479E+02  0.85132983073E+02  0.00000000000E+00 0. -1.
</event>
<event>
 7    1  0.2810263E-009  0.1188496E+03  0.7561462E-02  0.1245007E+00
         -2   -1    0    0    0  501 -0.00000000000E+00  0.00000000000E+00  0.22269162390E+03  0.22269162390E+03  0.00000000000E+00 0.  1.
          2   -1    0    0  501    0  0.00000000000E+00 -0.00000000000E+00 -0.68992614719E+02  0.68992614719E+02  0.00000000000E+00 0. -1.
         25    2    1    2    0    0  0.52002045498E+02  0.16524125343E+02  0.11381667640E+03  0.17770555136E+03  0.12509103766E+03 0.  0.
          5    1    3    3  502    0  0.70618658912E+02 -0.32853233513E+02  0.91566425915E+02  0.12028388377E+03  0.41800000000E+01 0.  1.
         -5    1    3    3    0  502 -0.18616613413E+02  0.49377358856E+02  0.22250250488E+02  0.57421667594E+02  0.41800000000E+01 0.  1.
        -11    1    1    2    0    0  0.26534097860E+02 -0.82869011464E+01  0.97606163156E+01  0.29461851787E+02  0.00000000000E+00 0.  1.
         11    1    1    2    0    0 -0.78536143358E+02 -0.82372241965E+01  0.30121716466E+02  0.84516835476E+02  0.00000000000E+00 0. -1.
</event>
<event>
 7    1  0.2810263E-009  0.9842964E+02  0.7561462E-02  0.1283633E+00
         -1   -1    0    0    0  501 -0.00000000000E+00  0.00000000000E+00  0.15030374371E+02  0.15030374371E+02  0.00000000000E+00 0.  1.
          1   -1    0    0  501    0  0.00000000000E+00 -0.00000000000E+00 -0.10225782261E+04  0.10225782261E+04  0.00000000000E+00 0. -1.
         25    2    1    2    0    0  0.24456498704E+02 -0.39147439380E+02 -0.40107384315E+03  0.42265557569E+03  0.12508743209E+03 0.  0.
          5    1    3    3  502    0  0.46068212764E+02  0.42496587182E+01 -0.34624725781E+03  0.34934936062E+03  0.41800000000E+01 0.  1.
         -5    1    3    3    0  502 -0.21611714060E+02 -0.43397098098E+02 -0.54826585336E+02  0.73306215068E+02  0.41800000000E+01 0.  1.
        -11    1    1    2    0    0 -0.38020533368E+02  0.63418544993E+02 -0.44617546245E+03  0.45226100440E+03  0.00000000000E+00 0.  1.
         11    1    1    2    0    0  0.13564034664E+02 -0.24271105612E+02 -0.16029854614E+03  0.16269202039E+03  0.00000000000E+00 0. -1.
</event>
<event>
 7    1  0.2810263E-009  0.8994154E+02  0.7561462E-02  0.1302993E+00
          3   -1    0    0  501    0  0.00000000000E+00  0.00000000000E+00  0.35367403187E+03  0.35367403187E+03  0.00000000000E+00 0. -1.
         -3   -1    0    0    0  501 -0.00000000000E+00 -0.00000000000E+00 -0.38500005762E+02  0.38500005762E+02  0.00000000000E+00 0.  1.
         25    2    1    2    0    0  0.21024896059E+02  0.17717789668E+02  0.23568946035E+03  0.26824345633E+03  0.12509621824E+03 0.  0.
          5    1    3    3  502    0  0.67274040842E+02 -0.83636962146E+01  0.17375070293E+03  0.18655435443E+03  0.41800000000E+01 0. -1.
         -5    1    3    3    0  502 -0.46249144783E+02  0.26081485882E+02  0.61938757421E+02  0.81689101904E+02  0.41800000000E+01 0. -1.
        -11    1    1    2    0    0  0.11315807450E+02  0.10756289227E+02  0.79319000795E+02  0.80840887818E+02  0.00000000000E+00 0. -1.
         11    1    1    2    0    0 -0.32340703509E+02 -0.28474078895E+02  0.16556495518E+00  0.43089693479E+02  0.00000000000E+00 0.  1.
</event>
<event>
 7    1  0.2810263E-009  0.7364902E+02  0.7561462E-02  0.1348106E+00
         -1   -1    0    0    0  501 -0.00000000000E+00  0.00000000000E+00  0.13112399388E+02  0.13112399388E+02  0.00000000000E+00 0.  1.
          1   -1    0    0  501    0  0.00000000000E+00 -0.00000000000E+00 -0.15456579632E+04  0.15456579632E+04  0.00000000000E+00 0. -1.
         25    2    1    2    0    0 -0.32025900702E+01 -0.57329548866E+00 -0.13263013648E+04  0.13321912944E+04  0.12509096417E+03 0.  0.
          5    1    3    3  502    0  0.39918163371E+02  0.53640732684E+01 -0.15913651615E+03  0.16420760098E+03  0.41800000000E+01 0. -1.
         -5    1    3    3    0  502 -0.43120753441E+02 -0.59373687571E+01 -0.11671648486E+04  0.11679836934E+04  0.41800000000E+01 0. -1.
        -11    1    1    2    0    0 -0.94807423752E+01  0.29770604444E+02 -0.18654569921E+03  0.18914404897E+03  0.00000000000E+00 0. -1.
         11    1    1    2    0    0  0.12683332445E+02 -0.29197308956E+02 -0.19698499839E+02  0.37435019274E+02  0.00000000000E+00 0.  1.
</event>
<event>
 7    1  0.2810263E-009  0.1147694E+03  0.7561462E-02  0.1251984E+00
         -1   -1    0    0    0  501 -0.00000000000E+00  0.00000000000E+00  0.50494888540E+02  0.50494888540E+02  0.00000000000E+00 0.  1.
          1   -1    0    0  501    0  0.00000000000E+00 -0.00000000000E+00 -0.28571263713E+03  0.28571263713E+03  0.00000000000E+00 0. -1.
         25    2    1    2    0    0 -0.28675551465E+02  0.43521627057E+02 -0.13033241254E+03  0.18801794646E+03  0.12509113142E+03 0.  0.
          5    1    3    3  502    0 -0.53214600869E+02  0.77039143650E+02 -0.92263059703E+02  0.13151717753E+03  0.41800000000E+01 0.  1.
         -5    1    3    3    0  502  0.24539049405E+02 -0.33517516593E+02 -0.38069352834E+02  0.56500768928E+02  0.41800000000E+01 0.  1.
        -11    1    1    2    0    0  0.11509400279E+02 -0.65315421860E+02 -0.10003962096E+03  0.12002706524E+03  0.00000000000E+00 0. -1.
         11    1    1    2    0    0  0.17166151185E+02  0.21793794803E+02 -0.48457150909E+01  0.28162513971E+02  0.00000000000E+00 0.  1.
</event>
<event>
 7    1  0.2810263E-009  0.1092154E+03  0.7561462E-02  0.1262030E+00
         -1   -1    0    0    0  501 -0.00000000000E+00  0.00000000000E+00  0.37112890152E+03  0.37112890152E+03  0.00000000000E+00 0.  1.
          1   -1    0    0  501    0  0.00000000000E+00 -0.00000000000E+00 -0.37710402754E+02  0.37710402754E+02  0.00000000000E+00 0. -1.
         25    2    1    2    0    0 -0.30637481848E+02 -0.37956555913E+02  0.18376513858E+03  0.22758745783E+03  0.12508824634E+03 0.  0.
          5    1    3    3  502    0 -0.75420920895E-01  0.35975431610E+02  0.11955692264E+03  0.12492224589E+03  0.41800000000E+01 0. -1.
         -5    1    3    3    0  502 -0.30562060927E+02 -0.73931987523E+02  0.64208215941E+02  0.10266521193E+03  0.41800000000E+01 0. -1.
        -11    1    1    2    0    0  0.61136813336E+02  0.37261526918E+02  0.10034454207E+03  0.12326864345E+03  0.00000000000E+00 0. -1.
         11    1    1    2    0    0 -0.30499331488E+02  0.69502899488E+00  0.49308818113E+02  0.57983203000E+02  0.00000000000E+00 0.  1.
</event>
<event>
 7    1  0.2810263E-009  0.1240766E+03  0.7561462E-02  0.1236520E+00
         -2   -1    0    0    0  501 -0.00000000000E+00  0.00000000000E+00  0.32544306791E+02  0.32544306791E+02  0.00000000000E+00 0.  1.
          2   -1    0    0  501    0  0.00000000000E+00 -0.00000000000E+00 -0.52826312578E+03  0.52826312578E+03  0.00000000000E+00 0. -1.
         25    2    1    2    0    0  0.33520914233E+01 -0.68065172278E+02 -0.33306772043E+03  0.36225409610E+03  0.12509923882E+03 0.  0.
          5    1    3    3  502    0  0.19221812343E+01  0.33406234341E+02 -0.41328580239E+02  0.53340371373E+02  0.41800000000E+01 0. -1.
         -5    1    3    3    0  502  0.14299101890E+01 -0.10147140662E+03 -0.29173914019E+03  0.30891372473E+03  0.41800000000E+01 0. -1.
        -11    1    1    2    0    0  0.11897635185E+02  0.87418556229E+02 -0.11536810034E+03  0.14523552001E+03  0.00000000000E+00 0.  1.
         11    1    1    2    0    0 -0.15249726608E+02 -0.19353383951E+02 -0.47282998223E+02  0.53317816468E+02  0.00000000000E+00 0. -1.
</event>
<event>
 7    1  0.2810263E-009  0.7219000E+02  0.7561462E-02  0.1352800E+00
         -2   -1    0    0    0  501 -0.00000000000E+00  0.00000000000E+00  0.45777557256E+02  0.45777557256E+02  0.00000000000E+00 0.  1.
          2   -1    0    0  501    0  0.00000000000E+00 -0.00000000000E+00 -0.16555913690E+03  0.16555913690E+03  0.00000000000E+00 0. -1.
         25    2    1    2    0    0  0.37941483276E+01  0.46162683779E+01 -0.66431317999E+02  0.14175720228E+03  0.12508508660E+03 0.  0.
          5    1    3    3  502    0  0.27867562886E+02 -0.43613434841E+02  0.50074520391E+01  0.52165886706E+02  0.41800000000E+01 0. -1.
         -5    1    3    3    0  502 -0.24073414559E+02  0.48229703219E+02 -0.71438770038E+02  0.89591315571E+02  0.41800000000E+01 0. -1.
        -11    1    1    2    0    0 -0.20930189054E+02 -0.34599877995E+01 -0.11037429090E+02  0.23913786198E+02  0.00000000000E+00 0.  1.
         11    1    1    2    0    0  0.17136040727E+02 -0.11562805784E+01 -0.42312832559E+02  0.45665705685E+02  0.00000000000E+00 0. -1.
</event>
<event>
 7    1  0.2810263E-009  0.1105918E+03  0.7561462E-02  0.1259478E+00
         -2   -1    0    0    0  501 -0.00000000000E+00  0.00000000000E+00  0.11799879643E+02  0.11799879643E+02  0.00000000000E+00 0.  1.
          2   -1    0    0  501    0  0.00000000000E+00 -0.00000000000E+00 -0.20447034787E+04  0.20447034787E+04  0.00000000000E+00 0. -1.
         25    2    1    2    0    0  0.70938423343E+02  0.19412031670E+02 -0.16462142405E+04  0.16525961891E+04  0.12507498512E+03 0.  0.
          5    1    3    3  502    0  0.86109171608E+02  0.20988851034E+02 -0.62574705316E+03  0.63200646219E+03  0.41800000000E+01 0.  1.
         -5    1    3    3    0  502 -0.15170748265E+02 -0.15768193640E+01 -0.10204671873E+04  0.10205897269E+04  0.41800000000E+01 0.  1.
        -11    1    1    2    0    0  0.29260604763E+01 -0.39883831276E+02 -0.13710324163E+03  0.14281659810E+03  0.00000000000E+00 0.  1.
         11    1    1    2    0    0 -0.73864483819E+02  0.20471799606E+02 -0.24958611693E+03  0.26109057110E+03  0.00000000000E+00 0. -1.
</event>
<event>
 7    1  0.2810263E-009  0.9382454E+02  0.7561462E-02  0.1293846E+00
          1   -1    0    0  501    0  0.00000000000E+00  0.00000000000E+00  0.23020866633E+03  0.23020866633E+03  0.00000000000E+00 0. -1.
         -1   -1    0    0    0  501 -0.00000000000E+00 -0.00000000000E+00 -0.75049995838E+02  0.75049995838E+02  0.00000000000E+00 0.  1.
         25    2    1    2    0    0  0.59496085141E+01  0.43709793885E+02  0.18458583193E+02  0.13392224048E+03  0.12509397779E+03 0.  0.
          5    1    3    3  502    0 -0.32744755890E+02  0.13414476907E+02 -0.42531921737E+02  0.55485169151E+02  0.41800000000E+01 0.  1.
         -5    1    3    3    0  502  0.38694364404E+02  0.30295316978E+02  0.60990504930E+02  0.78437071332E+02  0.41800000000E+01 0.  1.
        -11    1    1    2    0    0  0.20044931256E+02 -0.65673964212E+02  0.82479778303E+02  0.10732093306E+03  0.00000000000E+00 0.  1.
         11    1    1    2    0    0 -0.25994539770E+02  0.21964170327E+02  0.54220308994E+02  0.64015488621E+02  0.00000000000E+00 0. -1.
</event>
<event>
 7    1  0.2810263E-009  0.1290919E+03  0.7561462E-02  0.1228809E+00
         -1   -1    0    0    0  501 -0.00000000000E+00  0.00000000000E+00  0.46446231057E+02  0.46446231057E+02  0.00000000000E+00 0.  1.
          1   -1    0    0  501    0  0.00000000000E+00 -0.00000000000E+00 -0.53756050382E+03  0.53756050382E+03  0.00000000000E+00 0. -1.
         25    2    1    2    0    0 -0.10952147618E+03 -0.21438116067E+02 -0.21562173704E+03  0.27312028092E+03  0.12508959909E+03 0.  0.
          5    1    3    3  502    0 -0.47353293797E+02  0.26382868987E+02 -0.17783348490E+03  0.18595862701E+03  0.41800000000E+01 0.  1.
         -5    1    3    3    0  502 -0.62168182381E+02 -0.47820985054E+02 -0.37788252143E+02  0.87161653909E+02  0.41800000000E+01 0.  1.
        -11    1    1    2    0    0  0.48297499685E+02 -0.18997962255E+02 -0.19579834228E+03  0.20256002045E+03  0.00000000000E+00 0. -1.
         11    1    1    2    0    0  0.61223976492E+02  0.40436078322E+02 -0.79694193447E+02  0.10832643351E+03  0.00000000000E+00 0.  1.
</event>
<event>
 7    1  0.2810263E-009  0.1020825E+03  0.7561462E-02  0.1275977E+00
         -2   -1    0    0    0  501 -0.00000000000E+00  0.00000000000E+00  0.11037859003E+03  0.11037859003E+03  0.00000000000E+00 0.  1.
          2   -1    0    0  501    0  0.00000000000E+00 -0.00000000000E+00 -0.13434609696E+03  0.13434609696E+03  0.00000000000E+00 0. -1.
         25    2    1    2    0    0 -0.48865472786E+02 -0.74899531758E+01 -0.36745377402E+02  0.13943545799E+03  0.12509232733E+03 0.  0.
          5    1    3    3  502    0 -0.74954985495E+02 -0.14084483396E+02  0.17837278952E+02  0.78436365568E+02  0.41800000000E+01 0. -1.
         -5    1    3    3    0  502  0.26089512709E+02  0.65945302204E+01 -0.54582656354E+02  0.60999092427E+02  0.41800000000E+01 0. -1.
        -11    1    1    2    0    0  0.20576947507E+02  0.47376087251E+02 -0.77983336195E+01  0.52237136398E+02  0.00000000000E+00 0. -1.
         11    1    1    2    0    0  0.28288525279E+02 -0.39886134075E+02  0.20576204086E+02  0.53052092593E+02  0.00000000000E+00 0.  1.
</event>
<event>
 7    1  0.2810263E-009  0.1196814E+03  0.7561462E-02  0.1243624E+00
          2   -1    0    0  501    0  0.00000000000E+00  0.00000000000E+00  0.72344253901E+02  0.72344253901E+02  0.00000000000E+00 0. -1.
         -2   -1    0    0    0  501 -0.00000000000E+00 -0.00000000000E+00 -0.25131492288E+03  0.25131492288E+03  0.00000000000E+00 0.  1.
         25    2    1    2    0    0  0.57838936713E+02 -0.23452292166E+02 -0.15913145401E+03  0.21181212407E+03  0.12508478581E+03 0.  0.
          5    1    3    3  502    0 -0.22693364679E+02 -0.45039087522E+02 -0.32511667686E+02  0.60149722701E+02  0.41800000000E+01 0. -1.
         -5    1    3    3    0  502  0.80532301391E+02  0.21586795356E+02 -0.12661978632E+03  0.15166240137E+03  0.41800000000E+01 0. -1.
        -11    1    1    2    0    0  0.54255575279E+01 -0.25004840644E+02  0.89640276592E+01  0.27111483212E+02  0.00000000000E+00 0.  1.
         11    1    1    2    0    0 -0.63264494240E+02  0.48457132810E+02 -0.28803242628E+02  0.84735569494E+02  0.00000000000E+00 0. -1.
</event>
<event>
 7    1  0.2810263E-009  0.1066108E+03  0.7561462E-02  0.1266978E+00
         -1   -1    0    0    0  501 -0.00000000000E+00  0.00000000000E+00  0.15494398317E+03  0.15494398317E+03  0.00000000000E+00 0.  1.
          1   -1    0    0  501    0  0.00000000000E+00 -0.00000000000E+00 -0.11726830561E+03  0.11726830561E+03  0.00000000000E+00 0. -1.
         25    2    1    2    0    0 -0.16022046570E+02  0.75034612180E+02  0.10810984879E+02  0.14713832561E+03  0.12508361390E+03 0.  0.
          5    1    3    3  502    0 -0.38196905589E+02  0.94031131018E+02 -0.21031062611E+02  0.10373348154E+03  0.41800000000E+01 0. -1.
         -5    1    3    3    0  502  0.22174859019E+02 -0.18996518838E+02  0.31842047490E+02  0.43404844071E+02  0.41800000000E+01 0. -1.
        -11    1    1    2    0    0  0.23179511999E+02 -0.38684136395E+02  0.60212003966E+02  0.75227904442E+02  0.00000000000E+00 0.  1.
         11    1    1    2    0    0 -0.71574654282E+01 -0.36350475785E+02 -0.33347311284E+02  0.49846058731E+02  0.00000000000E+00 0. -1.
</event>
<event>
 7    1  0.2810263E-009  0.1081067E+03  0.7561462E-02  0.1264117E+00
          1   -1    0    0  501    0  0.00000000000E+00  0.00000000000E+00  0.23093798813E+02  0.23093798813E+02  0.00000000000E+00 0. -1.
         -1   -1    0    0    0  501 -0.00000000000E+00 -0.00000000000E+00 -0.56976966362E+03  0.56976966362E+03  0.00000000000E+00 0.  1.
         25    2    1    2    0    0  0.11555482337E+02  0.24822391489E+02 -0.24462532819E+03  0.27611326879E+03  0.12508919104E+03 0.  0.
          5    1    3    3  502    0  0.58858954401E+02 -0.17884442362E+02 -0.92962142545E+02  0.11155116377E+03  0.41800000000E+01 0.  1.
         -5    1    3    3    0  502 -0.47303472064E+02  0.42706833852E+02 -0.15166318565E+03  0.16456210502E+03  0.41800000000E+01 0.  1.
        -11    1    1    2    0    0 -0.45654615338E+02 -0.32114900246E+02 -0.23039828657E+03  0.23706345390E+03  0.00000000000E+00 0.  1.
         11    1    1    2    0    0  0.34099133002E+02  0.72925087570E+01 -0.71652250044E+02  0.79686739749E+02  0.00000000000E+00 0. -1.
</event>
<event>
 7    1  0.2810263E-009  0.7303706E+02  0.7561462E-02  0.1350060E+00
         -2   -1    0    0    0  501 -0.00000000000E+00  0.00000000000E+00  0.77828853736E+02  0.77828853736E+02  0.00000000000E+00 0. -1.
          2   -1    0    0  501    0  0.00000000000E+00 -0.00000000000E+00 -0.29684895335E+03  0.29684895335E+03  0.00000000000E+00 0.  1.
         25    2    1    2    0    0  0.35593420394E+02 -0.16741462269E+01  0.48379050427E+01  0.13016291978E+03  0.12509710636E+03 0.  0.
          5    1    3    3  502    0  0.24592196094E+02 -0.26066649947E+02 -0.54256833651E+02  0.65157676033E+02  0.41800000000E+01 0. -1.
         -5    1    3    3    0  502  0.11001224300E+02  0.24392503721E+02  0.59094738694E+02  0.65005243751E+02  0.41800000000E+01 0. -1.
        -11    1    1    2    0    0 -0.56619428722E+02  0.14285190374E+02 -0.82667349220E+02  0.10121124937E+03  0.00000000000E+00 0. -1.
         11    1    1    2    0    0  0.21026008328E+02 -0.12611044147E+02 -0.14119065544E+03  0.14330363793E+03  0.00000000000E+00 0.  1.
</event>
<event>
 7    1  0.2810263E-009  0.2045130E+03  0.7561462E-02  0.1145986E+00
         -2   -1    0    0    0  501 -0.00000000000E+00  0.00000000000E+00  0.24648508299E+02  0.24648508299E+02  0.00000000000E+00 0.  1.
          2   -1    0    0  501    0  0.00000000000E+00 -0.00000000000E+00 -0.18491788374E+04  0.18491788374E+04  0.00000000000E+00 0. -1.
         25    2    1    2    0    0 -0.11439759510E+03  0.14344385677E+03 -0.97164407048E+03  0.99669575137E+03  0.12508905343E+03 0.  0.
          5    1    3    3  502    0 -0.10237099173E+03  0.53290083221E+02 -0.71749706241E+03  0.72673183492E+03  0.41800000000E+01 0. -1.
         -5    1    3    3    0  502 -0.12026603371E+02  0.90153773552E+02 -0.25414700806E+03  0.26996391644E+03  0.41800000000E+01 0. -1.
        -11    1    1    2    0    0  0.53245050209E+02 -0.79484996009E+01 -0.17297569889E+03  0.18115961587E+03  0.00000000000E+00 0.  1.
         11    1    1    2    0    0  0.61152544889E+02 -0.13549535717E+03 -0.67991055974E+03  0.69597197846E+03  0.00000000000E+00 0. -1.
</event>
<event>
 7    1  0.2810263E-009  0.9822329E+02  0.7561462E-02  0.1284077E+00
         -2   -1    0    0    0  501 -0.00000000000E+00  0.00000000000E+00  0.44343981574E+02  0.44343981574E+02  0.00000000000E+00 0. -1.
          2   -1    0    0  501    0  0.00000000000E+00 -0.00000000000E+00 -0.44089019506E+03  0.44089019506E+03  0.00000000000E+00 0.  1.
         25    2    1    2    0    0 -0.38809415843E+02  0.75020359538E+02 -0.27614962045E+03  0.31470632032E+03  0.12508888867E+03 0.  0.
          5    1    3    3  502    0 -0.50918983865E+02  0.50038842805E+02 -0.51054843292E+02  0.87867503269E+02  0.41800000000E+01 0.  1.
         -5    1    3    3    0  502  0.12109568023E+02  0.24981516733E+02 -0.22509477716E+03  0.22683881705E+03  0.41800000000E+01 0.  1.
        -11    1    1    2    0    0 -0.84168381618E+01 -0.31613378362E+02 -0.96803905537E+02  0.10218241034E+03  0.00000000000E+00 0.  1.
         11    1    1    2    0    0  0.47226254004E+02 -0.43406981176E+02 -0.23592687499E+02  0.68345445975E+02  0.00000000000E+00 0. -1.
</event>
<event>
 7    1  0.2810263E-009  0.1326032E+03  0.7561462E-02  0.1223643E+00
         -1   -1    0    0    0  501 -0.00000000000E+00  0.00000000000E+00  0.40026619534E+02  0.40026619534E+02  0.00000000000E+00 0.  1.
          1   -1    0    0  501    0  0.00000000000E+00 -0.00000000000E+00 -0.46084585417E+03  0.46084585417E+03  0.00000000000E+00 0. -1.
         25    2    1    2    0    0 -0.15790790910E+02 -0.79305371379E+02 -0.23823848608E+03  0.28096932353E+03  0.12508994167E+03 0.  0.
          5    1    3    3  502    0  0.53640635137E+02 -0.47751523786E+02 -0.10264736971E+03  0.12534544535E+03  0.41800000000E+01 0.  1.
         -5    1    3    3    0  502 -0.69431426047E+02 -0.31553847593E+02 -0.13559111637E+03  0.15562387818E+03  0.41800000000E+01 0.  1.
        -11    1    1    2    0    0  0.48412998237E+02  0.65539843385E+02 -0.93379684113E+02  0.12393165404E+03  0.00000000000E+00 0.  1.
         11    1    1    2    0    0 -0.32622207327E+02  0.13765527994E+02 -0.89201064438E+02  0.95971496126E+02  0.00000000000E+00 0. -1.
</event>
<event>
 7    1  0.2810263E-009  0.9982239E+02  0.7561462E-02  0.1280670E+00
         -2   -1    0    0    0  501 -0.00000000000E+00  0.00000000000E+00  0.54630688967E+03  0.54630688967E+03  0.00000000000E+00 0.  1.
          2   -1    0    0  501    0  0.00000000000E+00 -0.00000000000E+00 -0.24892243544E+02  0.24892243544E+02  0.00000000000E+00 0. -1.
         25    2    1    2    0    0  0.22798947131E+02  0.30854276129E+02  0.36841978267E+03  0.39096367336E+03  0.12509068422E+03 0.  0.
          5    1    3    3  502    0  0.49051131242E+02  0.60575128067E+02  0.31364633955E+03  0.32321333254E+03  0.41800000000E+01 0. -1.
         -5    1    3    3    0  502 -0.26252184110E+02 -0.29720851939E+02  0.54773443121E+02  0.67750340825E+02  0.41800000000E+01 0. -1.
        -11    1    1    2    0    0 -0.40797470211E+02 -0.43560408807E+02  0.59855680894E+02  0.84526003847E+02  0.00000000000E+00 0. -1.
         11    1    1    2    0    0  0.17998523079E+02  0.12706132678E+02  0.93139182565E+02  0.95709456009E+02  0.00000000000E+00 0.  1.
</event>
<event>
 7    1  0.2810263E-009  0.9009656E+02  0.7561462E-02  0.1302618E+00
          1   -1    0    0  501    0  0.00000000000E+00  0.00000000000E+00  0.25119863362E+03  0.25119863362E+03  0.00000000000E+00 0. -1.
         -1   -1    0    0    0  501 -0.00000000000E+00 -0.00000000000E+00 -0.44340899706E+02  0.44340899706E+02  0.00000000000E+00 0.  1.
         25    2    1    2    0    0 -0.41612979416E+01 -0.52243533254E+01  0.12492082192E+03  0.17691097581E+03  0.12509065251E+03 0.  0.
          5    1    3    3  502    0  0.53245449360E+02 -0.98209022993E+01  0.21387823199E+02  0.58364710063E+02  0.41800000000E+01 0. -1.
         -5    1    3    3    0  502 -0.57406747302E+02  0.45965489739E+01  0.10353299872E+03  0.11854626575E+03  0.41800000000E+01 0. -1.
        -11    1    1    2    0    0  0.23736579772E+02 -0.23489805842E+02  0.76477280817E+02  0.83450408501E+02  0.00000000000E+00 0. -1.
         11    1    1    2    0    0 -0.19575281830E+02  0.28714159167E+02  0.54596311730E+01  0.35178149013E+02  0.00000000000E+00 0.  1.
</event>
<event>
 7    1  0.2810263E-009  0.8424186E+02  0.7561462E-02  0.1317427E+00
          1   -1    0    0  501    0  0.00000000000E+00  0.00000000000E+00  0.59893439493E+02  0.59893439493E+02  0.00000000000E+00 0. -1.
         -1   -1    0    0    0  501 -0.00000000000E+00 -0.00000000000E+00 -0.21972930854E+03  0.21972930854E+03  0.00000000000E+00 0.  1.
         25    2    1    2    0    0  0.11948919844E+02  0.71768055234E+01 -0.51598049456E+02  0.13602877198E+03  0.12508870802E+03 0.  0.
          5    1    3    3  502    0  0.52281723800E+02 -0.25211163136E+02 -0.59853962843E+02  0.83480241125E+02  0.41800000000E+01 0.  1.
         -5    1    3    3    0  502 -0.40332803956E+02  0.32387968660E+02  0.82559133871E+01  0.52548530852E+02  0.41800000000E+01 0.  1.
        -11    1    1    2    0    0 -0.33903889501E+02 -0.11910339390E+02 -0.30826422846E+01  0.36067056869E+02  0.00000000000E+00 0. -1.
         11    1    1    2    0    0  0.21954969658E+02  0.47335338667E+01 -0.10515517731E+03  0.10752691919E+03  0.00000000000E+00 0.  1.
</event>
<event>
 7    1  0.2810263E-009  0.1205036E+03  0.7561462E-02  0.1242268E+00
          1   -1    0    0  501    0  0.00000000000E+00  0.00000000000E+00  0.71617895700E+02  0.71617895700E+02  0.00000000000E+00 0. -1.
         -1   -1    0    0    0  501 -0.00000000000E+00 -0.00000000000E+00 -0.25216504303E+03  0.25216504303E+03  0.00000000000E+00 0.  1.
         25    2    1    2    0    0  0.77105849251E+02 -0.46178818941E+01 -0.84449827752E+02  0.16954774130E+03  0.12509207149E+03 0.  0.
          5    1    3    3  502    0  0.73553327587E+02  0.34267292231E+02 -0.55809513477E+01  0.81442978419E+02  0.41800000000E+01 0. -1.
         -5    1    3    3    0  502  0.35525216641E+01 -0.38885174125E+02 -0.78868876404E+02  0.88104762880E+02  0.41800000000E+01 0. -1.
        -11    1    1    2    0    0 -0.36284666901E+02 -0.43981374008E+02 -0.41597808371E+02  0.70578438443E+02  0.00000000000E+00 0.  1.
         11    1    1    2    0    0 -0.40821182350E+02  0.48599255902E+02 -0.54499511209E+02  0.83656758990E+02  0.00000000000E+00 0. -1.
</event>
<event>
 7    1  0.2810263E-009  0.9116847E+02  0.7561462E-02  0.1300046E+00
          2   -1    0    0  501    0  0.00000000000E+00  0.00000000000E+00  0.17599198437E+04  0.17599198437E+04  0.00000000000E+00 0. -1.
         -2   -1    0    0    0  501 -0.00000000000E+00 -0.00000000000E+00 -0.11011536492E+02  0.11011536492E+02  0.00000000000E+00 0.  1.
         25    2    1    2    0    0 -0.23572513346E+02 -0.46320191881E+02  0.13911117212E+04  0.13976913491E+04  0.12509221678E+03 0.  0.
          5    1    3    3  502    0 -0.43691162842E+02 -0.32088322400E+02  0.13367855754E+04  0.13378907748E+04  0.41800000000E+01 0. -1.
         -5    1    3    3    0  502  0.20118649496E+02 -0.14231869481E+02  0.54326145832E+02  0.59800574306E+02  0.41800000000E+01 0. -1.
        -11    1    1    2    0    0  0.84308955256E+01 -0.26906279514E+02  0.14425698021E+03  0.14698674844E+03  0.00000000000E+00 0. -1.
         11    1    1    2    0    0  0.15141617821E+02  0.73226471395E+02  0.21353960570E+03  0.22625328265E+03  0.00000000000E+00 0.  1.
</event>
<event>
 7    1  0.2810263E-009  0.9530994E+02  0.7561462E-02  0.1290480E+00
         -1   -1    0    0    0  501 -0.00000000000E+00  0.00000000000E+00  0.35828657943E+02  0.35828657943E+02  0.00000000000E+00 0.  1.
          1   -1    0    0  501    0  0.00000000000E+00 -0.00000000000E+00 -0.33205689956E+03  0.33205689956E+03  0.00000000000E+00 0. -1.
         25    2    1    2    0    0  0.98087039608E+01  0.19138032717E+02 -0.19141622795E+03  0.22967310581E+03  0.12508832176E+03 0.  0.
          5    1    3    3  502    0  0.44973213861E+02  0.51180244933E+02 -0.15580085712E+03  0.17009816846E+03  0.41800000000E+01 0. -1.
         -5    1    3    3    0  502 -0.35164509900E+02 -0.32042212215E+02 -0.35615370827E+02  0.59574937342E+02  0.41800000000E+01 0. -1.
        -11    1    1    2    0    0  0.25105197924E+02 -0.28966390827E+02 -0.92133864896E+02  0.99789637844E+02  0.00000000000E+00 0. -1.
         11    1    1    2    0    0 -0.34913901885E+02  0.98283581100E+01 -0.12678148776E+02  0.38422813852E+02  0.00000000000E+00 0.  1.
</event>
<event>
 7    1  0.2810263E-009  0.8882790E+02  0.7561462E-02  0.1305715E+00
         -4   -1    0    0    0  501 -0.00000000000E+00  0.00000000000E+00  0.82318130194E+02  0.82318130194E+02  0.00000000000E+00 0.  1.
          4   -1    0    0  501    0  0.00000000000E+00 -0.00000000000E+00 -0.16689442553E+03  0.16689442553E+03  0.00000000000E+00 0. -1.
         25    2    1    2    0    0  0.42498886471E+02  0.12564695868E+02 -0.47346566626E+02  0.14089861573E+03  0.12508675233E+03 0.  0.
          5    1    3    3  502    0 -0.47121943873E+01  0.39430971529E+02 -0.71036394425E+02  0.81490171337E+02  0.41800000000E+01 0.  1.
         -5    1    3    3    0  502  0.47211080859E+02 -0.26866275661E+02  0.23689827799E+02  0.59408444390E+02  0.41800000000E+01 0.  1.
        -11    1    1    2    0    0 -0.50353491253E+02  0.16616440585E+02 -0.52358820462E+02  0.74518630283E+02  0.00000000000E+00 0. -1.
         11    1    1    2    0    0  0.78546047819E+01 -0.29181136453E+02  0.15129091756E+02  0.33795309709E+02  0.00000000000E+00 0.  1.
</event>
<event>
 7    1  0.2810263E-009  0.1594057E+03  0.7561462E-02  0.1189369E+00
          1   -1    0    0  501    0  0.00000000000E+00  0.00000000000E+00  0.82128961587E+03  0.82128961587E+03  0.00000000000E+00 0. -1.
         -1   -1    0    0    0  501 -0.00000000000E+00 -0.00000000000E+00 -0.38319315443E+02  0.38319315443E+02  0.00000000000E+00 0.  1.
         25    2    1    2    0    0 -0.96989937797E+02  0.61349668984E+02  0.24007610592E+03  0.29403143753E+03  0.12508844754E+03 0.  0.
          5    1    3    3  502    0 -0.36021082682E+01 -0.34303378116E+02  0.35990208502E+02  0.50024638351E+02  0.41800000000E+01 0.  1.
         -5    1    3    3    0  502 -0.93387829529E+02  0.95653047100E+02  0.20408589741E+03  0.24400679918E+03  0.41800000000E+01 0.  1.
        -11    1    1    2    0    0 -0.12606133130E+02  0.12824647855E+02  0.23511190769E+02  0.29600038454E+02  0.00000000000E+00 0.  1.
         11    1    1    2    0    0  0.10959607093E+03 -0.74174316839E+02  0.51938300374E+03  0.53597745532E+03  0.00000000000E+00 0. -1.
</event>
<event>
 7    1  0.2810263E-009  0.1342715E+03  0.7561462E-02  0.1221252E+00
         -2   -1    0    0    0  501 -0.00000000000E+00  0.00000000000E+00  0.89857301526E+02  0.89857301526E+02  0.00000000000E+00 0.  1.
          2   -1    0    0  501    0  0.00000000000E+00 -0.00000000000E+00 -0.23248238301E+03  0.23248238301E+03  0.00000000000E+00 0. -1.
         25    2    1    2    0    0 -0.94002735688E+02 -0.10601940378E+01 -0.67956693795E+02  0.17060351361E+03  0.12509919383E+03 0.  0.
          5    1    3    3  502    0 -0.11779162805E+03 -0.24918939661E+01 -0.81075960060E+02  0.14307991080E+03  0.41800000000E+01 0.  1.
         -5    1    3    3    0  502  0.23788892361E+02  0.14316999282E+01  0.13119266265E+02  0.27523602813E+02  0.41800000000E+01 0.  1.
        -11    1    1    2    0    0  0.10478906188E+03 -0.16267780891E+02 -0.43808366469E+02  0.11473692151E+03  0.00000000000E+00 0.  1.
         11    1    1    2    0    0 -0.10786326188E+02  0.17327974929E+02 -0.30860021219E+02  0.36999249417E+02  0.00000000000E+00 0. -1.
</event>
<event>
 7    1  0.2810263E-009  0.1046788E+03  0.7561462E-02  0.1270754E+00
          2   -1    0    0  501    0  0.00000000000E+00  0.00000000000E+00  0.47017199140E+03  0.47017199140E+03  0.00000000000E+00 0. -1.
         -2   -1    0    0    0  501 -0.00000000000E+00 -0.00000000000E+00 -0.88888607513E+02  0.88888607513E+02  0.00000000000E+00 0.  1.
         25    2    1    2    0    0  0.37785089236E+02  0.86068017615E+01 -0.31490429875E+02  0.13468898001E+03  0.12509070372E+03 0.  0.
          5    1    3    3  502    0 -0.29796448934E+02  0.33116615454E+02 -0.42655573326E+02  0.61818354265E+02  0.41800000000E+01 0. -1.
         -5    1    3    3    0  502  0.67581538170E+02 -0.24509813693E+02  0.11165143451E+02  0.72870625749E+02  0.41800000000E+01 0. -1.
        -11    1    1    2    0    0 -0.16073330666E+02 -0.46351732839E+02  0.28963501862E+03  0.29376058126E+03  0.00000000000E+00 0. -1.
         11    1    1    2    0    0 -0.21711758570E+02  0.37744931078E+02  0.12313879515E+03  0.13061103763E+03  0.00000000000E+00 0.  1.
</event>
<event>
 7    1  0.2810263E-009  0.2848762E+03  0.7561462E-02  0.1093055E+00
         -1   -1    0    0    0  501 -0.00000000000E+00  0.00000000000E+00  0.32384718857E+03  0.32384718857E+03  0.00000000000E+00 0.  1.
          1   -1    0    0  501    0  0.00000000000E+00 -0.00000000000E+00 -0.35109568953E+03  0.35109568953E+03  0.00000000000E+00 0. -1.
         25    2    1    2    0    0  0.26501977456E+03  0.91922050860E+02 -0.16609027356E+03  0.34916843052E+03  0.12508984594E+03 0.  0.
          5    1    3    3  502    0  0.55710469786E+02  0.42423354167E+02  0.10394967819E+02  0.70914915064E+02  0.41800000000E+01 0.  1.
         -5    1    3    3    0  502  0.20930930478E+03  0.49498696694E+02 -0.17648524137E+03  0.27825351546E+03  0.41800000000E+01 0.  1.
        -11    1    1    2    0    0 -0.10485379916E+03 -0.61158907126E+02  0.10204611084E+03  0.15858165044E+03  0.00000000000E+00 0.  1.
         11    1    1    2    0    0 -0.16016597540E+03 -0.30763143734E+02  0.36795661754E+02  0.16719279713E+03  0.00000000000E+00 0. -1.
</event>
<event>
 7    1  0.2810263E-009  0.1170348E+03  0.7561462E-02  0.1248070E+00
         -2   -1    0    0    0  501 -0.00000000000E+00  0.00000000000E+00  0.17066943152E+02  0.17066943152E+02  0.00000000000E+00 0. -1.
          2   -1    0    0  501    0  0.00000000000E+00 -0.00000000000E+00 -0.80381405758E+03  0.80381405758E+03  0.00000000000E+00 0.  1.
         25    2    1    2    0    0  0.43582098983E+02  0.20093032946E+02 -0.45887901158E+03  0.47803770549E+03  0.12508785424E+03 0.  0.
          5    1    3    3  502    0  0.70083119571E+02 -0.30531261984E+02 -0.27261909530E+03  0.28316504927E+03  0.41800000000E+01 0.  1.
         -5    1    3    3    0  502 -0.26501020588E+02  0.50624294930E+02 -0.18625991629E+03  0.19487265623E+03  0.41800000000E+01 0.  1.
        -11    1    1    2    0    0  0.22533344135E+02 -0.25320153333E+02 -0.10957641427E+03  0.11469896393E+03  0.00000000000E+00 0.  1.
         11    1    1    2    0    0 -0.66115443118E+02  0.52271203875E+01 -0.21829168858E+03  0.22814433131E+03  0.00000000000E+00 0. -1.
</event>
<event>
 7    1  0.2810263E-009  0.1994474E+03  0.7561462E-02  0.1150206E+00
         -1   -1    0    0    0  501 -0.00000000000E+00  0.00000000000E+00  0.16988823774E+02  0.16988823774E+02  0.00000000000E+00 0.  1.
          1   -1    0    0  501    0  0.00000000000E+00 -0.00000000000E+00 -0.24993707872E+04  0.24993707872E+04  0.00000000000E+00 0. -1.
         25    2    1    2    0    0  0.15533282818E+03 -0.66475327289E+02 -0.15749494819E+04  0.15889177238E+04  0.12508559471E+03 0.  0.
          5    1    3    3  502    0  0.16072826820E+03 -0.89512510242E+02 -0.13066461993E+04  0.13195407642E+04  0.41800000000E+01 0.  1.
         -5    1    3    3    0  502 -0.53954400235E+01  0.23037182953E+02 -0.26830328254E+03  0.26937695965E+03  0.41800000000E+01 0.  1.
        -11    1    1    2    0    0 -0.16420862152E+02  0.47976746342E+02 -0.20622403178E+03  0.21236705061E+03  0.00000000000E+00 0. -1.
         11    1    1    2    0    0 -0.13891196603E+03  0.18498580947E+02 -0.70120844982E+03  0.71507483658E+03  0.00000000000E+00 0.  1.
</event>
<event>
 7    1  0.2810263E-009  0.1122283E+03  0.7561462E-02  0.1256498E+00
         -2   -1    0    0    0  501 -0.00000000000E+00  0.00000000000E+00  0.61834575796E+02  0.61834575796E+02  0.00000000000E+00 0.  1.
          2   -1    0    0  501    0  0.00000000000E+00 -0.00000000000E+00 -0.36581762107E+03  0.36581762107E+03  0.00000000000E+00 0. -1.
         25    2    1    2    0    0 -0.10337193090E+03 -0.17082728341E+02 -0.16914161985E+03  0.23501739745E+03  0.12508682518E+03 0.  0.
          5    1    3    3  502    0 -0.69934635395E+02  0.16446139811E+02 -0.17295407154E+03  0.18732835345E+03  0.41800000000E+01 0.  1.
         -5    1    3    3    0  502 -0.33437295504E+02 -0.33528868152E+02  0.38124516929E+01  0.47689044005E+02  0.41800000000E+01 0.  1.
        -11    1    1    2    0    0  0.27318165429E+02  0.72948170451E+01  0.89641786270E+01  0.29662316440E+02  0.00000000000E+00 0.  1.
         11    1    1    2    0    0  0.76053765470E+02  0.97879112961E+01 -0.14380560405E+03  0.16297248297E+03  0.00000000000E+00 0. -1.
</event>
<event>
 7    1  0.2810263E-009  0.1238894E+03  0.7561462E-02  0.1236815E+00
         -1   -1    0    0    0  501 -0.00000000000E+00  0.00000000000E+00  0.14175530817E+02  0.14175530817E+02  0.00000000000E+00 0.  1.
          1   -1    0    0  501    0  0.00000000000E+00 -0.00000000000E+00 -0.13343799336E+04  0.13343799336E+04  0.00000000000E+00 0. -1.
         25    2    1    2    0    0  0.61755036784E+02 -0.32131322970E+01 -0.10027657460E+04  0.10124274652E+04  0.12508485979E+03 0.  0.
          5    1    3    3  502    0 -0.38602749838E+02 -0.19896131007E+01 -0.25589615967E+03  0.25883285685E+03  0.41800000000E+01 0.  1.
         -5    1    3    3    0  502  0.10035778662E+03 -0.12235191963E+01 -0.74686958634E+03  0.75359460835E+03  0.41800000000E+01 0.  1.
        -11    1    1    2    0    0  0.21548611107E+02 -0.10585811035E+02 -0.10068951193E+03  0.10351222077E+03  0.00000000000E+00 0. -1.
         11    1    1    2    0    0 -0.83303647891E+02  0.13798943332E+02 -0.21674914485E+03  0.23261577845E+03  0.00000000000E+00 0.  1.
</event>
<event>
 7    1  0.2810263E-009  0.1216420E+03  0.7561462E-02  0.1240413E+00
          3   -1    0    0  501    0  0.00000000000E+00  0.00000000000E+00  0.19395917417E+02  0.19395917417E+02  0.00000000000E+00 0. -1.
         -3   -1    0    0    0  501 -0.00000000000E+00 -0.00000000000E+00 -0.81075684081E+03  0.81075684081E+03  0.00000000000E+00 0.  1.
         25    2    1    2    0    0  0.55117330880E+02  0.19195280248E+02 -0.42618966507E+03  0.44798639720E+03  0.12509117680E+03 0.  0.
          5    1    3    3  502    0 -0.30239416345E+02 -0.26650072478E+02 -0.10831211415E+03  0.11564443408E+03  0.41800000000E+01 0.  1.
         -5    1    3    3    0  502  0.85356747225E+02  0.45845352726E+02 -0.31787755093E+03  0.33234196312E+03  0.41800000000E+01 0.  1.
        -11    1    1    2    0    0 -0.61208907961E+02 -0.47091371822E+02 -0.19715151694E+03  0.21173768758E+03  0.00000000000E+00 0.  1.
         11    1    1    2    0    0  0.60915770816E+01  0.27896091575E+02 -0.16801974138E+03  0.17042867344E+03  0.00000000000E+00 0. -1.
</event>
<event>
 7    1  0.2810263E-009  0.7268625E+02  0.7561462E-02  0.1351189E+00
          3   -1    0    0  501    0  0.00000000000E+00  0.00000000000E+00  0.97519811505E+02  0.97519811505E+02  0.00000000000E+00 0. -1.
         -3   -1    0    0    0  501 -0.00000000000E+00 -0.00000000000E+00 -0.15343039193E+03  0.15343039193E+03  0.00000000000E+00 0.  1.
         25    2    1    2    0    0  0.19475421136E+02 -0.13059594072E+02 -0.84305928719E+02  0.15266020287E+03  0.12509117834E+03 0.  0.
          5    1    3    3  502    0  0.42319468554E+02 -0.26220364687E+02  0.13112186842E+02  0.51651203149E+02  0.41800000000E+01 0. -1.
         -5    1    3    3    0  502 -0.22844047418E+02  0.13160770615E+02 -0.97418115562E+02  0.10100899972E+03  0.41800000000E+01 0. -1.
        -11    1    1    2    0    0 -0.37009836011E+02  0.27415931024E+02 -0.15742565738E+02  0.48674321890E+02  0.00000000000E+00 0.  1.
         11    1    1    2    0    0  0.17534414875E+02 -0.14356336952E+02  0.44137914029E+02  0.49615678676E+02  0.00000000000E+00 0. -1.
</event>
<event>
 7    1  0.2810263E-009  0.1284401E+03  0.7561462E-02  0.1229789E+00
          1   -1    0    0  501    0  0.00000000000E+00  0.00000000000E+00  0.60838188321E+02  0.60838188321E+02  0.00000000000E+00 0. -1.
         -1   -1    0    0    0  501 -0.00000000000E+00 -0.00000000000E+00 -0.29570576341E+03  0.29570576341E+03  0.00000000000E+00 0.  1.
         25    2    1    2    0    0  0.67063187433E+02 -0.37053589570E+02 -0.14250339854E+03  0.20451075234E+03  0.12508792754E+03 0.  0.
          5    1    3    3  502    0  0.18173393665E+02 -0.73025163636E+02 -0.11557145195E+03  0.13797528644E+03  0.41800000000E+01 0. -1.
         -5    1    3    3    0  502  0.48889793768E+02  0.35971574066E+02 -0.26931946592E+02  0.66535465901E+02  0.41800000000E+01 0. -1.
        -11    1    1    2    0    0 -0.68247269203E+02 -0.13945694380E+02 -0.56195372100E+02  0.89499117263E+02  0.00000000000E+00 0.  1.
         11    1    1    2    0    0  0.11840817692E+01  0.50999283949E+02 -0.36168804450E+02  0.62534082134E+02  0.00000000000E+00 0. -1.
</event>
<event>
 7    1  0.2810263E-009  0.7994153E+02  0.7561462E-02  0.1329217E+00
          2   -1    0    0  501    0  0.00000000000E+00  0.00000000000E+00  0.19027151549E+03  0.19027151549E+03  0.00000000000E+00 0. -1.
         -2   -1    0    0    0  501 -0.00000000000E+00 -0.00000000000E+00 -0.88599309528E+02  0.88599309528E+02  0.00000000000E+00 0.  1.
         25    2    1    2    0    0  0.15654142387E+02  0.52009181325E+02  0.10688214520E+03  0.17326320893E+03  0.12508532883E+03 0.  0.
          5    1    3    3  502    0  0.48387113170E+01  0.15372014096E+02 -0.28240296496E+02  0.32782597376E+02  0.41800000000E+01 0.  1.
         -5    1    3    3    0  502  0.10815431070E+02  0.36637167229E+02  0.13512244170E+03  0.14048061155E+03  0.41800000000E+01 0.  1.
        -11    1    1    2    0    0 -0.48319264239E+02 -0.53521117388E+02 -0.90962637517E+01  0.72677392064E+02  0.00000000000E+00 0.  1.
         11    1    1    2    0    0  0.32665121852E+02  0.15119360623E+01  0.38863245142E+01  0.32930224027E+02  0.00000000000E+00 0. -1.
</event>
<event>
 7    1  0.2810263E-009  0.2146110E+03  0.7561462E-02  0.1137966E+00
         -1   -1    0    0    0  501 -0.00000000000E+00  0.00000000000E+00  0.81349687568E+03  0.81349687568E+03  0.00000000000E+00 0.  1.
          1   -1    0    0  501    0  0.00000000000E+00 -0.00000000000E+00 -0.73573960066E+02  0.73573960066E+02  0.00000000000E+00 0. -1.
         25    2    1    2    0    0  0.14380518321E+03 -0.15226794969E+03  0.49300676216E+03  0.55006285549E+03  0.12509203907E+03 0.  0.
          5    1    3    3  502    0  0.16619437582E+02  0.45693566377E+01  0.15720724867E+03  0.15820453900E+03  0.41800000000E+01 0.  1.
         -5    1    3    3    0  502  0.12718574563E+03 -0.15683730633E+03  0.33579951349E+03  0.39185831650E+03  0.41800000000E+01 0.  1.
        -11    1    1    2    0    0 -0.80585357928E+02  0.89390590129E+02  0.70867417846E+02  0.13966699119E+03  0.00000000000E+00 0. -1.
         11    1    1    2    0    0 -0.63219825283E+02  0.62877359560E+02  0.17604873561E+03  0.19734098906E+03  0.00000000000E+00 0.  1.
</event>
<event>
 7    1  0.2810263E-009  0.1135637E+03  0.7561462E-02  0.1254109E+00
          2   -1    0    0  501    0  0.00000000000E+00  0.00000000000E+00  0.21259396851E+03  0.21259396851E+03  0.00000000000E+00 0. -1.
         -2   -1    0    0    0  501 -0.00000000000E+00 -0.00000000000E+00 -0.63304347368E+02  0.63304347368E+02  0.00000000000E+00 0.  1.
         25    2    1    2    0    0  0.10350417531E+02 -0.20677853717E+02  0.10249405387E+03  0.16335853253E+03  0.12508506823E+03 0.  0.
          5    1    3    3  502    0  0.62703185320E+02  0.10650979405E+02  0.36770128790E+02  0.73584288967E+02  0.41800000000E+01 0.  1.
         -5    1    3    3    0  502 -0.52352767789E+02 -0.31328833122E+02  0.65723925077E+02  0.89774243564E+02  0.41800000000E+01 0.  1.
        -11    1    1    2    0    0  0.22139198237E+02 -0.32852841618E+02  0.20734515526E+02  0.44714353792E+02  0.00000000000E+00 0. -1.
         11    1    1    2    0    0 -0.32489615768E+02  0.53530695334E+02  0.26061051744E+02  0.67825429550E+02  0.00000000000E+00 0.  1.
</event>
<event>
 7    1  0.2810263E-009  0.9710614E+02  0.7561462E-02  0.1286502E+00
          1   -1    0    0  501    0  0.00000000000E+00  0.00000000000E+00  0.48796122126E+03  0.48796122126E+03  0.00000000000E+00 0. -1.
         -1   -1    0    0    0  501 -0.00000000000E+00 -0.00000000000E+00 -0.34304997888E+02  0.34304997888E+02  0.00000000000E+00 0.  1.
         25    2    1    2    0    0  0.82686414681E+01  0.69344761828E+02  0.24992284865E+03  0.28807103496E+03  0.12508566856E+03 0.  0.
          5    1    3    3  502    0  0.30388124406E+02  0.60728815423E+02  0.25458629574E+03  0.26352055234E+03  0.41800000000E+01 0.  1.
         -5    1    3    3    0  502 -0.22119482938E+02  0.86159464045E+01 -0.46634470893E+01  0.24550482615E+02  0.41800000000E+01 0.  1.
        -11    1    1    2    0    0 -0.41438658826E+02 -0.34008276957E+02  0.51132041021E+02  0.74082460582E+02  0.00000000000E+00 0.  1.
         11    1    1    2    0    0  0.33170017358E+02 -0.35336484871E+02  0.15260133370E+03  0.16011272360E+03  0.00000000000E+00 0. -1.
</event>
<event>
 7    1  0.2810263E-009  0.1098261E+03  0.7561462E-02  0.1260892E+00
         -2   -1    0    0    0  501 -0.00000000000E+00  0.00000000000E+00  0.44708388368E+03  0.44708388368E+03  0.00000000000E+00 0. -1.
          2   -1    0    0  501    0  0.00000000000E+00 -0.00000000000E+00 -0.44869926558E+02  0.44869926558E+02  0.00000000000E+00 0.  1.
         25    2    1    2    0    0  0.22805204926E+02 -0.74501433798E+02  0.13963093261E+03  0.20301678949E+03  0.12509387860E+03 0.  0.
          5    1    3    3  502    0 -0.10265933344E+02 -0.96772528781E+02  0.12881015263E+03  0.16149253709E+03  0.41800000000E+01 0.  1.
         -5    1    3    3    0  502  0.33071138270E+02  0.22271094983E+02  0.10820779973E+02  0.41524252400E+02  0.41800000000E+01 0.  1.
        -11    1    1    2    0    0 -0.15488221251E+02  0.12996242806E+02  0.11328781160E+01  0.20250203392E+02  0.00000000000E+00 0.  1.
         11    1    1    2    0    0 -0.73169836754E+01  0.61505190992E+02  0.26145014640E+03  0.26868681736E+03  0.00000000000E+00 0. -1.
</event>
<event>
 7    1  0.2810263E-009  0.1052297E+03  0.7561462E-02  0.1269668E+00
         -2   -1    0    0    0  501 -0.00000000000E+00  0.00000000000E+00  0.10110614523E+03  0.10110614523E+03  0.00000000000E+00 0.  1.
          2   -1    0    0  501    0  0.00000000000E+00 -0.00000000000E+00 -0.19165385737E+03  0.19165385737E+03  0.00000000000E+00 0. -1.
         25    2    1    2    0    0 -0.49790243857E+02 -0.25193604456E+02  0.21707761399E+02  0.13867502724E+03  0.12508297320E+03 0.  0.
          5    1    3    3  502    0  0.16851831196E+02 -0.58188891904E+02  0.20804952563E+02  0.64189172037E+02  0.41800000000E+01 0. -1.
         -5    1    3    3    0  502 -0.66642075053E+02  0.32995287448E+02  0.90280883607E+00  0.74485855200E+02  0.41800000000E+01 0. -1.
        -11    1    1    2    0    0 -0.80956672891E+01  0.14183477157E+02  0.94482077967E+01  0.18867418575E+02  0.00000000000E+00 0.  1.
         11    1    1    2    0    0  0.57885911146E+02  0.11010127299E+02 -0.12170368134E+03  0.13521755679E+03  0.00000000000E+00 0. -1.
</event>
<event>
 7    1  0.2810263E-009  0.1134236E+03  0.7561462E-02  0.1254358E+00
          1   -1    0    0  501    0  0.00000000000E+00  0.00000000000E+00  0.11911026796E+04  0.11911026796E+04  0.00000000000E+00 0. -1.
         -1   -1    0    0    0  501 -0.00000000000E+00 -0.00000000000E+00 -0.38446352818E+02  0.38446352818E+02  0.00000000000E+00 0.  1.
         25    2    1    2    0    0  0.57962812051E+02 -0.57638701330E+02  0.10751689821E+04  0.10855039279E+04  0.12509408468E+03 0.  0.
          5    1    3    3  502    0  0.85538097463E+02 -0.67734252890E+01  0.77777860692E+03  0.78250858090E+03  0.41800000000E+01 0.  1.
         -5    1    3    3    0  502 -0.27575285412E+02 -0.50865276041E+02  0.29739037520E+03  0.30299534705E+03  0.41800000000E+01 0.  1.
        -11    1    1    2    0    0 -0.44049752190E+02  0.34590838339E+02 -0.59961114567E+01  0.56328146761E+02  0.00000000000E+00 0.  1.
         11    1    1    2    0    0 -0.13913059861E+02  0.23047862991E+02  0.83483456132E+02  0.87716957716E+02  0.00000000000E+00 0. -1.
</event>
<event>
 7    1  0.2810263E-009  0.1063601E+03  0.7561462E-02  0.1267463E+00
         -2   -1    0    0    0  501 -0.00000000000E+00  0.00000000000E+00  0.27822525449E+02  0.27822525449E+02  0.00000000000E+00 0.  1.
          2   -1    0    0  501    0  0.00000000000E+00 -0.00000000000E+00 -0.75263795743E+03  0.75263795743E+03  0.00000000000E+00 0. -1.
         25    2    1    2    0    0 -0.18539500277E+02  0.15182075825E+02 -0.62949642213E+03  0.64225224471E+03  0.12509193363E+03 0.  0.
          5    1    3    3  502    0 -0.19596128115E+02  0.63631844202E+02 -0.48996059629E+03  0.49448142346E+03  0.41800000000E+01 0.  1.
         -5    1    3    3    0  502  0.10566278383E+01 -0.48449768378E+02 -0.13953582585E+03  0.14777082125E+03  0.41800000000E+01 0.  1.
        -11    1    1    2    0    0  0.52305504143E+02  0.12414169296E+02 -0.68258178628E+02  0.86885880974E+02  0.00000000000E+00 0.  1.
         11    1    1    2    0    0 -0.33766003867E+02 -0.27596245120E+02 -0.27060831222E+02  0.51322357198E+02  0.00000000000E+00 0. -1.
</event>
<event>
 7    1  0.2810263E-009  0.8616603E+02  0.7561462E-02  0.1312411E+00
          1   -1    0    0  501    0  0.00000000000E+00  0.00000000000E+00  0.45641618343E+03  0.45641618343E+03  0.00000000000E+00 0. -1.
         -1   -1    0    0    0  501 -0.00000000000E+00 -0.00000000000E+00 -0.34600473362E+02  0.34600473362E+02  0.00000000000E+00 0.  1.
         25    2    1    2    0    0 -0.14049880238E+02  0.30722217244E+02  0.33692109969E+03  0.36097746856E+03  0.12509057368E+03 0.  0.
          5    1    3    3  502    0  0.49036063626E+02  0.14635768686E+01  0.73258736995E+02  0.88266599228E+02  0.41800000000E+01 0. -1.
         -5    1    3    3    0  502 -0.63085943864E+02  0.29258640375E+02  0.26366236269E+03  0.27271086933E+03  0.41800000000E+01 0. -1.
        -11    1    1    2    0    0 -0.14831301558E+02 -0.10649583316E+02 -0.15318319497E+02  0.23833422811E+02  0.00000000000E+00 0.  1.
         11    1    1    2    0    0  0.28881181796E+02 -0.20072633928E+02  0.10021292988E+03  0.10620576543E+03  0.00000000000E+00 0. -1.
</event>
<event>
 7    1  0.2810263E-009  0.1332853E+03  0.7561462E-02  0.1222661E+00
          1   -1    0    0  501    0  0.00000000000E+00  0.00000000000E+00  0.34747326050E+03  0.34747326050E+03  0.00000000000E+00 0. -1.
         -1   -1    0    0    0  501 -0.00000000000E+00 -0.00000000000E+00 -0.86498031924E+02  0.86498031924E+02  0.00000000000E+00 0.  1.
         25    2    1    2    0    0 -0.78603257571E+02 -0.88535301335E+02  0.55684465439E+02  0.18101574790E+03  0.12509584171E+03 0.  0.
          5    1    3    3  502    0 -0.85394448834E+02 -0.36086306505E+02  0.80125133962E+02  0.12260482414E+03  0.41800000000E+01 0. -1.
         -5    1    3    3    0  502  0.67911912634E+01 -0.52448994830E+02 -0.24440668523E+02  0.58410923766E+02  0.41800000000E+01 0. -1.
        -11    1    1    2    0    0  0.54553716176E+02  0.76128768155E+02  0.75288879266E+02  0.12016701973E+03  0.00000000000E+00 0.  1.
         11    1    1    2    0    0  0.24049541395E+02  0.12406533180E+02  0.13000188387E+03  0.13278852479E+03  0.00000000000E+00 0. -1.
</event>
<event>
 7    1  0.2810263E-009  0.1085278E+03  0.7561462E-02  0.1263321E+00
          1   -1    0    0  501    0  0.00000000000E+00  0.00000000000E+00  0.43904964097E+02  0.43904964097E+02  0.00000000000E+00 0. -1.
         -1   -1    0    0    0  501 -0.00000000000E+00 -0.00000000000E+00 -0.30957566306E+03  0.30957566306E+03  0.00000000000E+00 0.  1.
         25    2    1    2    0    0  0.33646165813E+02  0.27210132713E+02 -0.16108149181E+03  0.20848739288E+03  0.12508912898E+03 0.  0.
          5    1    3    3  502    0 -0.11592644641E+02 -0.36861061966E+02 -0.13209165953E+02  0.41049747431E+02  0.41800000000E+01 0.  1.
         -5    1    3    3    0  502  0.45238810455E+02  0.64071194679E+02 -0.14787232586E+03  0.16743764545E+03  0.41800000000E+01 0.  1.
        -11    1    1    2    0    0 -0.34841497580E+02 -0.58630770802E+02 -0.79652440557E+02  0.10486185448E+03  0.00000000000E+00 0.  1.
         11    1    1    2    0    0  0.11953317665E+01  0.31420638089E+02 -0.24936766590E+02  0.40131379791E+02  0.00000000000E+00 0. -1.
</event>
<event>
 7    1  0.2810263E-009  0.9391316E+02  0.7561462E-02  0.1293643E+00
         -2   -1    0    0    0  501 -0.00000000000E+00  0.00000000000E+00  0.49261631204E+02  0.49261631204E+02  0.00000000000E+00 0.  1.
          2   -1    0    0  501    0  0.00000000000E+00 -0.00000000000E+00 -0.32808221204E+03  0.32808221204E+03  0.00000000000E+00 0. -1.
         25    2    1    2    0    0  0.77681145422E+01  0.65861062904E+02 -0.15547627152E+03  0.21027545170E+03  0.12507946023E+03 0.  0.
          5    1    3    3  502    0  0.20247177300E+02  0.32365143322E+01 -0.14369109829E+03  0.14520684330E+03  0.41800000000E+01 0. -1.
         -5    1    3    3    0  502 -0.12479062758E+02  0.62624548571E+02 -0.11785173231E+02  0.65068608401E+02  0.41800000000E+01 0. -1.
        -11    1    1    2    0    0  0.32997765110E+02 -0.48357522582E+02 -0.34993742015E+02  0.68204578092E+02  0.00000000000E+00 0.  1.
         11    1    1    2    0    0 -0.40765879652E+02 -0.17503540322E+02 -0.88350567300E+02  0.98863813450E+02  0.00000000000E+00 0. -1.
</event>
<event>
 7    1  0.2810263E-009  0.1364034E+03  0.7561462E-02  0.1218252E+00
         -1   -1    0    0    0  501 -0.00000000000E+00  0.00000000000E+00  0.55594608925E+02  0.55594608925E+02  0.00000000000E+00 0.  1.
          1   -1    0    0  501    0  0.00000000000E+00 -0.00000000000E+00 -0.47997026710E+03  0.47997026710E+03  0.00000000000E+00 0. -1.
         25    2    1    2    0    0 -0.50357830359E+02 -0.77349485892E+02 -0.95989012616E+02  0.18270131465E+03  0.12508807211E+03 0.  0.
          5    1    3    3  502    0 -0.89924007762E+02 -0.61797207671E+02 -0.85583139593E+02  0.13873416389E+03  0.41800000000E+01 0. -1.
         -5    1    3    3    0  502  0.39566177403E+02 -0.15552278221E+02 -0.10405873023E+02  0.43967150755E+02  0.41800000000E+01 0. -1.
        -11    1    1    2    0    0  0.22049532489E+02 -0.13422745192E+02 -0.13404853060E+03  0.13651139340E+03  0.00000000000E+00 0. -1.
         11    1    1    2    0    0  0.28308297870E+02  0.90772231084E+02 -0.19433811496E+03  0.21635216799E+03  0.00000000000E+00 0.  1.
</event>
<event>
 7    1  0.2810263E-009  0.1331390E+03  0.7561462E-02  0.1222871E+00
         -2   -1    0    0    0  501 -0.00000000000E+00  0.00000000000E+00  0.39208583661E+02  0.39208583661E+02  0.00000000000E+00 0.  1.
          2   -1    0    0  501    0  0.00000000000E+00 -0.00000000000E+00 -0.52280742779E+03  0.52280742779E+03  0.00000000000E+00 0. -1.
         25    2    1    2    0    0  0.50554335433E+02 -0.68865215761E+02 -0.19234320958E+03  0.24482969021E+03  0.12509000024E+03 0.  0.
          5    1    3    3  502    0  0.35380199204E+01  0.35964382421E+02 -0.41936269988E+02  0.55516461778E+02  0.41800000000E+01 0.  1.
         -5    1    3    3    0  502  0.47016315513E+02 -0.10482959818E+03 -0.15040693960E+03  0.18931322843E+03  0.41800000000E+01 0.  1.
        -11    1    1    2    0    0 -0.36331675684E+02 -0.76320076657E+01 -0.16299991682E+03  0.16717419383E+03  0.00000000000E+00 0. -1.
         11    1    1    2    0    0 -0.14222659750E+02  0.76497223427E+02 -0.12825571772E+03  0.15001212741E+03  0.00000000000E+00 0.  1.
</event>
<event>
 7    1  0.2810263E-009  0.2703955E+03  0.7561462E-02  0.1101053E+00
          2   -1    0    0  501    0  0.00000000000E+00  0.00000000000E+00  0.18685711748E+04  0.18685711748E+04  0.00000000000E+00 0. -1.
         -2   -1    0    0    0  501 -0.00000000000E+00 -0.00000000000E+00 -0.40601557757E+02  0.40601557757E+02  0.00000000000E+00 0.  1.
         25    2    1    2    0    0 -0.23501988367E+03 -0.91953999757E+02  0.98248547447E+03  0.10220637322E+04  0.12508669500E+03 0.  0.
          5    1    3    3  502    0 -0.59817611978E+02 -0.81523369326E+02  0.45538780087E+03  0.46649729692E+03  0.41800000000E+01 0. -1.
         -5    1    3    3    0  502 -0.17520227169E+03 -0.10430630431E+02  0.52709767359E+03  0.55556643524E+03  0.41800000000E+01 0. -1.
        -11    1    1    2    0    0  0.80867409119E+02 -0.64823605887E+01  0.19022111115E+03  0.20679852510E+03  0.00000000000E+00 0. -1.
         11    1    1    2    0    0  0.15415247455E+03  0.98436360345E+02  0.65526303144E+03  0.68031047532E+03  0.00000000000E+00 0.  1.
</event>
<event>
 7    1  0.2810263E-009  0.9860524E+02  0.7561462E-02  0.1283257E+00
         -1   -1    0    0    0  501 -0.00000000000E+00  0.00000000000E+00  0.44870430647E+03  0.44870430647E+03  0.00000000000E+00 0.  1.
          1   -1    0    0  501    0  0.00000000000E+00 -0.00000000000E+00 -0.57849313757E+02  0.57849313757E+02  0.00000000000E+00 0. -1.
         25    2    1    2    0    0 -0.49519498251E+02 -0.44130441633E+02  0.36396413862E+03  0.39053437368E+03  0.12509007251E+03 0.  0.
          5    1    3    3  502    0  0.19154270977E+02 -0.16208646590E+02  0.76458317779E+01  0.26561955209E+02  0.41800000000E+01 0.  1.
         -5    1    3    3    0  502 -0.68673769227E+02 -0.27921795043E+02  0.35631830684E+03  0.36397241848E+03  0.41800000000E+01 0.  1.
        -11    1    1    2    0    0 -0.11745179204E+02  0.33295672475E+02  0.39030970857E+02  0.52630482861E+02  0.00000000000E+00 0.  1.
         11    1    1    2    0    0  0.61264677455E+02  0.10834769157E+02 -0.12140116765E+02  0.63388763684E+02  0.00000000000E+00 0. -1.
</event>
<event>
 7    1  0.2810263E-009  0.8044039E+02  0.7561462E-02  0.1327806E+00
         -3   -1    0    0    0  501 -0.00000000000E+00  0.00000000000E+00  0.84967533263E+02  0.84967533263E+02  0.00000000000E+00 0.  1.
          3   -1    0    0  501    0  0.00000000000E+00 -0.00000000000E+00 -0.16787336812E+03  0.16787336812E+03  0.00000000000E+00 0. -1.
         25    2    1    2    0    0  0.26837071633E+02  0.87399881429E+01 -0.22571427312E+01  0.12825224690E+03  0.12508768259E+03 0.  0.
          5    1    3    3  502    0  0.50068488068E+02  0.43429378775E+02 -0.34963312965E+02  0.75052448939E+02  0.41800000000E+01 0.  1.
         -5    1    3    3    0  502 -0.23231416435E+02 -0.34689390632E+02  0.32706170234E+02  0.53199797964E+02  0.41800000000E+01 0.  1.
        -11    1    1    2    0    0 -0.30182574351E+02 -0.22947236099E+02  0.45151475667E+01  0.38183111406E+02  0.00000000000E+00 0.  1.
         11    1    1    2    0    0  0.33455027181E+01  0.14207247956E+02 -0.85163839696E+02  0.86405543078E+02  0.00000000000E+00 0. -1.
</event>
<event>
 7    1  0.2810263E-009  0.2460336E+03  0.7561462E-02  0.1115837E+00
         -2   -1    0    0    0  501 -0.00000000000E+00  0.00000000000E+00  0.10023039287E+03  0.10023039287E+03  0.00000000000E+00 0.  1.
          2   -1    0    0  501    0  0.00000000000E+00 -0.00000000000E+00 -0.11670538601E+04  0.11670538601E+04  0.00000000000E+00 0. -1.
         25    2    1    2    0    0 -0.67535641641E+02  0.22820654702E+03 -0.94409460878E+03  0.98163207755E+03  0.12509042469E+03 0.  0.
          5    1    3    3  502    0 -0.26321957614E+02  0.40220437016E+02 -0.60867857792E+02  0.77671729211E+02  0.41800000000E+01 0. -1.
         -5    1    3    3    0  502 -0.41213684027E+02  0.18798611000E+03 -0.88322675099E+03  0.90396034834E+03  0.41800000000E+01 0. -1.
        -11    1    1    2    0    0  0.72464678464E+02 -0.10255433478E+03 -0.93478122434E+02  0.15654609731E+03  0.00000000000E+00 0.  1.
         11    1    1    2    0    0 -0.49290368223E+01 -0.12565221223E+03 -0.29250735981E+02  0.12910607809E+03  0.00000000000E+00 0. -1.
</event>
<event>
 7    1  0.2810263E-009  0.1009148E+03  0.7561462E-02  0.1278384E+00
          3   -1    0    0  501    0  0.00000000000E+00  0.00000000000E+00  0.30936440486E+02  0.30936440486E+02  0.00000000000E+00 0. -1.
         -3   -1    0    0    0  501 -0.00000000000E+00 -0.00000000000E+00 -0.68463342961E+03  0.68463342961E+03  0.00000000000E+00 0.  1.
         25    2    1    2    0    0  0.36705224010E+02  0.54569388283E+02 -0.53704907547E+03  0.55533248197E+03  0.12508942583E+03 0.  0.
          5    1    3    3  502    0  0.56676688886E+02 -0.33505956884E+01 -0.10968450289E+03  0.12357846143E+03  0.41800000000E+01 0. -1.
         -5    1    3    3    0  502 -0.19971464877E+02  0.57919983971E+02 -0.42736457258E+03  0.43175402054E+03  0.41800000000E+01 0. -1.
        -11    1    1    2    0    0 -0.31575082200E+02 -0.30553387165E+01 -0.10143473701E+03  0.10627947489E+03  0.00000000000E+00 0.  1.
         11    1    1    2    0    0 -0.51301418100E+01 -0.51514049566E+02 -0.15213176641E+02  0.53957913240E+02  0.00000000000E+00 0. -1.
</event>
<event>
 7    1  0.2810263E-009  0.1401503E+03  0.7561462E-02  0.1213127E+00
         -1   -1    0    0    0  501 -0.00000000000E+00  0.00000000000E+00  0.71155081347E+02  0.71155081347E+02  0.00000000000E+00 0.  1.
          1   -1    0    0  501    0  0.00000000000E+00 -0.00000000000E+00 -0.43761799326E+03  0.43761799326E+03  0.00000000000E+00 0. -1.
         25    2    1    2    0    0  0.41087028640E+02  0.13217381462E+03 -0.18876649927E+03  0.26540377216E+03  0.12509320461E+03 0.  0.
          5    1    3    3  502    0  0.41071389975E+02  0.84649239861E+02 -0.19571133958E+03  0.21719289520E+03  0.41800000000E+01 0. -1.
         -5    1    3    3    0  502  0.15638664935E-01  0.47524574758E+02  0.69448403168E+01  0.48210876962E+02  0.41800000000E+01 0. -1.
        -11    1    1    2    0    0 -0.63930756197E+01 -0.20383725087E+02 -0.10145277898E+03  0.10367754833E+03  0.00000000000E+00 0.  1.
         11    1    1    2    0    0 -0.34693953020E+02 -0.11179008953E+03 -0.76243633665E+02  0.13969175412E+03  0.00000000000E+00 0. -1.
</event>
<event>
 7    1  0.2810263E-009  0.9644096E+02  0.7561462E-02  0.1287963E+00
         -2   -1    0    0    0  501 -0.00000000000E+00  0.00000000000E+00  0.10541453333E+03  0.10541453333E+03  0.00000000000E+00 0.  1.
          2   -1    0    0  501    0  0.00000000000E+00 -0.00000000000E+00 -0.11584895126E+03  0.11584895126E+03  0.00000000000E+00 0. -1.
         25    2    1    2    0    0  0.17503804184E+02  0.30674202759E+01  0.29521906839E+02  0.12974785607E+03  0.12508865234E+03 0.  0.
          5    1    3    3  502    0 -0.44053648346E+02 -0.19151296362E+02  0.40853733749E+02  0.63198069956E+02  0.41800000000E+01 0.  1.
         -5    1    3    3    0  502  0.61557452530E+02  0.22218716637E+02 -0.11331826909E+02  0.66549786116E+02  0.41800000000E+01 0.  1.
        -11    1    1    2    0    0  0.33884416401E+01 -0.38125006862E+02 -0.32103240419E+02  0.49956138065E+02  0.00000000000E+00 0. -1.
         11    1    1    2    0    0 -0.20892245824E+02  0.35057586586E+02 -0.78530843582E+01  0.41559490453E+02  0.00000000000E+00 0.  1.
</event>
<event>
 7    1  0.2810263E-009  0.1186936E+03  0.7561462E-02  0.1245268E+00
          2   -1    0    0  501    0  0.00000000000E+00  0.00000000000E+00  0.30043053685E+03  0.30043053685E+03  0.00000000000E+00 0. -1.
         -2   -1    0    0    0  501 -0.00000000000E+00 -0.00000000000E+00 -0.70079242621E+02  0.70079242621E+02  0.00000000000E+00 0.  1.
         25    2    1    2    0    0 -0.86435973782E+02 -0.24043092285E+02  0.75225027551E+02  0.17133445711E+03  0.12508974207E+03 0.  0.
          5    1    3    3  502    0 -0.63653436985E+02  0.38227919874E+02  0.73958308879E+02  0.10488297169E+03  0.41800000000E+01 0. -1.
         -5    1    3    3    0  502 -0.22782536797E+02 -0.62271012159E+02  0.12667186724E+01  0.66451485420E+02  0.41800000000E+01 0. -1.
        -11    1    1    2    0    0  0.44687548532E+02 -0.60787958178E+01  0.13758539738E+03  0.14478836391E+03  0.00000000000E+00 0. -1.
         11    1    1    2    0    0  0.41748425250E+02  0.30121888103E+02  0.17540869299E+02  0.54386958451E+02  0.00000000000E+00 0.  1.
</event>
<event>
 7    1  0.2810263E-009  0.2363063E+03  0.7561462E-02  0.1122278E+00
         -1   -1    0    0    0  501 -0.00000000000E+00  0.00000000000E+00  0.20104050983E+03  0.20104050983E+03  0.00000000000E+00 0.  1.
          1   -1    0    0  501    0  0.00000000000E+00 -0.00000000000E+00 -0.38166688970E+03  0.38166688970E+03  0.00000000000E+00 0. -1.
         25    2    1    2    0    0 -0.97296018330E+02 -0.21243457005E+03  0.15229011737E+02  0.26547062601E+03  0.12509104180E+03 0.  0.
          5    1    3    3  502    0 -0.18777666094E+02 -0.19428344970E+02  0.47276050981E+02  0.54612807368E+02  0.41800000000E+01 0. -1.
         -5    1    3    3    0  502 -0.78518352236E+02 -0.19300622508E+03 -0.32047039244E+02  0.21085781864E+03  0.41800000000E+01 0. -1.
        -11    1    1    2    0    0  0.73583323599E+02  0.19179616357E+03 -0.12692165361E+03  0.24147335262E+03  0.00000000000E+00 0.  1.
         11    1    1    2    0    0  0.23712694731E+02  0.20638406486E+02 -0.68933737986E+02  0.75763420900E+02  0.00000000000E+00 0. -1.
</event>
<event>
 7    1  0.2810263E-009  0.1660495E+03  0.7561462E-02  0.1182031E+00
          1   -1    0    0  501    0  0.00000000000E+00  0.00000000000E+00  0.17057547829E+03  0.17057547829E+03  0.00000000000E+00 0. -1.
         -1   -1    0    0    0  501 -0.00000000000E+00 -0.00000000000E+00 -0.20285075690E+03  0.20285075690E+03  0.00000000000E+00 0.  1.
         25    2    1    2    0    0  0.12324821875E+03 -0.71133943529E+02 -0.71888840167E+02  0.20264666016E+03  0.12508997637E+03 0.  0.
          5    1    3    3  502    0  0.81756998859E+02  0.52326366597E+01 -0.80848292300E+02  0.11517597890E+03  0.41800000000E+01 0. -1.
         -5    1    3    3    0  502  0.41491219889E+02 -0.76366580188E+02  0.89594521331E+01  0.87470681260E+02  0.41800000000E+01 0. -1.
        -11    1    1    2    0    0  0.54960134209E+01  0.26087520450E+02  0.19220017274E+02  0.32865999920E+02  0.00000000000E+00 0. -1.
         11    1    1    2    0    0 -0.12874423217E+03  0.45046423079E+02  0.20393544279E+02  0.13791357510E+03  0.00000000000E+00 0.  1.
</event>
<event>
 7    1  0.4816559E-009  0.9616939E+02  0.7561462E-02  0.1288564E+00
         -1   -1    0    0    0  501 -0.00000000000E+00  0.00000000000E+00  0.12911674311E+02  0.12911674311E+02  0.00000000000E+00 0.  1.
          1   -1    0    0  501    0  0.00000000000E+00 -0.00000000000E+00 -0.17179348738E+04  0.17179348738E+04  0.00000000000E+00 0. -1.
         25    2    1    2    0    0 -0.25059319056E+02 -0.33619499530E+02 -0.14659236137E+04  0.14718491211E+04  0.12509817710E+03 0.  0.
          5    1    3    3  502    0  0.11968020135E+02  0.41269221829E+02 -0.71005534068E+03  0.71136660127E+03  0.41800000000E+01 0.  1.
         -5    1    3    3    0  502 -0.37027339191E+02 -0.74888721358E+02 -0.75586827304E+03  0.76048251986E+03  0.41800000000E+01 0.  1.
        -11    1    1    2    0    0 -0.15500415179E+02  0.11662185106E+02 -0.45075348234E+01  0.19914499802E+02  0.00000000000E+00 0.  1.
         11    1    1    2    0    0  0.40559734236E+02  0.21957314424E+02 -0.23459205093E+03  0.23908292716E+03  0.00000000000E+00 0. -1.
</event>
<event>
 7    1  0.2810263E-009  0.7685052E+02  0.7561462E-02  0.1338234E+00
          2   -1    0    0  501    0  0.00000000000E+00  0.00000000000E+00  0.37252997416E+03  0.37252997416E+03  0.00000000000E+00 0. -1.
         -2   -1    0    0    0  501 -0.00000000000E+00 -0.00000000000E+00 -0.44734484797E+02  0.44734484797E+02  0.00000000000E+00 0.  1.
         25    2    1    2    0    0  0.14524816385E+02  0.39410858103E+02  0.90887666513E+02  0.16022419200E+03  0.12508811994E+03 0.  0.
          5    1    3    3  502    0 -0.11232307242E+02  0.24134499673E+02  0.11712874980E+03  0.12018841554E+03  0.41800000000E+01 0. -1.
         -5    1    3    3    0  502  0.25757123627E+02  0.15276358430E+02 -0.26241083287E+02  0.40035776457E+02  0.41800000000E+01 0. -1.
        -11    1    1    2    0    0 -0.48191276620E+02 -0.40327557060E+02  0.18288143566E+03  0.19337613738E+03  0.00000000000E+00 0.  1.
         11    1    1    2    0    0  0.33666460235E+02  0.91669895649E+00  0.54026387193E+02  0.63664129578E+02  0.00000000000E+00 0. -1.
</event>
<event>
 7    1  0.2810263E-009  0.1203270E+03  0.7561462E-02  0.1242559E+00
          4   -1    0    0  501    0  0.00000000000E+00  0.00000000000E+00  0.84266912474E+02  0.84266912474E+02  0.00000000000E+00 0. -1.
         -4   -1    0    0    0  501 -0.00000000000E+00 -0.00000000000E+00 -0.29599092070E+03  0.29599092070E+03  0.00000000000E+00 0.  1.
         25    2    1    2    0    0  0.39248827356E+02 -0.52238867068E+02 -0.23688973961E+03  0.27574221528E+03  0.12509057067E+03 0.  0.
          5    1    3    3  502    0 -0.28458294694E+01  0.39026462705E+02 -0.83526682018E+02  0.92332781533E+02  0.41800000000E+01 0.  1.
         -5    1    3    3    0  502  0.42094656825E+02 -0.91265329773E+02 -0.15336305759E+03  0.18340943374E+03  0.41800000000E+01 0.  1.
        -11    1    1    2    0    0 -0.13191185887E+02 -0.19975111613E+02  0.11424119388E+02  0.26524007481E+02  0.00000000000E+00 0.  1.
         11    1    1    2    0    0 -0.26057641469E+02  0.72213978681E+02  0.13741611994E+02  0.77991610420E+02  0.00000000000E+00 0. -1.
</event>
<event>
 7    1  0.2810263E-009  0.3044324E+03  0.7561462E-02  0.1083046E+00
          2   -1    0    0  501    0  0.00000000000E+00  0.00000000000E+00  0.63264332723E+03  0.63264332723E+03  0.00000000000E+00 0. -1.
         -2   -1    0    0    0  501 -0.00000000000E+00 -0.00000000000E+00 -0.21517707905E+03  0.21517707905E+03  0.00000000000E+00 0.  1.
         25    2    1    2    0    0 -0.23720184779E+03 -0.17483763058E+03 -0.10267003823E+02  0.32029062197E+03  0.12509099686E+03 0.  0.
          5    1    3    3  502    0 -0.26434396163E+02 -0.77107167873E+02  0.24786907411E+02  0.85300385796E+02  0.41800000000E+01 0.  1.
         -5    1    3    3    0  502 -0.21076745162E+03 -0.97730462710E+02 -0.35053911234E+02  0.23499023618E+03  0.41800000000E+01 0.  1.
        -11    1    1    2    0    0  0.48814704195E+02  0.41680476167E+02  0.37877453605E+02  0.74530791829E+02  0.00000000000E+00 0.  1.
         11    1    1    2    0    0  0.18838714359E+03  0.13315715442E+03  0.38985579840E+03  0.45299899248E+03  0.00000000000E+00 0. -1.
</event>
<event>
 7    1  0.2810263E-009  0.1020883E+03  0.7561462E-02  0.1275965E+00
         -2   -1    0    0    0  501 -0.00000000000E+00  0.00000000000E+00  0.78069769682E+02  0.78069769682E+02  0.00000000000E+00 0.  1.
          2   -1    0    0  501    0  0.00000000000E+00 -0.00000000000E+00 -0.25915699311E+03  0.25915699311E+03  0.00000000000E+00 0. -1.
         25    2    1    2    0    0 -0.50932278719E+02 -0.73903902618E+02 -0.11803847540E+03  0.19399869703E+03  0.12508608610E+03 0.  0.
          5    1    3    3  502    0 -0.28214038335E+02 -0.83955762772E+02 -0.17534369123E+02  0.90385444416E+02  0.41800000000E+01 0. -1.
         -5    1    3    3    0  502 -0.22718240383E+02  0.10051860154E+02 -0.10050410628E+03  0.10361325261E+03  0.41800000000E+01 0. -1.
        -11    1    1    2    0    0  0.13129389329E+02  0.12025443279E+02  0.24032629309E+02  0.29909186243E+02  0.00000000000E+00 0.  1.
         11    1    1    2    0    0  0.37802889390E+02  0.61878459339E+02 -0.87081377337E+02  0.11331887952E+03  0.00000000000E+00 0. -1.
</event>
<event>
 7    1  0.2810263E-009  0.1000396E+03  0.7561462E-02  0.1280213E+00
         -1   -1    0    0    0  501 -0.00000000000E+00  0.00000000000E+00  0.19334885396E+02  0.19334885396E+02  0.00000000000E+00 0.  1.
          1   -1    0    0  501    0  0.00000000000E+00 -0.00000000000E+00 -0.76916078154E+03  0.76916078154E+03  0.00000000000E+00 0. -1.
         25    2    1    2    0    0 -0.25772726254E+02 -0.14809052376E+02 -0.27057477920E+03  0.29956922627E+03  0.12508984267E+03 0.  0.
          5    1    3    3  502    0 -0.34513655478E+02 -0.53526589742E+02 -0.24253486163E+03  0.25079258308E+03  0.41800000000E+01 0.  1.
         -5    1    3    3    0  502  0.87409292242E+01  0.38717537366E+02 -0.28039917569E+02  0.48776643188E+02  0.41800000000E+01 0.  1.
        -11    1    1    2    0    0 -0.33506276792E+02 -0.49206079630E+01 -0.19145336849E+03  0.19442550057E+03  0.00000000000E+00 0. -1.
         11    1    1    2    0    0  0.59279003047E+02  0.19729660339E+02 -0.28779774846E+03  0.29450094010E+03  0.00000000000E+00 0.  1.
</event>
<event>
 7    1  0.2810263E-009  0.2319870E+03  0.7561462E-02  0.1125249E+00
          2   -1    0    0  501    0  0.00000000000E+00  0.00000000000E+00  0.14233611846E+04  0.14233611846E+04  0.00000000000E+00 0. -1.
         -2   -1    0    0    0  501 -0.00000000000E+00 -0.00000000000E+00 -0.65861256137E+02  0.65861256137E+02  0.00000000000E+00 0.  1.
         25    2    1    2    0    0 -0.21075804032E+03 -0.66442529834E+02  0.24981540705E+03  0.35621612728E+03  0.12509448591E+03 0.  0.
          5    1    3    3  502    0 -0.15910698498E+03 -0.28460854873E+02  0.24262840427E+03  0.29156657539E+03  0.41800000000E+01 0. -1.
         -5    1    3    3    0  502 -0.51651055341E+02 -0.37981674961E+02  0.71870027859E+01  0.64649551891E+02  0.41800000000E+01 0. -1.
        -11    1    1    2    0    0  0.14074607073E+03  0.86510343749E+02  0.74938907418E+03  0.76738352895E+03  0.00000000000E+00 0.  1.
         11    1    1    2    0    0  0.70011969587E+02 -0.20067813915E+02  0.35829544723E+03  0.36562278450E+03  0.00000000000E+00 0. -1.
</event>
<event>
 7    1  0.2810263E-009  0.1810449E+03  0.7561462E-02  0.1166796E+00
         -1   -1    0    0    0  501 -0.00000000000E+00  0.00000000000E+00  0.13860325843E+03  0.13860325843E+03  0.00000000000E+00 0.  1.
          1   -1    0    0  501    0  0.00000000000E+00 -0.00000000000E+00 -0.36790223233E+03  0.36790223233E+03  0.00000000000E+00 0. -1.
         25    2    1    2    0    0 -0.97151874805E+02  0.15034019636E+03 -0.23914529186E+02  0.21968221776E+03  0.12509080970E+03 0.  0.
          5    1    3    3  502    0 -0.34221262524E+02  0.50220017852E+02  0.51158459151E+02  0.79547503698E+02  0.41800000000E+01 0. -1.
         -5    1    3    3    0  502 -0.62930612281E+02  0.10012017851E+03 -0.75072988337E+02  0.14013471406E+03  0.41800000000E+01 0. -1.
        -11    1    1    2    0    0  0.89999314742E+02 -0.11119778016E+03 -0.20111588608E+03  0.24680442176E+03  0.00000000000E+00 0. -1.
         11    1    1    2    0    0  0.71525600635E+01 -0.39142416205E+02 -0.42685586323E+01  0.40018851241E+02  0.00000000000E+00 0.  1.
</event>
<event>
 7    1  0.2810263E-009  0.1207171E+03  0.7561462E-02  0.1241919E+00
         -4   -1    0    0    0  501 -0.00000000000E+00  0.00000000000E+00  0.61982782379E+03  0.61982782379E+03  0.00000000000E+00 0.  1.
          4   -1    0    0  501    0  0.00000000000E+00 -0.00000000000E+00 -0.24464568200E+02  0.24464568200E+02  0.00000000000E+00 0. -1.
         25    2    1    2    0    0 -0.52956487251E+02 -0.25101497303E+02  0.34162551897E+03  0.36849719884E+03  0.12509082953E+03 0.  0.
          5    1    3    3  502    0  0.13041580890E+02  0.41849004276E+02  0.10964182648E+03  0.11815339396E+03  0.41800000000E+01 0.  1.
         -5    1    3    3    0  502 -0.65998068141E+02 -0.66950501579E+02  0.23198369249E+03  0.25034380488E+03  0.41800000000E+01 0.  1.
        -11    1    1    2    0    0  0.68302031722E+02 -0.60516691818E+01  0.12633197469E+03  0.14374128867E+03  0.00000000000E+00 0.  1.
         11    1    1    2    0    0 -0.15345544471E+02  0.31153166485E+02  0.12740576193E+03  0.13205390448E+03  0.00000000000E+00 0. -1.
</event>
<event>
 7    1  0.2810263E-009  0.1490020E+03  0.7561462E-02  0.1201705E+00
         -2   -1    0    0    0  501 -0.00000000000E+00  0.00000000000E+00  0.16319225355E+03  0.16319225355E+03  0.00000000000E+00 0.  1.
          2   -1    0    0  501    0  0.00000000000E+00 -0.00000000000E+00 -0.14787766224E+03  0.14787766224E+03  0.00000000000E+00 0. -1.
         25    2    1    2    0    0 -0.22076093551E+02 -0.10692075788E+03  0.22192814209E+02  0.16750939900E+03  0.12508986921E+03 0.  0.
          5    1    3    3  502    0 -0.48047924160E+02 -0.57175908202E+00  0.31425220929E+02  0.57566890093E+02  0.41800000000E+01 0.  1.
         -5    1    3    3    0  502  0.25971830608E+02 -0.10634899880E+03 -0.92324067196E+01  0.10994250890E+03  0.41800000000E+01 0.  1.
        -11    1    1    2    0    0 -0.19775299756E+02  0.94520941365E+02  0.92885453696E+01  0.97013132678E+02  0.00000000000E+00 0.  1.
         11    1    1    2    0    0  0.41851393307E+02  0.12399816515E+02 -0.16166768275E+02  0.46547384114E+02  0.00000000000E+00 0. -1.
</event>
<event>
 7    1  0.2810263E-009  0.1350245E+03  0.7561462E-02  0.1220185E+00
         -2   -1    0    0    0  501 -0.00000000000E+00  0.00000000000E+00  0.30897037989E+02  0.30897037989E+02  0.00000000000E+00 0. -1.
          2   -1    0    0  501    0  0.00000000000E+00 -0.00000000000E+00 -0.75403444492E+03  0.75403444492E+03  0.00000000000E+00 0.  1.
         25    2    1    2    0    0 -0.10140679562E+03 -0.67894860454E+01 -0.48474393312E+03  0.51083633301E+03  0.12509053967E+03 0.  0.
          5    1    3    3  502    0 -0.45224448075E+02 -0.47587673973E+02 -0.37626227479E+03  0.38196938261E+03  0.41800000000E+01 0. -1.
         -5    1    3    3    0  502 -0.56182347547E+02  0.40798187928E+02 -0.10848165832E+03  0.12886695041E+03  0.41800000000E+01 0. -1.
        -11    1    1    2    0    0 -0.16481350379E+02  0.30449583688E+01 -0.38645513910E+02  0.42123418987E+02  0.00000000000E+00 0.  1.
         11    1    1    2    0    0  0.11788814600E+03  0.37445276766E+01 -0.19974795990E+03  0.23197173091E+03  0.00000000000E+00 0. -1.
</event>
<event>
 7    1  0.2810263E-009  0.2375867E+03  0.7561462E-02  0.1121411E+00
         -2   -1    0    0    0  501 -0.00000000000E+00  0.00000000000E+00  0.78504718264E+03  0.78504718264E+03  0.00000000000E+00 0.  1.
          2   -1    0    0  501    0  0.00000000000E+00 -0.00000000000E+00 -0.74679461768E+02  0.74679461768E+02  0.00000000000E+00 0. -1.
         25    2    1    2    0    0 -0.12747620381E+03 -0.16966410985E+03  0.29560288152E+03  0.38479034773E+03  0.12508579227E+03 0.  0.
          5    1    3    3  502    0 -0.11293233308E+03 -0.18841670691E+03  0.28068600624E+03  0.35645010001E+03  0.41800000000E+01 0. -1.
         -5    1    3    3    0  502 -0.14543870730E+02  0.18752597062E+02  0.14916875286E+02  0.28340247717E+02  0.41800000000E+01 0. -1.
        -11    1    1    2    0    0  0.79394563597E+02  0.32092038958E+02  0.15162633799E+03  0.17413771007E+03  0.00000000000E+00 0.  1.
         11    1    1    2    0    0  0.48081640217E+02  0.13757207089E+03  0.26313850136E+03  0.30079858662E+03  0.00000000000E+00 0. -1.
</event>
<event>
 7    1  0.2810263E-009  0.1470261E+03  0.7561462E-02  0.1204176E+00
          1   -1    0    0  501    0  0.00000000000E+00  0.00000000000E+00  0.54167834148E+03  0.54167834148E+03  0.00000000000E+00 0. -1.
         -1   -1    0    0    0  501 -0.00000000000E+00 -0.00000000000E+00 -0.60025047281E+02  0.60025047281E+02  0.00000000000E+00 0.  1.
         25    2    1    2    0    0 -0.86164885041E+02  0.11355014069E+03  0.20753865577E+03  0.28113838342E+03  0.12509386527E+03 0.  0.
          5    1    3    3  502    0  0.48796916113E+01  0.10521862038E+01  0.10142105727E+03  0.10162982704E+03  0.41800000000E+01 0.  1.
         -5    1    3    3    0  502 -0.91044576653E+02  0.11249795449E+03  0.10611759849E+03  0.17950855638E+03  0.41800000000E+01 0.  1.
        -11    1    1    2    0    0  0.22295872151E+02 -0.35290648972E+02  0.17175546470E+03  0.17675541144E+03  0.00000000000E+00 0. -1.
         11    1    1    2    0    0  0.63869012890E+02 -0.78259491721E+02  0.10235917374E+03  0.14380959391E+03  0.00000000000E+00 0.  1.
</event>
<event>
 7    1  0.2810263E-009  0.1348998E+03  0.7561462E-02  0.1220361E+00
          3   -1    0    0  501    0  0.00000000000E+00  0.00000000000E+00  0.68677267900E+02  0.68677267900E+02  0.00000000000E+00 0. -1.
         -3   -1    0    0    0  501 -0.00000000000E+00 -0.00000000000E+00 -0.29995416705E+03  0.29995416705E+03  0.00000000000E+00 0.  1.
         25    2    1    2    0    0 -0.78635892855E+02 -0.50141406436E+02 -0.12992393805E+03  0.20304701245E+03  0.12510034093E+03 0.  0.
          5    1    3    3  502    0 -0.30132756123E+02 -0.77331826270E+02 -0.12068049555E+03  0.14652456706E+03  0.41800000000E+01 0. -1.
         -5    1    3    3    0  502 -0.48503136732E+02  0.27190419834E+02 -0.92434425063E+01  0.56522445390E+02  0.41800000000E+01 0. -1.
        -11    1    1    2    0    0  0.32904577195E+02 -0.26122723762E+02 -0.33139188744E+02  0.53509940457E+02  0.00000000000E+00 0.  1.
         11    1    1    2    0    0  0.45731315660E+02  0.76264130198E+02 -0.68213772350E+02  0.11207448204E+03  0.00000000000E+00 0. -1.
</event>
<event>
 7    1  0.2810263E-009  0.1185379E+03  0.7561462E-02  0.1245529E+00
          1   -1    0    0  501    0  0.00000000000E+00  0.00000000000E+00  0.60710298030E+03  0.60710298030E+03  0.00000000000E+00 0. -1.
         -1   -1    0    0    0  501 -0.00000000000E+00 -0.00000000000E+00 -0.32486680621E+02  0.32486680621E+02  0.00000000000E+00 0.  1.
         25    2    1    2    0    0 -0.81863188663E+02  0.32668507164E+02  0.34874461347E+03  0.38084045859E+03  0.12509131246E+03 0.  0.
          5    1    3    3  502    0 -0.90474488025E+02  0.67204476279E+02  0.22031105838E+03  0.24750052416E+03  0.41800000000E+01 0. -1.
         -5    1    3    3    0  502  0.86112993626E+01 -0.34535969114E+02  0.12843355510E+03  0.13333993443E+03  0.41800000000E+01 0. -1.
        -11    1    1    2    0    0  0.21196860867E+02 -0.12050102820E+02  0.43803423187E+00  0.24386548804E+02  0.00000000000E+00 0.  1.
         11    1    1    2    0    0  0.60666327796E+02 -0.20618404344E+02  0.22543365197E+03  0.23436265352E+03  0.00000000000E+00 0. -1.
</event>
<event>
 7    1  0.2810263E-009  0.1360969E+03  0.7561462E-02  0.1218679E+00
         -2   -1    0    0    0  501 -0.00000000000E+00  0.00000000000E+00  0.25105568665E+03  0.25105568665E+03  0.00000000000E+00 0.  1.
          2   -1    0    0  501    0  0.00000000000E+00 -0.00000000000E+00 -0.74120574807E+02  0.74120574807E+02  0.00000000000E+00 0. -1.
         25    2    1    2    0    0  0.43723120990E+02 -0.73505462621E+02  0.10033660339E+03  0.18174104072E+03  0.12509039754E+03 0.  0.
          5    1    3    3  502    0 -0.28359075271E+02  0.18843759245E+02  0.23266114478E+02  0.41450077148E+02  0.41800000000E+01 0. -1.
         -5    1    3    3    0  502  0.72082196261E+02 -0.92349221866E+02  0.77070488914E+02  0.14029096357E+03  0.41800000000E+01 0. -1.
        -11    1    1    2    0    0  0.25835517305E+02  0.15785418741E+02  0.13194121025E+02  0.33026326300E+02  0.00000000000E+00 0. -1.
         11    1    1    2    0    0 -0.69558638295E+02  0.57720043881E+02  0.63404387427E+02  0.11040889444E+03  0.00000000000E+00 0.  1.
</event>
<event>
 7    1  0.2810263E-009  0.4509257E+03  0.7561462E-02  0.1027446E+00
         -2   -1    0    0    0  501 -0.00000000000E+00  0.00000000000E+00  0.15775015471E+03  0.15775015471E+03  0.00000000000E+00 0.  1.
          2   -1    0    0  501    0  0.00000000000E+00 -0.00000000000E+00 -0.13261813884E+04  0.13261813884E+04  0.00000000000E+00 0. -1.
         25    2    1    2    0    0  0.11689845304E+03 -0.42498640358E+03 -0.67298570047E+03  0.81414651103E+03  0.12508435889E+03 0.  0.
          5    1    3    3  502    0  0.13602655725E+03 -0.36832443750E+03 -0.62135933257E+03  0.73503129737E+03  0.41800000000E+01 0.  1.
         -5    1    3    3    0  502 -0.19128104214E+02 -0.56661966078E+02 -0.51626367897E+02  0.79115213662E+02  0.41800000000E+01 0.  1.
        -11    1    1    2    0    0 -0.14029373086E+01  0.16204469495E+03 -0.15314463921E+03  0.22296576400E+03  0.00000000000E+00 0. -1.
         11    1    1    2    0    0 -0.11549551573E+03  0.26294170863E+03 -0.34230089404E+03  0.44681926811E+03  0.00000000000E+00 0.  1.
</event>
<event>
 7    1  0.2810263E-009  0.1350331E+03  0.7561462E-02  0.1220173E+00
          1   -1    0    0  501    0  0.00000000000E+00  0.00000000000E+00  0.20391470895E+02  0.20391470895E+02  0.00000000000E+00 0. -1.
         -1   -1    0    0    0  501 -0.00000000000E+00 -0.00000000000E+00 -0.12205263144E+04  0.12205263144E+04  0.00000000000E+00 0.  1.
         25    2    1    2    0    0  0.64876296723E+01  0.11472019438E+03 -0.63932234186E+03  0.66150020706E+03  0.12508658923E+03 0.  0.
          5    1    3    3  502    0 -0.20274915903E+02  0.15127998264E+02 -0.17199749202E+02  0.30874460626E+02  0.41800000000E+01 0. -1.
         -5    1    3    3    0  502  0.26762545575E+02  0.99592196120E+02 -0.62212259266E+03  0.63062574644E+03  0.41800000000E+01 0. -1.
        -11    1    1    2    0    0  0.79985820948E+01 -0.12384022518E+03 -0.52823582303E+03  0.54261723473E+03  0.00000000000E+00 0.  1.
         11    1    1    2    0    0 -0.14486211767E+02  0.91200307931E+01 -0.32576678655E+02  0.36800343547E+02  0.00000000000E+00 0. -1.
</event>
<event>
 7    1  0.2810263E-009  0.1084281E+03  0.7561462E-02  0.1263509E+00
          2   -1    0    0  501    0  0.00000000000E+00  0.00000000000E+00  0.45328777207E+03  0.45328777207E+03  0.00000000000E+00 0. -1.
         -2   -1    0    0    0  501 -0.00000000000E+00 -0.00000000000E+00 -0.30775838643E+02  0.30775838643E+02  0.00000000000E+00 0.  1.
         25    2    1    2    0    0  0.34173610855E+02  0.27161474565E+02  0.27424616982E+03  0.30457203760E+03  0.12509029959E+03 0.  0.
          5    1    3    3  502    0  0.21575167129E+02  0.72652967833E+02  0.11014821223E+03  0.13376861601E+03  0.41800000000E+01 0. -1.
         -5    1    3    3    0  502  0.12598443725E+02 -0.45491493268E+02  0.16409795759E+03  0.17080342159E+03  0.41800000000E+01 0. -1.
        -11    1    1    2    0    0 -0.38391473986E+01 -0.53350413489E+02  0.49392889912E+02  0.72805653943E+02  0.00000000000E+00 0.  1.
         11    1    1    2    0    0 -0.30334463456E+02  0.26188938923E+02  0.98872873699E+02  0.10668591917E+03  0.00000000000E+00 0. -1.
</event>
<event>
 7    1  0.2810263E-009  0.1041363E+03  0.7561462E-02  0.1271831E+00
         -2   -1    0    0    0  501 -0.00000000000E+00  0.00000000000E+00  0.19715363573E+03  0.19715363573E+03  0.00000000000E+00 0.  1.
          2   -1    0    0  501    0  0.00000000000E+00 -0.00000000000E+00 -0.62710732837E+02  0.62710732837E+02  0.00000000000E+00 0. -1.
         25    2    1    2    0    0  0.24075041854E+02 -0.10527744091E+02  0.81433626441E+02  0.15155475087E+03  0.12508783298E+03 0.  0.
          5    1    3    3  502    0  0.11450427428E+02 -0.67483864060E+02  0.35718914523E+02  0.77320743992E+02  0.41800000000E+01 0.  1.
         -5    1    3    3    0  502  0.12624614427E+02  0.56956119969E+02  0.45714711918E+02  0.74234006878E+02  0.41800000000E+01 0.  1.
        -11    1    1    2    0    0  0.19501030833E+02 -0.20053920678E+02  0.47054827443E+02  0.54741270754E+02  0.00000000000E+00 0.  1.
         11    1    1    2    0    0 -0.43576072687E+02  0.30581664769E+02  0.59544490048E+01  0.53568346939E+02  0.00000000000E+00 0. -1.
</event>
<event>
 7    1  0.2810263E-009  0.1975357E+03  0.7561462E-02  0.1151835E+00
          2   -1    0    0  501    0  0.00000000000E+00  0.00000000000E+00  0.34871652778E+03  0.34871652778E+03  0.00000000000E+00 0. -1.
         -2   -1    0    0    0  501 -0.00000000000E+00 -0.00000000000E+00 -0.12360344053E+03  0.12360344053E+03  0.00000000000E+00 0.  1.
         25    2    1    2    0    0  0.78166826697E+02  0.15511031737E+03  0.15591941991E+03  0.26481540572E+03  0.12508824985E+03 0.  0.
          5    1    3    3  502    0  0.52538148431E+02  0.83160698178E+01  0.83477457135E+02  0.99072560820E+02  0.41800000000E+01 0.  1.
         -5    1    3    3    0  502  0.25628678267E+02  0.14679424755E+03  0.72441962780E+02  0.16574284490E+03  0.41800000000E+01 0.  1.
        -11    1    1    2    0    0 -0.12415568509E+02 -0.11490197591E+03  0.59007864532E+02  0.12976339425E+03  0.00000000000E+00 0.  1.
         11    1    1    2    0    0 -0.65751258189E+02 -0.40208341459E+02  0.10185802799E+02  0.77741168341E+02  0.00000000000E+00 0. -1.
</event>
<event>
 7    1  0.2810263E-009  0.1088882E+03  0.7561462E-02  0.1262643E+00
          2   -1    0    0  501    0  0.00000000000E+00  0.00000000000E+00  0.42617397944E+02  0.42617397944E+02  0.00000000000E+00 0. -1.
         -2   -1    0    0    0  501 -0.00000000000E+00 -0.00000000000E+00 -0.40382313757E+03  0.40382313757E+03  0.00000000000E+00 0.  1.
         25    2    1    2    0    0  0.65041728658E+02  0.23016551021E+02 -0.15582218065E+03  0.21139501956E+03  0.12508842563E+03 0.  0.
          5    1    3    3  502    0 -0.30626303198E+02 -0.19311648475E+02 -0.26810224852E+02  0.45245671296E+02  0.41800000000E+01 0. -1.
         -5    1    3    3    0  502  0.95668031856E+02  0.42328199496E+02 -0.12901195579E+03  0.16614934827E+03  0.41800000000E+01 0. -1.
        -11    1    1    2    0    0 -0.59455665179E+02 -0.72389104860E+01 -0.20942973795E+03  0.21782606154E+03  0.00000000000E+00 0.  1.
         11    1    1    2    0    0 -0.55860634784E+01 -0.15777640535E+02  0.40461789710E+01  0.17219454414E+02  0.00000000000E+00 0. -1.
</event>
<event>
 7    1  0.2810263E-009  0.8512620E+02  0.7561462E-02  0.1315103E+00
         -2   -1    0    0    0  501 -0.00000000000E+00  0.00000000000E+00  0.92923907187E+02  0.92923907187E+02  0.00000000000E+00 0. -1.
          2   -1    0    0  501    0  0.00000000000E+00 -0.00000000000E+00 -0.13590961753E+03  0.13590961753E+03  0.00000000000E+00 0.  1.
         25    2    1    2    0    0  0.26686009106E+02 -0.51445246769E+00 -0.41439093521E+01  0.12797318974E+03  0.12509019772E+03 0.  0.
          5    1    3    3  502    0  0.34460353166E+02  0.29735866066E+02 -0.52905431895E+02  0.69915626258E+02  0.41800000000E+01 0.  1.
         -5    1    3    3    0  502 -0.77743440602E+01 -0.30250318534E+02  0.48761522543E+02  0.58057563483E+02  0.41800000000E+01 0.  1.
        -11    1    1    2    0    0 -0.56469373256E+02 -0.16372579836E+02 -0.26113033033E+02  0.64333055116E+02  0.00000000000E+00 0. -1.
         11    1    1    2    0    0  0.29783364150E+02  0.16887032304E+02 -0.12728767955E+02  0.36527279857E+02  0.00000000000E+00 0.  1.
</event>
<event>
 7    1  0.2810263E-009  0.1278170E+03  0.7561462E-02  0.1230731E+00
         -1   -1    0    0    0  501 -0.00000000000E+00  0.00000000000E+00  0.14074557883E+03  0.14074557883E+03  0.00000000000E+00 0.  1.
          1   -1    0    0  501    0  0.00000000000E+00 -0.00000000000E+00 -0.18266233392E+03  0.18266233392E+03  0.00000000000E+00 0. -1.
         25    2    1    2    0    0 -0.71160814915E+02 -0.92668243202E+02 -0.24303032556E+02  0.17288569218E+03  0.12509020861E+03 0.  0.
          5    1    3    3  502    0 -0.83100576534E+02 -0.94326418482E+02  0.19481701963E+02  0.12727995976E+03  0.41800000000E+01 0.  1.
         -5    1    3    3    0  502  0.11939761619E+02  0.16581752796E+01 -0.43784734519E+02  0.45605732421E+02  0.41800000000E+01 0.  1.
        -11    1    1    2    0    0  0.58666869812E+02  0.71201757145E+02  0.29838230079E+02  0.96962940386E+02  0.00000000000E+00 0.  1.
         11    1    1    2    0    0  0.12493945103E+02  0.21466486058E+02 -0.47451952616E+02  0.53559280194E+02  0.00000000000E+00 0. -1.
</event>
<event>
 7    1  0.2810263E-009  0.1064071E+03  0.7561462E-02  0.1267372E+00
          1   -1    0    0  501    0  0.00000000000E+00  0.00000000000E+00  0.19658061003E+03  0.19658061003E+03  0.00000000000E+00 0. -1.
         -1   -1    0    0    0  501 -0.00000000000E+00 -0.00000000000E+00 -0.75781885261E+02  0.75781885261E+02  0.00000000000E+00 0.  1.
         25    2    1    2    0    0  0.28847636894E+02 -0.69980062839E+01  0.12022859985E+03  0.17601454658E+03  0.12508015886E+03 0.  0.
          5    1    3    3  502    0  0.72305974219E+02  0.34150981294E+01  0.10694369558E+03  0.12920620429E+03  0.41800000000E+01 0.  1.
         -5    1    3    3    0  502 -0.43458337325E+02 -0.10413104413E+02  0.13284904271E+02  0.46808342291E+02  0.41800000000E+01 0.  1.
        -11    1    1    2    0    0 -0.62005468566E+02  0.41860453754E+01  0.67155536793E+01  0.62508397590E+02  0.00000000000E+00 0. -1.
         11    1    1    2    0    0  0.33157831672E+02  0.28119609085E+01 -0.61454287604E+01  0.33839551120E+02  0.00000000000E+00 0.  1.
</event>
<event>
 7    1  0.2810263E-009  0.9981044E+02  0.7561462E-02  0.1280695E+00
         -1   -1    0    0    0  501 -0.00000000000E+00  0.00000000000E+00  0.23479212960E+03  0.23479212960E+03  0.00000000000E+00 0.  1.
          1   -1    0    0  501    0  0.00000000000E+00 -0.00000000000E+00 -0.65886435600E+02  0.65886435600E+02  0.00000000000E+00 0. -1.
         25    2    1    2    0    0 -0.33637278470E+02 -0.50333629504E+02  0.10144604039E+03  0.17205662318E+03  0.12508893520E+03 0.  0.
          5    1    3    3  502    0 -0.64721679203E+02 -0.69550007201E+01  0.98891228767E+02  0.11846609355E+03  0.41800000000E+01 0.  1.
         -5    1    3    3    0  502  0.31084400733E+02 -0.43378628784E+02  0.25548116200E+01  0.53590529635E+02  0.41800000000E+01 0.  1.
        -11    1    1    2    0    0 -0.17613567303E+01  0.45035559039E+02  0.79053044057E+02  0.90998284216E+02  0.00000000000E+00 0.  1.
         11    1    1    2    0    0  0.35398635200E+02  0.52980704652E+01 -0.11593390440E+02  0.37623657804E+02  0.00000000000E+00 0. -1.
</event>
<event>
 7    1  0.2810263E-009  0.1209172E+03  0.7561462E-02  0.1241592E+00
         -1   -1    0    0    0  501 -0.00000000000E+00  0.00000000000E+00  0.57889850930E+03  0.57889850930E+03  0.00000000000E+00 0.  1.
          1   -1    0    0  501    0  0.00000000000E+00 -0.00000000000E+00 -0.33049940702E+02  0.33049940702E+02  0.00000000000E+00 0. -1.
         25    2    1    2    0    0  0.10836916098E+02  0.59693411904E+02  0.43197423864E+03  0.45379207375E+03  0.12507901975E+03 0.  0.
          5    1    3    3  502    0  0.61592842217E+02  0.76800676893E+01  0.14606154646E+03  0.15875802155E+03  0.41800000000E+01 0. -1.
         -5    1    3    3    0  502 -0.50755926119E+02  0.52013344215E+02  0.28591269218E+03  0.29503405221E+03  0.41800000000E+01 0. -1.
        -11    1    1    2    0    0 -0.44115994733E+02 -0.72343687437E+01  0.66046096884E+02  0.79753645660E+02  0.00000000000E+00 0.  1.
         11    1    1    2    0    0  0.33279078635E+02 -0.52459043160E+02  0.47828233074E+02  0.78402730584E+02  0.00000000000E+00 0. -1.
</event>
<event>
 7    1  0.2810263E-009  0.1015494E+03  0.7561462E-02  0.1277071E+00
          1   -1    0    0  501    0  0.00000000000E+00  0.00000000000E+00  0.51422278967E+03  0.51422278967E+03  0.00000000000E+00 0. -1.
         -1   -1    0    0    0  501 -0.00000000000E+00 -0.00000000000E+00 -0.28399667562E+02  0.28399667562E+02  0.00000000000E+00 0.  1.
         25    2    1    2    0    0 -0.25374114941E+02  0.31106365127E+02  0.19341047358E+03  0.23380792165E+03  0.12508829392E+03 0.  0.
          5    1    3    3  502    0  0.14630412301E+02  0.62468030917E+02  0.16103676938E+03  0.17339728182E+03  0.41800000000E+01 0.  1.
         -5    1    3    3    0  502 -0.40004527242E+02 -0.31361665790E+02  0.32373704205E+02  0.60410639832E+02  0.41800000000E+01 0.  1.
        -11    1    1    2    0    0  0.49826553054E+02 -0.21113185372E+01  0.90138968350E+02  0.10301541958E+03  0.00000000000E+00 0.  1.
         11    1    1    2    0    0 -0.24452438113E+02 -0.28995046590E+02  0.20227368018E+03  0.20579911601E+03  0.00000000000E+00 0. -1.
</event>
<event>
 7    1  0.2810263E-009  0.9955312E+02  0.7561462E-02  0.1281238E+00
         -1   -1    0    0    0  501 -0.00000000000E+00  0.00000000000E+00  0.56412951877E+03  0.56412951877E+03  0.00000000000E+00 0.  1.
          1   -1    0    0  501    0  0.00000000000E+00 -0.00000000000E+00 -0.41077055228E+02  0.41077055228E+02  0.00000000000E+00 0. -1.
         25    2    1    2    0    0 -0.95601561926E+02 -0.14998794915E+02  0.19016316653E+03  0.24733690548E+03  0.12509553316E+03 0.  0.
          5    1    3    3  502    0 -0.21345362665E+00 -0.10396452394E+00 -0.17657885984E+02  0.18147443580E+02  0.41800000000E+01 0. -1.
         -5    1    3    3    0  502 -0.95388108299E+02 -0.14894830391E+02  0.20782105251E+03  0.22918946190E+03  0.41800000000E+01 0. -1.
        -11    1    1    2    0    0  0.36733446022E+02  0.14283025527E+02  0.30589526017E+02  0.49890580041E+02  0.00000000000E+00 0. -1.
         11    1    1    2    0    0  0.58868115904E+02  0.71576938796E+00  0.30229977100E+03  0.30797908848E+03  0.00000000000E+00 0.  1.
</event>
<event>
 7    1  0.2810263E-009  0.3707074E+03  0.7561462E-02  0.1054423E+00
          2   -1    0    0  501    0  0.00000000000E+00  0.00000000000E+00  0.90477378683E+03  0.90477378683E+03  0.00000000000E+00 0. -1.
         -2   -1    0    0    0  501 -0.00000000000E+00 -0.00000000000E+00 -0.16503505567E+03  0.16503505567E+03  0.00000000000E+00 0.  1.
         25    2    1    2    0    0  0.28614099247E+03  0.23305967872E+03  0.32876026406E+03  0.50982316676E+03  0.12507145448E+03 0.  0.
          5    1    3    3  502    0  0.20085842987E+03  0.13567724449E+03  0.28258759885E+03  0.37232465261E+03  0.41800000000E+01 0.  1.
         -5    1    3    3    0  502  0.85282562597E+02  0.97382434231E+02  0.46172665215E+02  0.13749851415E+03  0.41800000000E+01 0.  1.
        -11    1    1    2    0    0 -0.15728514855E+03 -0.13950930601E+03  0.29818434330E+03  0.36484978691E+03  0.00000000000E+00 0.  1.
         11    1    1    2    0    0 -0.12885584392E+03 -0.93550372716E+02  0.11279412379E+03  0.19513588883E+03  0.00000000000E+00 0. -1.
</event>
<event>
 7    1  0.2810263E-009  0.8833107E+02  0.7561462E-02  0.1306944E+00
         -2   -1    0    0    0  501 -0.00000000000E+00  0.00000000000E+00  0.26555520197E+02  0.26555520197E+02  0.00000000000E+00 0. -1.
          2   -1    0    0  501    0  0.00000000000E+00 -0.00000000000E+00 -0.46149874399E+03  0.46149874399E+03  0.00000000000E+00 0.  1.
         25    2    1    2    0    0 -0.97128027532E+01 -0.24671031885E+02 -0.23021536197E+03  0.26334378262E+03  0.12509131308E+03 0.  0.
          5    1    3    3  502    0  0.35548781692E+02  0.13905272272E+02 -0.18385501303E+03  0.18782228487E+03  0.41800000000E+01 0.  1.
         -5    1    3    3    0  502 -0.45261584446E+02 -0.38576304157E+02 -0.46360348934E+02  0.75521497749E+02  0.41800000000E+01 0.  1.
        -11    1    1    2    0    0  0.90372418168E+01 -0.26228152719E+02 -0.23148363739E+02  0.36130796815E+02  0.00000000000E+00 0. -1.
         11    1    1    2    0    0  0.67556093646E+00  0.50899184604E+02 -0.18157949809E+03  0.18857968475E+03  0.00000000000E+00 0.  1.
</event>
<event>
 7    1  0.2810263E-009  0.2401348E+03  0.7561462E-02  0.1119703E+00
         -2   -1    0    0    0  501 -0.00000000000E+00  0.00000000000E+00  0.56469749665E+02  0.56469749665E+02  0.00000000000E+00 0.  1.
          2   -1    0    0  501    0  0.00000000000E+00 -0.00000000000E+00 -0.19465304923E+04  0.19465304923E+04  0.00000000000E+00 0. -1.
         25    2    1    2    0    0  0.99891101530E+02  0.20944748141E+03 -0.15916653752E+04  0.16133482390E+04  0.12508954364E+03 0.  0.
          5    1    3    3  502    0 -0.80058400143E+01 -0.91853359149E+00 -0.79177453830E+01  0.12045757354E+02  0.41800000000E+01 0.  1.
         -5    1    3    3    0  502  0.10789694154E+03  0.21036601500E+03 -0.15837476299E+04  0.16013024816E+04  0.41800000000E+01 0.  1.
        -11    1    1    2    0    0 -0.15371275803E+02 -0.70019861225E+02 -0.16172893272E+03  0.17690479011E+03  0.00000000000E+00 0. -1.
         11    1    1    2    0    0 -0.84519825727E+02 -0.13942762019E+03 -0.13666643470E+03  0.21274721287E+03  0.00000000000E+00 0.  1.
</event>
<event>
 7    1  0.2810263E-009  0.2111587E+03  0.7561462E-02  0.1140652E+00
         -1   -1    0    0    0  501 -0.00000000000E+00  0.00000000000E+00  0.26228565626E+03  0.26228565626E+03  0.00000000000E+00 0.  1.
          1   -1    0    0  501    0  0.00000000000E+00 -0.00000000000E+00 -0.23432936251E+03  0.23432936251E+03  0.00000000000E+00 0. -1.
         25    2    1    2    0    0 -0.19883998674E+03 -0.30793453557E+02  0.11039721410E+03  0.26138174230E+03  0.12508914110E+03 0.  0.
          5    1    3    3  502    0 -0.18786241246E+03 -0.43645593827E+02  0.13191552192E+03  0.23370152160E+03  0.41800000000E+01 0.  1.
         -5    1    3    3    0  502 -0.10977574277E+02  0.12852140270E+02 -0.21518307823E+02  0.27680220701E+02  0.41800000000E+01 0.  1.
        -11    1    1    2    0    0  0.31897959719E+02  0.31812053960E+02 -0.45943672335E+02  0.64345222347E+02  0.00000000000E+00 0. -1.
         11    1    1    2    0    0  0.16694202702E+03 -0.10186004027E+01 -0.36497248012E+02  0.17088805413E+03  0.00000000000E+00 0.  1.
</event>
<event>
 7    1  0.2810263E-009  0.9148235E+02  0.7561462E-02  0.1299301E+00
         -1   -1    0    0    0  501 -0.00000000000E+00  0.00000000000E+00  0.10518627476E+04  0.10518627476E+04  0.00000000000E+00 0.  1.
          1   -1    0    0  501    0  0.00000000000E+00 -0.00000000000E+00 -0.14477909603E+02  0.14477909603E+02  0.00000000000E+00 0. -1.
         25    2    1    2    0    0  0.57753144466E+02  0.23413498949E+00  0.63653260490E+03  0.65127272029E+03  0.12508764357E+03 0.  0.
          5    1    3    3  502    0  0.24401688235E+02  0.30703578798E+02  0.53444741316E+02  0.66422623511E+02  0.41800000000E+01 0. -1.
         -5    1    3    3    0  502  0.33351456231E+02 -0.30469443809E+02  0.58308786359E+03  0.58485009678E+03  0.41800000000E+01 0. -1.
        -11    1    1    2    0    0 -0.74904522694E+02 -0.13953050850E+02  0.36619349045E+03  0.37403615814E+03  0.00000000000E+00 0.  1.
         11    1    1    2    0    0  0.17151378228E+02  0.13718915860E+02  0.34658742619E+02  0.41031778750E+02  0.00000000000E+00 0. -1.
</event>
<event>
 7    1  0.2810263E-009  0.9371781E+02  0.7561462E-02  0.1294090E+00
          1   -1    0    0  501    0  0.00000000000E+00  0.00000000000E+00  0.85612314708E+02  0.85612314708E+02  0.00000000000E+00 0. -1.
         -1   -1    0    0    0  501 -0.00000000000E+00 -0.00000000000E+00 -0.17563594573E+03  0.17563594573E+03  0.00000000000E+00 0.  1.
         25    2    1    2    0    0  0.29550981893E+02 -0.59725862878E+01 -0.99171965655E+02  0.16245496283E+03  0.12509038276E+03 0.  0.
          5    1    3    3  502    0  0.17358685134E+02 -0.57770543240E+02 -0.89801196910E+02  0.10826119795E+03  0.41800000000E+01 0.  1.
         -5    1    3    3    0  502  0.12192296759E+02  0.51797956952E+02 -0.93707687446E+01  0.54193764877E+02  0.41800000000E+01 0.  1.
        -11    1    1    2    0    0 -0.50453470638E+02 -0.36398294187E+01  0.36997030300E+02  0.62670418130E+02  0.00000000000E+00 0. -1.
         11    1    1    2    0    0  0.20902488744E+02  0.96124157065E+01 -0.27848695672E+02  0.36122879482E+02  0.00000000000E+00 0.  1.
</event>
<event>
 7    1  0.2810263E-009  0.1207329E+03  0.7561462E-02  0.1241893E+00
          2   -1    0    0  501    0  0.00000000000E+00  0.00000000000E+00  0.23726547168E+03  0.23726547168E+03  0.00000000000E+00 0. -1.
         -2   -1    0    0    0  501 -0.00000000000E+00 -0.00000000000E+00 -0.87394970475E+02  0.87394970475E+02  0.00000000000E+00 0.  1.
         25    2    1    2    0    0  0.74902962905E+02  0.14920221369E+02  0.14663003071E+03  0.20731602889E+03  0.12508598270E+03 0.  0.
          5    1    3    3  502    0  0.83597127805E+02  0.57774201072E+02  0.91330449153E+02  0.13669331157E+03  0.41800000000E+01 0. -1.
         -5    1    3    3    0  502 -0.86941648991E+01 -0.42853979703E+02  0.55299581561E+02  0.70622717312E+02  0.41800000000E+01 0. -1.
        -11    1    1    2    0    0 -0.23880820469E+02  0.22304384843E+02  0.33945895753E+02  0.47117969057E+02  0.00000000000E+00 0. -1.
         11    1    1    2    0    0 -0.51022142436E+02 -0.37224606212E+02 -0.30705425261E+02  0.70226444214E+02  0.00000000000E+00 0.  1.
</event>
<event>
 7    1  0.2810263E-009  0.1723731E+03  0.7561462E-02  0.1175395E+00
          2   -1    0    0  501    0  0.00000000000E+00  0.00000000000E+00  0.26876821024E+03  0.26876821024E+03  0.00000000000E+00 0. -1.
         -2   -1    0    0    0  501 -0.00000000000E+00 -0.00000000000E+00 -0.17813915744E+03  0.17813915744E+03  0.00000000000E+00 0.  1.
         25    2    1    2    0    0  0.18906103616E+02 -0.15827331317E+03  0.15532272718E+03  0.25530090678E+03  0.12508205711E+03 0.  0.
          5    1    3    3  502    0  0.31966087070E+02 -0.12457563622E+03  0.17238622118E+03  0.21511718089E+03  0.41800000000E+01 0. -1.
         -5    1    3    3    0  502 -0.13059983454E+02 -0.33697676949E+02 -0.17063493996E+02  0.40183725897E+02  0.41800000000E+01 0. -1.
        -11    1    1    2    0    0  0.33048976397E+02  0.58169065924E+02 -0.16177042564E+02  0.68830020903E+02  0.00000000000E+00 0.  1.
         11    1    1    2    0    0 -0.51955080013E+02  0.10010424724E+03 -0.48516631809E+02  0.12277643999E+03  0.00000000000E+00 0. -1.
</event>
<event>
 7    1  0.3511483E-009  0.1620098E+03  0.7561462E-02  0.1186446E+00
          1   -1    0    0  501    0  0.00000000000E+00  0.00000000000E+00  0.92214988258E+03  0.92214988258E+03  0.00000000000E+00 0. -1.
         -1   -1    0    0    0  501 -0.00000000000E+00 -0.00000000000E+00 -0.36480201586E+02  0.36480201586E+02  0.00000000000E+00 0.  1.
         25    2    1    2    0    0  0.10655723697E+03  0.55844336515E+02  0.24373093300E+03  0.29921074681E+03  0.12509703687E+03 0.  0.
          5    1    3    3  502    0  0.99344245722E+02 -0.16252256857E+02  0.13403858511E+03  0.16768193018E+03  0.41800000000E+01 0.  1.
         -5    1    3    3    0  502  0.72129912517E+01  0.72096593372E+02  0.10969234789E+03  0.13152881663E+03  0.41800000000E+01 0.  1.
        -11    1    1    2    0    0 -0.73660353006E+02  0.12619741616E+02  0.30441754917E+03  0.31345677489E+03  0.00000000000E+00 0.  1.
         11    1    1    2    0    0 -0.32896883967E+02 -0.68464078131E+02  0.33752119882E+03  0.34596256246E+03  0.00000000000E+00 0. -1.
</event>
<event>
 7    1  0.2810263E-009  0.1026793E+03  0.7561462E-02  0.1274761E+00
          2   -1    0    0  501    0  0.00000000000E+00  0.00000000000E+00  0.52409112465E+02  0.52409112465E+02  0.00000000000E+00 0. -1.
         -2   -1    0    0    0  501 -0.00000000000E+00 -0.00000000000E+00 -0.36380050069E+03  0.36380050069E+03  0.00000000000E+00 0.  1.
         25    2    1    2    0    0  0.13219467340E+02  0.64975378423E+02 -0.24801928408E+03  0.28558323011E+03  0.12509061487E+03 0.  0.
          5    1    3    3  502    0 -0.13554508640E+02 -0.97581696237E+01  0.69064092637E+01  0.18550403440E+02  0.41800000000E+01 0. -1.
         -5    1    3    3    0  502  0.26773975979E+02  0.74733548046E+02 -0.25492569335E+03  0.26703282667E+03  0.41800000000E+01 0. -1.
        -11    1    1    2    0    0 -0.33140840697E+02 -0.78066083887E+02 -0.30726165353E+02  0.90203802652E+02  0.00000000000E+00 0.  1.
         11    1    1    2    0    0  0.19921373358E+02  0.13090705464E+02 -0.32645938792E+02  0.40422580393E+02  0.00000000000E+00 0. -1.
</event>
<event>
 7    1  0.2810263E-009  0.1513789E+03  0.7561462E-02  0.1198789E+00
         -1   -1    0    0    0  501 -0.00000000000E+00  0.00000000000E+00  0.32361018258E+03  0.32361018258E+03  0.00000000000E+00 0.  1.
          1   -1    0    0  501    0  0.00000000000E+00 -0.00000000000E+00 -0.87893767103E+02  0.87893767103E+02  0.00000000000E+00 0. -1.
         25    2    1    2    0    0 -0.12648822847E+03  0.15469682868E+02  0.10876555593E+03  0.20908160597E+03  0.12508632527E+03 0.  0.
          5    1    3    3  502    0 -0.14651354800E+03  0.88585010594E+01  0.65536476550E+02  0.16080172558E+03  0.41800000000E+01 0. -1.
         -5    1    3    3    0  502  0.20025319533E+02  0.66111818089E+01  0.43229079377E+02  0.48279880396E+02  0.41800000000E+01 0. -1.
        -11    1    1    2    0    0  0.57634863466E+02 -0.28573984138E+02  0.11435944304E+03  0.13121102190E+03  0.00000000000E+00 0.  1.
         11    1    1    2    0    0  0.68853365005E+02  0.13104301270E+02  0.12591416514E+02  0.71211321811E+02  0.00000000000E+00 0. -1.
</event>
<event>
 7    1  0.2810263E-009  0.1296145E+03  0.7561462E-02  0.1228029E+00
         -1   -1    0    0    0  501 -0.00000000000E+00  0.00000000000E+00  0.11326493286E+03  0.11326493286E+03  0.00000000000E+00 0.  1.
          1   -1    0    0  501    0  0.00000000000E+00 -0.00000000000E+00 -0.24449744945E+03  0.24449744945E+03  0.00000000000E+00 0. -1.
         25    2    1    2    0    0  0.58427392104E+02  0.58390090298E+02  0.30740387561E+02  0.15302550206E+03  0.12509464441E+03 0.  0.
          5    1    3    3  502    0  0.26864314871E+02 -0.31844990804E+02 -0.18073810787E+02  0.45606248357E+02  0.41800000000E+01 0. -1.
         -5    1    3    3    0  502  0.31563077233E+02  0.90235081102E+02  0.48814198348E+02  0.10741925370E+03  0.41800000000E+01 0. -1.
        -11    1    1    2    0    0 -0.14210935007E+02 -0.73562358240E+02 -0.75082394665E+02  0.10606949237E+03  0.00000000000E+00 0.  1.
         11    1    1    2    0    0 -0.44216457098E+02  0.15172267942E+02 -0.86890509482E+02  0.98667387879E+02  0.00000000000E+00 0. -1.
</event>
<event>
 7    1  0.3771023E-009  0.8457131E+02  0.7561462E-02  0.1316557E+00
         -1   -1    0    0    0  501 -0.00000000000E+00  0.00000000000E+00  0.48237683149E+02  0.48237683149E+02  0.00000000000E+00 0.  1.
          1   -1    0    0  501    0  0.00000000000E+00 -0.00000000000E+00 -0.33714342832E+03  0.33714342832E+03  0.00000000000E+00 0. -1.
         25    2    1    2    0    0  0.55836943921E+02 -0.28341361351E+02 -0.19347571973E+03  0.23874931570E+03  0.12508950617E+03 0.  0.
          5    1    3    3  502    0  0.63589376207E+02 -0.26617676513E+02 -0.30450487422E+02  0.75477241958E+02  0.41800000000E+01 0.  1.
         -5    1    3    3    0  502 -0.77524322862E+01 -0.17236848377E+01 -0.16302523231E+03  0.16327207374E+03  0.41800000000E+01 0.  1.
        -11    1    1    2    0    0 -0.51237474389E+02 -0.10240484736E+02 -0.10583805904E+02  0.53311942909E+02  0.00000000000E+00 0.  1.
         11    1    1    2    0    0 -0.45994695323E+01  0.38581846087E+02 -0.84846219542E+02  0.93319852861E+02  0.00000000000E+00 0. -1.
</event>
<event>
 7    1  0.2810263E-009  0.1009312E+03  0.7561462E-02  0.1278350E+00
          2   -1    0    0  501    0  0.00000000000E+00  0.00000000000E+00  0.44011520458E+03  0.44011520458E+03  0.00000000000E+00 0. -1.
         -2   -1    0    0    0  501 -0.00000000000E+00 -0.00000000000E+00 -0.32626156361E+02  0.32626156361E+02  0.00000000000E+00 0.  1.
         25    2    1    2    0    0 -0.38393106051E+02 -0.36027534777E+02  0.24752794985E+03  0.28229362517E+03  0.12509033137E+03 0.  0.
          5    1    3    3  502    0 -0.28541806833E+01  0.45851185469E+02  0.76584348048E+02  0.89404207520E+02  0.41800000000E+01 0. -1.
         -5    1    3    3    0  502 -0.35538925367E+02 -0.81878720246E+02  0.17094360180E+03  0.19288941765E+03  0.41800000000E+01 0. -1.
        -11    1    1    2    0    0  0.29368223119E+01  0.30321724260E+02  0.43815055429E+01  0.30777093401E+02  0.00000000000E+00 0.  1.
         11    1    1    2    0    0  0.35456283739E+02  0.57058105171E+01  0.15557959283E+03  0.15967064237E+03  0.00000000000E+00 0. -1.
</event>
<event>
 7    1  0.2810263E-009  0.8995765E+02  0.7561462E-02  0.1302954E+00
          1   -1    0    0  501    0  0.00000000000E+00  0.00000000000E+00  0.40013819224E+03  0.40013819224E+03  0.00000000000E+00 0. -1.
         -1   -1    0    0    0  501 -0.00000000000E+00 -0.00000000000E+00 -0.39168268844E+02  0.39168268844E+02  0.00000000000E+00 0.  1.
         25    2    1    2    0    0  0.19858571952E+02  0.51306660101E+02  0.23393510050E+03  0.27092407925E+03  0.12508992455E+03 0.  0.
          5    1    3    3  502    0 -0.42081057539E+02  0.24257812698E+00  0.30374249428E+02  0.52066704102E+02  0.41800000000E+01 0. -1.
         -5    1    3    3    0  502  0.61939629491E+02  0.51064081974E+02  0.20356085107E+03  0.21885737515E+03  0.41800000000E+01 0. -1.
        -11    1    1    2    0    0 -0.32808490935E+01 -0.30326995057E+02  0.13661499069E+03  0.13997909230E+03  0.00000000000E+00 0. -1.
         11    1    1    2    0    0 -0.16577722858E+02 -0.20979665044E+02 -0.95801678019E+01  0.28403289522E+02  0.00000000000E+00 0.  1.
</event>
<event>
 7    1  0.2810263E-009  0.1215786E+03  0.7561462E-02  0.1240515E+00
         -1   -1    0    0    0  501 -0.00000000000E+00  0.00000000000E+00  0.12285012263E+03  0.12285012263E+03  0.00000000000E+00 0.  1.
          1   -1    0    0  501    0  0.00000000000E+00 -0.00000000000E+00 -0.14861321135E+03  0.14861321135E+03  0.00000000000E+00 0. -1.
         25    2    1    2    0    0  0.72658994568E+02 -0.34045301554E+01  0.21317538523E+02  0.14626416696E+03  0.12509136170E+03 0.  0.
          5    1    3    3  502    0  0.13831958753E+02  0.54223305982E+02  0.29509751571E+02  0.63401796760E+02  0.41800000000E+01 0. -1.
         -5    1    3    3    0  502  0.58827035816E+02 -0.57627836138E+02 -0.81922130486E+01  0.82862370201E+02  0.41800000000E+01 0. -1.
        -11    1    1    2    0    0 -0.18883454656E+02  0.36744771319E+02  0.70760008878E+01  0.41914590152E+02  0.00000000000E+00 0.  1.
         11    1    1    2    0    0 -0.53775539912E+02 -0.33340241164E+02 -0.54156628135E+02  0.83284576871E+02  0.00000000000E+00 0. -1.
</event>
<event>
 7    1  0.2810263E-009  0.9481351E+02  0.7561462E-02  0.1291597E+00
         -1   -1    0    0    0  501 -0.00000000000E+00  0.00000000000E+00  0.33942759272E+02  0.33942759272E+02  0.00000000000E+00 0.  1.
          1   -1    0    0  501    0  0.00000000000E+00 -0.00000000000E+00 -0.43340285633E+03  0.43340285633E+03  0.00000000000E+00 0. -1.
         25    2    1    2    0    0  0.26019890462E+02  0.32081929882E+02 -0.29052545717E+03  0.31899698888E+03  0.12509097779E+03 0.  0.
          5    1    3    3  502    0  0.16130293168E+02  0.76485194545E+02 -0.12678813337E+03  0.14900629015E+03  0.41800000000E+01 0.  1.
         -5    1    3    3    0  502  0.98895972947E+01 -0.44403264663E+02 -0.16373732381E+03  0.16999069873E+03  0.41800000000E+01 0.  1.
        -11    1    1    2    0    0 -0.53293862663E+01  0.14092578951E+02  0.10682935653E+02  0.18469657647E+02  0.00000000000E+00 0.  1.
         11    1    1    2    0    0 -0.20690504196E+02 -0.46174508833E+02 -0.11961757553E+03  0.12987896907E+03  0.00000000000E+00 0. -1.
</event>
<event>
 7    1  0.2810263E-009  0.1445740E+03  0.7561462E-02  0.1207304E+00
         -2   -1    0    0    0  501 -0.00000000000E+00  0.00000000000E+00  0.15456649165E+02  0.15456649165E+02  0.00000000000E+00 0.  1.
          2   -1    0    0  501    0  0.00000000000E+00 -0.00000000000E+00 -0.15340253130E+04  0.15340253130E+04  0.00000000000E+00 0. -1.
         25    2    1    2    0    0  0.68560864632E+02  0.74526259807E+02 -0.10322849166E+04  0.10447556082E+04  0.12508947359E+03 0.  0.
          5    1    3    3  502    0  0.57007294627E+02 -0.22420107777E+02 -0.47728123192E+03  0.48121444244E+03  0.41800000000E+01 0. -1.
         -5    1    3    3    0  502  0.11553570005E+02  0.96946367585E+02 -0.55500368465E+03  0.56354116580E+03  0.41800000000E+01 0. -1.
        -11    1    1    2    0    0 -0.82083262141E+02 -0.80746275849E+02 -0.46291630294E+03  0.47702109651E+03  0.00000000000E+00 0. -1.
         11    1    1    2    0    0  0.13522397510E+02  0.62200160414E+01 -0.23367444279E+02  0.27705257373E+02  0.00000000000E+00 0.  1.
</event>
<event>
 7    1  0.4179458E-009  0.1340070E+03  0.7561462E-02  0.1221628E+00
         -3   -1    0    0    0  501 -0.00000000000E+00  0.00000000000E+00  0.53851394971E+02  0.53851394971E+02  0.00000000000E+00 0.  1.
          3   -1    0    0  501    0  0.00000000000E+00 -0.00000000000E+00 -0.37444101608E+03  0.37444101608E+03  0.00000000000E+00 0. -1.
         25    2    1    2    0    0  0.47424247371E+02  0.77732970000E+02 -0.17887087202E+03  0.23650287640E+03  0.12508935936E+03 0.  0.
          5    1    3    3  502    0  0.86705060778E+02  0.38755275355E+02 -0.13803076232E+03  0.16759982899E+03  0.41800000000E+01 0. -1.
         -5    1    3    3    0  502 -0.39280813407E+02  0.38977694644E+02 -0.40840109709E+02  0.68903047412E+02  0.41800000000E+01 0. -1.
        -11    1    1    2    0    0  0.15025252855E+02 -0.43961910171E+02 -0.19371725467E+02  0.50335588968E+02  0.00000000000E+00 0.  1.
         11    1    1    2    0    0 -0.62449500225E+02 -0.33771059829E+02 -0.12234702362E+03  0.14145394568E+03  0.00000000000E+00 0. -1.
</event>
<event>
 7    1  0.2810263E-009  0.3824459E+03  0.7561462E-02  0.1050033E+00
          2   -1    0    0  501    0  0.00000000000E+00  0.00000000000E+00  0.32760047374E+04  0.32760047374E+04  0.00000000000E+00 0. -1.
         -2   -1    0    0    0  501 -0.00000000000E+00 -0.00000000000E+00 -0.50371850677E+02  0.50371850677E+02  0.00000000000E+00 0.  1.
         25    2    1    2    0    0 -0.15222072996E+03 -0.34787775426E+03  0.20185211072E+04  0.20577331702E+04  0.12509299388E+03 0.  0.
          5    1    3    3  502    0 -0.23841136433E+02 -0.31380542979E+02  0.48579277295E+03  0.48740663610E+03  0.41800000000E+01 0. -1.
         -5    1    3    3    0  502 -0.12837959353E+03 -0.31649721128E+03  0.15327283342E+04  0.15703265341E+04  0.41800000000E+01 0. -1.
        -11    1    1    2    0    0  0.53755569759E+02  0.19145526736E+03  0.74106489253E+03  0.76728218773E+03  0.00000000000E+00 0. -1.
         11    1    1    2    0    0  0.98465160206E+02  0.15642248690E+03  0.46604688704E+03  0.50136123015E+03  0.00000000000E+00 0.  1.
</event>
<event>
 7    1  0.2810263E-009  0.1194901E+03  0.7561462E-02  0.1243941E+00
         -2   -1    0    0    0  501 -0.00000000000E+00  0.00000000000E+00  0.19245629798E+02  0.19245629798E+02  0.00000000000E+00 0. -1.
          2   -1    0    0  501    0  0.00000000000E+00 -0.00000000000E+00 -0.83407952172E+03  0.83407952172E+03  0.00000000000E+00 0.  1.
         25    2    1    2    0    0  0.45379762528E+02 -0.42808644619E+02 -0.39699128325E+03  0.42087837055E+03  0.12507845905E+03 0.  0.
          5    1    3    3  502    0 -0.29523656680E+02 -0.46619751825E+02 -0.97499448577E+02  0.11211004610E+03  0.41800000000E+01 0.  1.
         -5    1    3    3    0  502  0.74903419208E+02  0.38111072063E+01 -0.29949183467E+03  0.30876832445E+03  0.41800000000E+01 0.  1.
        -11    1    1    2    0    0 -0.57381075245E+02  0.62887198664E+02 -0.36252664333E+03  0.37238817741E+03  0.00000000000E+00 0.  1.
         11    1    1    2    0    0  0.12001312717E+02 -0.20078554046E+02 -0.55315965347E+02  0.60058603562E+02  0.00000000000E+00 0. -1.
</event>
<event>
 7    1  0.2810263E-009  0.8899465E+02  0.7561462E-02  0.1305305E+00
         -1   -1    0    0    0  501 -0.00000000000E+00  0.00000000000E+00  0.52691263560E+02  0.52691263560E+02  0.00000000000E+00 0.  1.
          1   -1    0    0  501    0  0.00000000000E+00 -0.00000000000E+00 -0.33545416332E+03  0.33545416332E+03  0.00000000000E+00 0. -1.
         25    2    1    2    0    0 -0.60672228001E+02  0.22136747835E+02 -0.21662296293E+03  0.25835415393E+03  0.12510078309E+03 0.  0.
          5    1    3    3  502    0 -0.51254241937E+02  0.95840168170E+01 -0.12757783622E+02  0.53843143833E+02  0.41800000000E+01 0. -1.
         -5    1    3    3    0  502 -0.94179860642E+01  0.12552731018E+02 -0.20386517931E+03  0.20451101010E+03  0.41800000000E+01 0. -1.
        -11    1    1    2    0    0  0.45634684292E+02 -0.56087578147E+02 -0.55540270063E+02  0.91175997014E+02  0.00000000000E+00 0. -1.
         11    1    1    2    0    0  0.15037543709E+02  0.33950830312E+02 -0.10599666763E+02  0.38615275930E+02  0.00000000000E+00 0.  1.
</event>
<event>
 7    1  0.2810263E-009  0.1308974E+03  0.7561462E-02  0.1226130E+00
          1   -1    0    0  501    0  0.00000000000E+00  0.00000000000E+00  0.24372944810E+03  0.24372944810E+03  0.00000000000E+00 0. -1.
         -1   -1    0    0    0  501 -0.00000000000E+00 -0.00000000000E+00 -0.28314941629E+03  0.28314941629E+03  0.00000000000E+00 0.  1.
         25    2    1    2    0    0 -0.17405461279E+02 -0.11309734375E+03  0.19025749505E+03  0.25483971479E+03  0.12510558168E+03 0.  0.
          5    1    3    3  502    0 -0.35485757599E+01 -0.67229623353E+01  0.13278690337E+03  0.13306999932E+03  0.41800000000E+01 0. -1.
         -5    1    3    3    0  502 -0.13856885519E+02 -0.10637438141E+03  0.57470591678E+02  0.12176971547E+03  0.41800000000E+01 0. -1.
        -11    1    1    2    0    0  0.39114920858E+02  0.11730227771E+03 -0.19647354763E+03  0.23214576521E+03  0.00000000000E+00 0.  1.
         11    1    1    2    0    0 -0.21709459579E+02 -0.42049339643E+01 -0.33203915613E+02  0.39893384375E+02  0.00000000000E+00 0. -1.
</event>
<event>
 7    1  0.2810263E-009  0.1061448E+03  0.7561462E-02  0.1267880E+00
         -1   -1    0    0    0  501 -0.00000000000E+00  0.00000000000E+00  0.59966256669E+02  0.59966256669E+02  0.00000000000E+00 0.  1.
          1   -1    0    0  501    0  0.00000000000E+00 -0.00000000000E+00 -0.21297540346E+03  0.21297540346E+03  0.00000000000E+00 0. -1.
         25    2    1    2    0    0  0.26643511564E+02  0.17992108880E+02 -0.75349516852E+02  0.14953321112E+03  0.12509611844E+03 0.  0.
          5    1    3    3  502    0  0.49688748032E+02 -0.34168416641E+02 -0.76672019024E+01  0.60932017543E+02  0.41800000000E+01 0.  1.
         -5    1    3    3    0  502 -0.23045236468E+02  0.52160525522E+02 -0.67682314950E+02  0.88601193579E+02  0.41800000000E+01 0.  1.
        -11    1    1    2    0    0  0.12792817472E+02  0.29961000888E+02 -0.17608255292E+02  0.37031991676E+02  0.00000000000E+00 0. -1.
         11    1    1    2    0    0 -0.39436329037E+02 -0.47953109768E+02 -0.60051374644E+02  0.86376457330E+02  0.00000000000E+00 0.  1.
</event>
<event>
 7    1  0.2810263E-009  0.9650705E+02  0.7561462E-02  0.1287817E+00
          3   -1    0    0  501    0  0.00000000000E+00  0.00000000000E+00  0.12872113271E+03  0.12872113271E+03  0.00000000000E+00 0. -1.
         -3   -1    0    0    0  501 -0.00000000000E+00 -0.00000000000E+00 -0.10150008529E+03  0.10150008529E+03  0.00000000000E+00 0.  1.
         25    2    1    2    0    0  0.29709802627E+02  0.12830603363E+02  0.29559948658E+02  0.13254627794E+03  0.12508968173E+03 0.  0.
          5    1    3    3  502    0  0.27058123796E+02 -0.50150865633E+02 -0.10000559026E+02  0.58006335584E+02  0.41800000000E+01 0. -1.
         -5    1    3    3    0  502  0.26516788309E+01  0.62981468996E+02  0.39560507685E+02  0.74539942351E+02  0.41800000000E+01 0. -1.
        -11    1    1    2    0    0 -0.20972920120E+02 -0.39453079029E+02  0.30807441725E+02  0.54272527939E+02  0.00000000000E+00 0. -1.
         11    1    1    2    0    0 -0.87368825070E+01  0.26622475667E+02 -0.33146342958E+02  0.43402412123E+02  0.00000000000E+00 0.  1.
</event>
<event>
 7    1  0.2810263E-009  0.1203673E+03  0.7561462E-02  0.1242492E+00
          1   -1    0    0  501    0  0.00000000000E+00  0.00000000000E+00  0.22813291066E+03  0.22813291066E+03  0.00000000000E+00 0. -1.
         -1   -1    0    0    0  501 -0.00000000000E+00 -0.00000000000E+00 -0.84390664885E+02  0.84390664885E+02  0.00000000000E+00 0.  1.
         25    2    1    2    0    0 -0.75981186176E+02 -0.44339874269E+02  0.79501936847E+02  0.17236016863E+03  0.12509318393E+03 0.  0.
          5    1    3    3  502    0 -0.10227677745E+03 -0.46029408701E+01  0.38839443895E+02  0.10957965629E+03  0.41800000000E+01 0.  1.
         -5    1    3    3    0  502  0.26295591276E+02 -0.39736933399E+02  0.40662492951E+02  0.62780512339E+02  0.41800000000E+01 0.  1.
        -11    1    1    2    0    0  0.63492372762E+01  0.12182332048E+02 -0.21253875785E+02  0.25307099083E+02  0.00000000000E+00 0.  1.
         11    1    1    2    0    0  0.69631948899E+02  0.32157542221E+02  0.85494184717E+02  0.11485630784E+03  0.00000000000E+00 0. -1.
</event>
<event>
 7    1  0.2810263E-009  0.1016795E+03  0.7561462E-02  0.1276803E+00
          2   -1    0    0  501    0  0.00000000000E+00  0.00000000000E+00  0.48470550416E+02  0.48470550416E+02  0.00000000000E+00 0. -1.
         -2   -1    0    0    0  501 -0.00000000000E+00 -0.00000000000E+00 -0.45021880716E+03  0.45021880716E+03  0.00000000000E+00 0.  1.
         25    2    1    2    0    0 -0.48688686551E+02 -0.42770477174E+02 -0.34161911736E+03  0.36952834376E+03  0.12509066146E+03 0.  0.
          5    1    3    3  502    0 -0.66224701618E+02 -0.34264568994E+02 -0.89251410398E+02  0.11637464694E+03  0.41800000000E+01 0.  1.
         -5    1    3    3    0  502  0.17536015067E+02 -0.85059081806E+01 -0.25236770696E+03  0.25315369682E+03  0.41800000000E+01 0.  1.
        -11    1    1    2    0    0 -0.45473068585E+01  0.54121472620E+02 -0.10127435817E+02  0.55248319019E+02  0.00000000000E+00 0. -1.
         11    1    1    2    0    0  0.53235993410E+02 -0.11350995446E+02 -0.50001703570E+02  0.73912694795E+02  0.00000000000E+00 0.  1.
</event>
<event>
 7    1  0.2810263E-009  0.9426035E+02  0.7561462E-02  0.1292851E+00
         -3   -1    0    0    0  501 -0.00000000000E+00  0.00000000000E+00  0.49053572148E+03  0.49053572148E+03  0.00000000000E+00 0.  1.
          3   -1    0    0  501    0  0.00000000000E+00 -0.00000000000E+00 -0.34261761837E+02  0.34261761837E+02  0.00000000000E+00 0. -1.
         25    2    1    2    0    0 -0.36880222221E+01  0.54988579283E+02  0.36073878461E+03  0.38576822936E+03  0.12508921097E+03 0.  0.
          5    1    3    3  502    0 -0.34712471206E+02  0.27236432535E+01  0.29125307232E+03  0.29335677669E+03  0.41800000000E+01 0.  1.
         -5    1    3    3    0  502  0.31024448984E+02  0.52264936029E+02  0.69485712287E+02  0.92411452671E+02  0.41800000000E+01 0.  1.
        -11    1    1    2    0    0 -0.12337648779E+02  0.15744537632E+02  0.48824110062E+02  0.52762692938E+02  0.00000000000E+00 0.  1.
         11    1    1    2    0    0  0.16025671002E+02 -0.70733116915E+02  0.46711064969E+02  0.86266561019E+02  0.00000000000E+00 0. -1.
</event>
<event>
 7    1  0.2810263E-009  0.9403307E+02  0.7561462E-02  0.1293369E+00
          1   -1    0    0  501    0  0.00000000000E+00  0.00000000000E+00  0.15474900820E+03  0.15474900820E+03  0.00000000000E+00 0. -1.
         -1   -1    0    0    0  501 -0.00000000000E+00 -0.00000000000E+00 -0.92736728975E+02  0.92736728975E+02  0.00000000000E+00 0.  1.
         25    2    1    2    0    0  0.97541727566E+01  0.28036322643E+02  0.54275474342E+02  0.13954959035E+03  0.12508829593E+03 0.  0.
          5    1    3    3  502    0 -0.22415224783E+02  0.71087167254E+02  0.31990922644E+02  0.81220189497E+02  0.41800000000E+01 0. -1.
         -5    1    3    3    0  502  0.32169397539E+02 -0.43050844611E+02  0.22284551698E+02  0.58329400856E+02  0.41800000000E+01 0. -1.
        -11    1    1    2    0    0  0.12221230191E+02  0.98580707957E+01 -0.40104937833E+02  0.43069084803E+02  0.00000000000E+00 0.  1.
         11    1    1    2    0    0 -0.21975402947E+02 -0.37894393439E+02  0.47841742713E+02  0.64867062016E+02  0.00000000000E+00 0. -1.
</event>
<event>
 7    1  0.3859006E-009  0.1222172E+03  0.7561462E-02  0.1239484E+00
          2   -1    0    0  501    0  0.00000000000E+00  0.00000000000E+00  0.44623353430E+03  0.44623353430E+03  0.00000000000E+00 0. -1.
         -2   -1    0    0    0  501 -0.00000000000E+00 -0.00000000000E+00 -0.46985663645E+02  0.46985663645E+02  0.00000000000E+00 0.  1.
         25    2    1    2    0    0 -0.41824173642E+02 -0.84892330787E+02  0.23415357399E+03  0.28183867262E+03  0.12509665001E+03 0.  0.
          5    1    3    3  502    0 -0.64608755135E+02 -0.39503882905E+01  0.14693135197E+03  0.16061192795E+03  0.41800000000E+01 0.  1.
         -5    1    3    3    0  502  0.22784581493E+02 -0.80941942496E+02  0.87222222020E+02  0.12122674467E+03  0.41800000000E+01 0.  1.
        -11    1    1    2    0    0  0.20787157640E+02  0.29182614051E+02 -0.48463096206E-01  0.35829223188E+02  0.00000000000E+00 0.  1.
         11    1    1    2    0    0  0.21037016002E+02  0.55709716736E+02  0.16514275977E+03  0.17555130214E+03  0.00000000000E+00 0. -1.
</event>
<event>
 7    1  0.2810263E-009  0.1658023E+03  0.7561462E-02  0.1182297E+00
          2   -1    0    0  501    0  0.00000000000E+00  0.00000000000E+00  0.80018964063E+03  0.80018964063E+03  0.00000000000E+00 0. -1.
         -2   -1    0    0    0  501 -0.00000000000E+00 -0.00000000000E+00 -0.36687547871E+02  0.36687547871E+02  0.00000000000E+00 0.  1.
         25    2    1    2    0    0  0.75083411986E+02 -0.10750446138E+03  0.45663266701E+03  0.49128078684E+03  0.12509472797E+03 0.  0.
          5    1    3    3  502    0  0.10196667674E+03 -0.56108304159E+02  0.36135722647E+03  0.37966019344E+03  0.41800000000E+01 0.  1.
         -5    1    3    3    0  502 -0.26883264754E+02 -0.51396157224E+02  0.95275440538E+02  0.11162059340E+03  0.41800000000E+01 0.  1.
        -11    1    1    2    0    0 -0.24127396080E+02 -0.12095706007E+02  0.34593479480E+02  0.43876487644E+02  0.00000000000E+00 0.  1.
         11    1    1    2    0    0 -0.50956015906E+02  0.11960016739E+03  0.27227594627E+03  0.30171991401E+03  0.00000000000E+00 0. -1.
</event>
<event>
 7    1  0.2810263E-009  0.1469828E+03  0.7561462E-02  0.1204230E+00
         -2   -1    0    0    0  501 -0.00000000000E+00  0.00000000000E+00  0.16022115738E+03  0.16022115738E+03  0.00000000000E+00 0.  1.
          2   -1    0    0  501    0  0.00000000000E+00 -0.00000000000E+00 -0.17087178198E+03  0.17087178198E+03  0.00000000000E+00 0. -1.
         25    2    1    2    0    0  0.45833015539E+02 -0.11038334808E+03 -0.33890193108E+02  0.17629849200E+03  0.12508982471E+03 0.  0.
          5    1    3    3  502    0  0.62949561428E+02 -0.48915893528E+02  0.30588413641E+02  0.85489972351E+02  0.41800000000E+01 0. -1.
         -5    1    3    3    0  502 -0.17116545889E+02 -0.61467454553E+02 -0.64478606749E+02  0.90808519648E+02  0.41800000000E+01 0. -1.
        -11    1    1    2    0    0 -0.63248531166E+02  0.33918742680E+02 -0.37232427051E+01  0.71865988729E+02  0.00000000000E+00 0. -1.
         11    1    1    2    0    0  0.17415515627E+02  0.76464605401E+02  0.26962811215E+02  0.82928458639E+02  0.00000000000E+00 0.  1.
</event>
<event>
 7    1  0.2810263E-009  0.1101087E+03  0.7561462E-02  0.1260369E+00
          2   -1    0    0  501    0  0.00000000000E+00  0.00000000000E+00  0.43672957293E+02  0.43672957293E+02  0.00000000000E+00 0. -1.
         -2   -1    0    0    0  501 -0.00000000000E+00 -0.00000000000E+00 -0.46690542312E+03  0.46690542312E+03  0.00000000000E+00 0.  1.
         25    2    1    2    0    0  0.13148311100E+02  0.92349776301E+02 -0.23092516120E+03  0.27870267507E+03  0.12508953492E+03 0.  0.
          5    1    3    3  502    0  0.26013024241E+02 -0.63846763556E+01 -0.14379377710E+03  0.14632690885E+03  0.41800000000E+01 0.  1.
         -5    1    3    3    0  502 -0.12864713141E+02  0.98734452657E+02 -0.87131384099E+02  0.13237576621E+03  0.41800000000E+01 0.  1.
        -11    1    1    2    0    0 -0.21712144659E+01 -0.34567056668E+02 -0.16209440186E+03  0.16575340327E+03  0.00000000000E+00 0.  1.
         11    1    1    2    0    0 -0.10977096634E+02 -0.57782719633E+02 -0.30212902766E+02  0.66122302079E+02  0.00000000000E+00 0. -1.
</event>
<event>
 7    1  0.2810263E-009  0.1371062E+03  0.7561462E-02  0.1217277E+00
         -1   -1    0    0    0  501 -0.00000000000E+00  0.00000000000E+00  0.20348404487E+02  0.20348404487E+02  0.00000000000E+00 0.  1.
          1   -1    0    0  501    0  0.00000000000E+00 -0.00000000000E+00 -0.10307186400E+04  0.10307186400E+04  0.00000000000E+00 0. -1.
         25    2    1    2    0    0  0.29191683241E+02  0.96505580339E+02 -0.57030892479E+03  0.59250617380E+03  0.12508323183E+03 0.  0.
          5    1    3    3  502    0 -0.26741420711E+02  0.94128230293E+02 -0.27530446211E+03  0.29220754024E+03  0.41800000000E+01 0.  1.
         -5    1    3    3    0  502  0.55933103952E+02  0.23773500457E+01 -0.29500446268E+03  0.30029863355E+03  0.41800000000E+01 0.  1.
        -11    1    1    2    0    0  0.19880692460E+02 -0.43890508913E+02 -0.10040147073E+03  0.11136459953E+03  0.00000000000E+00 0.  1.
         11    1    1    2    0    0 -0.49072375701E+02 -0.52615071426E+02 -0.33965984004E+03  0.34719627120E+03  0.00000000000E+00 0. -1.
</event>
<event>
 7    1  0.2810263E-009  0.1435111E+03  0.7561462E-02  0.1208681E+00
          1   -1    0    0  501    0  0.00000000000E+00  0.00000000000E+00  0.33920326441E+02  0.33920326441E+02  0.00000000000E+00 0. -1.
         -1   -1    0    0    0  501 -0.00000000000E+00 -0.00000000000E+00 -0.62287484833E+03  0.62287484833E+03  0.00000000000E+00 0.  1.
         25    2    1    2    0    0  0.83883876217E+02  0.47067391340E+02 -0.28833899938E+03  0.32869269918E+03  0.12509063881E+03 0.  0.
          5    1    3    3  502    0  0.56199277240E+02  0.90116906004E+02 -0.18746974907E+03  0.21550358403E+03  0.41800000000E+01 0. -1.
         -5    1    3    3    0  502  0.27684598977E+02 -0.43049514663E+02 -0.10086925030E+03  0.11318911516E+03  0.41800000000E+01 0. -1.
        -11    1    1    2    0    0  0.15043592194E+02  0.70566196968E+01 -0.61920337122E+02  0.64111104318E+02  0.00000000000E+00 0.  1.
         11    1    1    2    0    0 -0.98927468410E+02 -0.54124011037E+02 -0.23869518539E+03  0.26399137127E+03  0.00000000000E+00 0. -1.
</event>
<event>
 7    1  0.2810263E-009  0.9823861E+02  0.7561462E-02  0.1284044E+00
         -1   -1    0    0    0  501 -0.00000000000E+00  0.00000000000E+00  0.40942788030E+02  0.40942788030E+02  0.00000000000E+00 0.  1.
          1   -1    0    0  501    0  0.00000000000E+00 -0.00000000000E+00 -0.46482001411E+03  0.46482001411E+03  0.00000000000E+00 0. -1.
         25    2    1    2    0    0 -0.34890908411E+02  0.71974774456E+02 -0.18342378859E+03  0.23598801109E+03  0.12509321128E+03 0.  0.
          5    1    3    3  502    0 -0.15051646530E+00 -0.12726360346E+01 -0.14691478139E+03  0.14697982055E+03  0.41800000000E+01 0.  1.
         -5    1    3    3    0  502 -0.34740391946E+02  0.73247410490E+02 -0.36509007199E+02  0.89008190537E+02  0.41800000000E+01 0.  1.
        -11    1    1    2    0    0 -0.35848442918E+01  0.15212716728E+02 -0.92322827168E+02  0.93636436685E+02  0.00000000000E+00 0. -1.
         11    1    1    2    0    0  0.38475752703E+02 -0.87187491184E+02 -0.14813061032E+03  0.17613835437E+03  0.00000000000E+00 0.  1.
</event>
<event>
 7    1  0.2810263E-009  0.8763087E+02  0.7561462E-02  0.1308692E+00
         -2   -1    0    0    0  501 -0.00000000000E+00  0.00000000000E+00  0.19259162625E+02  0.19259162625E+02  0.00000000000E+00 0.  1.
          2   -1    0    0  501    0  0.00000000000E+00 -0.00000000000E+00 -0.80249609665E+03  0.80249609665E+03  0.00000000000E+00 0. -1.
         25    2    1    2    0    0 -0.47838384664E+02  0.23006803492E+02 -0.45672698604E+03  0.47651320958E+03  0.12508986800E+03 0.  0.
          5    1    3    3  502    0 -0.35883726527E+02 -0.26645865236E+01 -0.25411383956E+02  0.44248759139E+02  0.41800000000E+01 0. -1.
         -5    1    3    3    0  502 -0.11954658138E+02  0.25671390016E+02 -0.43131560208E+03  0.43226445044E+03  0.41800000000E+01 0. -1.
        -11    1    1    2    0    0  0.76200060389E+02 -0.28806683316E+02 -0.26542175277E+03  0.27764182151E+03  0.00000000000E+00 0.  1.
         11    1    1    2    0    0 -0.28361675724E+02  0.57998798234E+01 -0.61088195221E+02  0.67600228189E+02  0.00000000000E+00 0. -1.
</event>
<event>
 7    1  0.2810263E-009  0.1318567E+03  0.7561462E-02  0.1224727E+00
          2   -1    0    0  501    0  0.00000000000E+00  0.00000000000E+00  0.95192409523E+03  0.95192409523E+03  0.00000000000E+00 0. -1.
         -2   -1    0    0    0  501 -0.00000000000E+00 -0.00000000000E+00 -0.23381222609E+02  0.23381222609E+02  0.00000000000E+00 0.  1.
         25    2    1    2    0    0  0.82873696618E+02 -0.59865649506E+02  0.52627605814E+03  0.55051407101E+03  0.12508919789E+03 0.  0.
          5    1    3    3  502    0 -0.19095536728E+01 -0.41205683393E+02  0.36466787500E+03  0.36701728324E+03  0.41800000000E+01 0. -1.
         -5    1    3    3    0  502  0.84783250291E+02 -0.18659966112E+02  0.16160818313E+03  0.18349678776E+03  0.41800000000E+01 0. -1.
        -11    1    1    2    0    0 -0.63529630225E+01  0.58461394716E+02  0.14796060290E+03  0.15921819878E+03  0.00000000000E+00 0.  1.
         11    1    1    2    0    0 -0.76520733595E+02  0.14042547900E+01  0.25430621159E+03  0.26557304806E+03  0.00000000000E+00 0. -1.
</event>
<event>
 7    1  0.2810263E-009  0.1412846E+03  0.7561462E-02  0.1211611E+00
          1   -1    0    0  501    0  0.00000000000E+00  0.00000000000E+00  0.91107411891E+03  0.91107411891E+03  0.00000000000E+00 0. -1.
         -1   -1    0    0    0  501 -0.00000000000E+00 -0.00000000000E+00 -0.25607615299E+02  0.25607615299E+02  0.00000000000E+00 0.  1.
         25    2    1    2    0    0 -0.50140763536E+02  0.75582813359E+02  0.30221857192E+03  0.33942854437E+03  0.12509521844E+03 0.  0.
          5    1    3    3  502    0  0.23228089452E+02  0.77418813366E+02  0.16348636055E+03  0.18242389999E+03  0.41800000000E+01 0.  1.
         -5    1    3    3    0  502 -0.73368852988E+02 -0.18360000069E+01  0.13873221137E+03  0.15700464438E+03  0.41800000000E+01 0.  1.
        -11    1    1    2    0    0  0.50790447715E+02 -0.95514936883E+02  0.50937778949E+03  0.52073842299E+03  0.00000000000E+00 0. -1.
         11    1    1    2    0    0 -0.64968417937E+00  0.19932123524E+02  0.73870142207E+02  0.76514766858E+02  0.00000000000E+00 0.  1.
</event>
<event>
 7    1  0.2810263E-009  0.1824677E+03  0.7561462E-02  0.1165436E+00
          2   -1    0    0  501    0  0.00000000000E+00  0.00000000000E+00  0.48100490935E+03  0.48100490935E+03  0.00000000000E+00 0.  1.
         -2   -1    0    0    0  501 -0.00000000000E+00 -0.00000000000E+00 -0.80044831300E+02  0.80044831300E+02  0.00000000000E+00 0. -1.
         25    2    1    2    0    0  0.14658227959E+03 -0.67256363222E+02  0.23754444435E+03  0.31318454256E+03  0.12508961415E+03 0.  0.
          5    1    3    3  502    0 -0.14626575407E+02 -0.33626484884E+02  0.64185969936E+02  0.74040450636E+02  0.41800000000E+01 0. -1.
         -5    1    3    3    0  502  0.16120885500E+03 -0.33629878339E+02  0.17335847442E+03  0.23914409192E+03  0.41800000000E+01 0. -1.
        -11    1    1    2    0    0 -0.10839174611E+03  0.36867465434E+02  0.51045929471E+02  0.12535416845E+03  0.00000000000E+00 0. -1.
         11    1    1    2    0    0 -0.38190533482E+02  0.30388897789E+02  0.11236970422E+03  0.12251102964E+03  0.00000000000E+00 0.  1.
</event>
<event>
 7    1  0.2810263E-009  0.1257506E+03  0.7561462E-02  0.1233901E+00
         -2   -1    0    0    0  501 -0.00000000000E+00  0.00000000000E+00  0.36806761822E+03  0.36806761822E+03  0.00000000000E+00 0.  1.
          2   -1    0    0  501    0  0.00000000000E+00 -0.00000000000E+00 -0.68952814721E+02  0.68952814721E+02  0.00000000000E+00 0. -1.
         25    2    1    2    0    0 -0.46506082127E+01 -0.85276316184E+02  0.50739341223E+02  0.15973691166E+03  0.12509085474E+03 0.  0.
          5    1    3    3  502    0  0.45697919933E+02  0.20399494465E+01  0.34751978554E+02  0.57598903578E+02  0.41800000000E+01 0.  1.
         -5    1    3    3    0  502 -0.50348528146E+02 -0.87316265631E+02  0.15987362669E+02  0.10213800808E+03  0.41800000000E+01 0.  1.
        -11    1    1    2    0    0 -0.24261439364E+02  0.14572748083E+02  0.15645338960E+02  0.32338198123E+02  0.00000000000E+00 0. -1.
         11    1    1    2    0    0  0.28912047576E+02  0.70703568101E+02  0.23273012332E+03  0.24494532316E+03  0.00000000000E+00 0.  1.
</event>
<event>
 7    1  0.2810263E-009  0.1318348E+03  0.7561462E-02  0.1224758E+00
         -2   -1    0    0    0  501 -0.00000000000E+00  0.00000000000E+00  0.14200029671E+03  0.14200029671E+03  0.00000000000E+00 0.  1.
          2   -1    0    0  501    0  0.00000000000E+00 -0.00000000000E+00 -0.16809803727E+03  0.16809803727E+03  0.00000000000E+00 0. -1.
         25    2    1    2    0    0  0.30014219800E+02  0.10295685547E+03  0.10247351874E+02  0.16508668740E+03  0.12509052185E+03 0.  0.
          5    1    3    3  502    0  0.49812514919E+02  0.61213224852E+02  0.58367185425E+02  0.98247372859E+02  0.41800000000E+01 0.  1.
         -5    1    3    3    0  502 -0.19798295119E+02  0.41743630623E+02 -0.48119833551E+02  0.66839314540E+02  0.41800000000E+01 0.  1.
        -11    1    1    2    0    0 -0.58986584815E+02 -0.87179479693E+02 -0.38181046924E+02  0.11197084983E+03  0.00000000000E+00 0.  1.
         11    1    1    2    0    0  0.28972365014E+02 -0.15777375781E+02  0.18359544917E+01  0.33040796751E+02  0.00000000000E+00 0. -1.
</event>
<event>
 7    1  0.2810263E-009  0.1042067E+03  0.7561462E-02  0.1271691E+00
          1   -1    0    0  501    0  0.00000000000E+00  0.00000000000E+00  0.24448262123E+03  0.24448262123E+03  0.00000000000E+00 0. -1.
         -1   -1    0    0    0  501 -0.00000000000E+00 -0.00000000000E+00 -0.50713652919E+02  0.50713652919E+02  0.00000000000E+00 0.  1.
         25    2    1    2    0    0  0.16141999055E+02  0.68154198825E+01  0.13253916598E+03  0.18308698745E+03  0.12508876997E+03 0.  0.
          5    1    3    3  502    0  0.52472282967E+02  0.39306906914E+02  0.11238781004E+03  0.13018012774E+03  0.41800000000E+01 0. -1.
         -5    1    3    3    0  502 -0.36330283911E+02 -0.32491487031E+02  0.20151355937E+02  0.52906859713E+02  0.41800000000E+01 0. -1.
        -11    1    1    2    0    0  0.33380544837E+02 -0.24291574619E+02  0.24236703899E+02  0.47872321721E+02  0.00000000000E+00 0.  1.
         11    1    1    2    0    0 -0.49522543893E+02  0.17476154737E+02  0.36993098427E+02  0.64236964975E+02  0.00000000000E+00 0. -1.
</event>
<event>
 7    1  0.2810263E-009  0.1111598E+03  0.7561462E-02  0.1258437E+00
          1   -1    0    0  501    0  0.00000000000E+00  0.00000000000E+00  0.59349092283E+02  0.59349092283E+02  0.00000000000E+00 0. -1.
         -1   -1    0    0    0  501 -0.00000000000E+00 -0.00000000000E+00 -0.37652412152E+03  0.37652412152E+03  0.00000000000E+00 0.  1.
         25    2    1    2    0    0  0.10136006014E+03 -0.11111908052E+02 -0.16003092836E+03  0.22727228551E+03  0.12508180298E+03 0.  0.
          5    1    3    3  502    0  0.33066769622E+02  0.86892984828E+01 -0.15169631522E+03  0.15555757652E+03  0.41800000000E+01 0. -1.
         -5    1    3    3    0  502  0.68293290518E+02 -0.19801206535E+02 -0.83346131495E+01  0.71714708996E+02  0.41800000000E+01 0. -1.
        -11    1    1    2    0    0 -0.21331245615E+02 -0.21446491152E+02 -0.10131537544E+03  0.10573447557E+03  0.00000000000E+00 0.  1.
         11    1    1    2    0    0 -0.80028814526E+02  0.32558399203E+02 -0.55828725429E+02  0.10286645272E+03  0.00000000000E+00 0. -1.
</event>
<event>
 7    1  0.2810263E-009  0.1403789E+03  0.7561462E-02  0.1212820E+00
         -1   -1    0    0    0  501 -0.00000000000E+00  0.00000000000E+00  0.19133549083E+03  0.19133549083E+03  0.00000000000E+00 0.  1.
          1   -1    0    0  501    0  0.00000000000E+00 -0.00000000000E+00 -0.14943902855E+03  0.14943902855E+03  0.00000000000E+00 0. -1.
         25    2    1    2    0    0  0.86055347378E+02 -0.19512272850E+02 -0.70625769785E+02  0.16858683140E+03  0.12508904332E+03 0.  0.
          5    1    3    3  502    0  0.60251040291E+02  0.49020129113E+02 -0.49714475956E+02  0.92315559003E+02  0.41800000000E+01 0.  1.
         -5    1    3    3    0  502  0.25804307087E+02 -0.68532401963E+02 -0.20911293829E+02  0.76271272395E+02  0.41800000000E+01 0.  1.
        -11    1    1    2    0    0  0.20667853372E+02 -0.19629479837E+01  0.25062454355E+02  0.32544430339E+02  0.00000000000E+00 0.  1.
         11    1    1    2    0    0 -0.10672320075E+03  0.21475220834E+02  0.87459777714E+02  0.13964325765E+03  0.00000000000E+00 0. -1.
</event>
<event>
 7    1  0.2810263E-009  0.1969984E+03  0.7561462E-02  0.1152296E+00
          2   -1    0    0  501    0  0.00000000000E+00  0.00000000000E+00  0.24279237226E+03  0.24279237226E+03  0.00000000000E+00 0.  1.
         -2   -1    0    0    0  501 -0.00000000000E+00 -0.00000000000E+00 -0.23166502467E+03  0.23166502467E+03  0.00000000000E+00 0. -1.
         25    2    1    2    0    0  0.18516357174E+03  0.36389822238E+02 -0.86515041573E+02  0.24236764999E+03  0.12508979928E+03 0.  0.
          5    1    3    3  502    0  0.27263918919E+02  0.31254851678E+02 -0.72601943720E+02  0.83717988868E+02  0.41800000000E+01 0. -1.
         -5    1    3    3    0  502  0.15789965282E+03  0.51349705599E+01 -0.13913097853E+02  0.15864966113E+03  0.41800000000E+01 0. -1.
        -11    1    1    2    0    0 -0.17197355443E+03 -0.45922096300E+02  0.54773908029E+02  0.18623620312E+03  0.00000000000E+00 0. -1.
         11    1    1    2    0    0 -0.13190017309E+02  0.95322740619E+01  0.42868481130E+02  0.45853543808E+02  0.00000000000E+00 0.  1.
</event>
<event>
 7    1  0.2810263E-009  0.1430131E+03  0.7561462E-02  0.1209331E+00
         -1   -1    0    0    0  501 -0.00000000000E+00  0.00000000000E+00  0.39014001827E+02  0.39014001827E+02  0.00000000000E+00 0.  1.
          1   -1    0    0  501    0  0.00000000000E+00 -0.00000000000E+00 -0.77625576206E+03  0.77625576206E+03  0.00000000000E+00 0. -1.
         25    2    1    2    0    0 -0.42345391385E+02 -0.84171018305E+02 -0.16213154124E+03  0.22541390637E+03  0.12508756943E+03 0.  0.
          5    1    3    3  502    0 -0.11851637445E+02 -0.11339444046E+03 -0.12119411175E+03  0.16644592383E+03  0.41800000000E+01 0.  1.
         -5    1    3    3    0  502 -0.30493753940E+02  0.29223422153E+02 -0.40937429487E+02  0.58967982539E+02  0.41800000000E+01 0.  1.
        -11    1    1    2    0    0 -0.24695337040E+02  0.46359132451E+02 -0.18985390425E+03  0.19698612589E+03  0.00000000000E+00 0.  1.
         11    1    1    2    0    0  0.67040728425E+02  0.37811885854E+02 -0.38525631475E+03  0.39286973164E+03  0.00000000000E+00 0. -1.
</event>
<event>
 7    1  0.2810263E-009  0.1742205E+03  0.7561462E-02  0.1173517E+00
         -2   -1    0    0    0  501 -0.00000000000E+00  0.00000000000E+00  0.13874922222E+03  0.13874922222E+03  0.00000000000E+00 0.  1.
          2   -1    0    0  501    0  0.00000000000E+00 -0.00000000000E+00 -0.23759629313E+03  0.23759629313E+03  0.00000000000E+00 0. -1.
         25    2    1    2    0    0  0.72916565288E+02  0.11703895157E+03 -0.10363744730E+03  0.21308078363E+03  0.12509099965E+03 0.  0.
          5    1    3    3  502    0  0.10807281623E+03  0.93632274852E+02 -0.72040199744E+02  0.16016865886E+03  0.41800000000E+01 0. -1.
         -5    1    3    3    0  502 -0.35156250939E+02  0.23406676717E+02 -0.31597247557E+02  0.52912124774E+02  0.41800000000E+01 0. -1.
        -11    1    1    2    0    0 -0.74743392726E+02 -0.37931476692E+02 -0.20363943018E+01  0.83842224338E+02  0.00000000000E+00 0. -1.
         11    1    1    2    0    0  0.18268274377E+01 -0.79107474877E+02  0.68267706959E+01  0.79422507377E+02  0.00000000000E+00 0.  1.
</event>
<event>
 7    1  0.2810263E-009  0.9794464E+02  0.7561462E-02  0.1284678E+00
         -2   -1    0    0    0  501 -0.00000000000E+00  0.00000000000E+00  0.19967890403E+02  0.19967890403E+02  0.00000000000E+00 0.  1.
          2   -1    0    0  501    0  0.00000000000E+00 -0.00000000000E+00 -0.88311854101E+03  0.88311854101E+03  0.00000000000E+00 0. -1.
         25    2    1    2    0    0  0.33511170330E+02  0.22481989131E+02 -0.69788623226E+03  0.71015587983E+03  0.12509093538E+03 0.  0.
          5    1    3    3  502    0  0.45482025798E+02  0.65821128012E+02 -0.54101824197E+03  0.54691795190E+03  0.41800000000E+01 0.  1.
         -5    1    3    3    0  502 -0.11970855468E+02 -0.43339138881E+02 -0.15686799029E+03  0.16323792794E+03  0.41800000000E+01 0.  1.
        -11    1    1    2    0    0  0.12742138112E+02  0.81639855340E+01  0.32832012475E+01  0.15485223728E+02  0.00000000000E+00 0.  1.
         11    1    1    2    0    0 -0.46253308442E+02 -0.30645974665E+02 -0.16854761960E+03  0.17744532785E+03  0.00000000000E+00 0. -1.
</event>
<event>
 7    1  0.2810263E-009  0.9515208E+02  0.7561462E-02  0.1290834E+00
         -2   -1    0    0    0  501 -0.00000000000E+00  0.00000000000E+00  0.84062058712E+02  0.84062058712E+02  0.00000000000E+00 0.  1.
          2   -1    0    0  501    0  0.00000000000E+00 -0.00000000000E+00 -0.24909499121E+03  0.24909499121E+03  0.00000000000E+00 0. -1.
         25    2    1    2    0    0 -0.36069319359E+02  0.16775101596E+02  0.94586602067E+01  0.13160275375E+03  0.12508964269E+03 0.  0.
          5    1    3    3  502    0  0.19478812039E+02  0.48029577189E+02  0.35141327286E+02  0.62758662245E+02  0.41800000000E+01 0. -1.
         -5    1    3    3    0  502 -0.55548131398E+02 -0.31254475593E+02 -0.25682667079E+02  0.68844091502E+02  0.41800000000E+01 0. -1.
        -11    1    1    2    0    0  0.30326028102E+02  0.20572728070E+02 -0.18498801249E+02  0.41050100710E+02  0.00000000000E+00 0.  1.
         11    1    1    2    0    0  0.57432912568E+01 -0.37347829666E+02 -0.15599279146E+03  0.16050419546E+03  0.00000000000E+00 0. -1.
</event>
<event>
 7    1  0.2810263E-009  0.1174130E+03  0.7561462E-02  0.1247427E+00
         -1   -1    0    0    0  501 -0.00000000000E+00  0.00000000000E+00  0.14810114537E+03  0.14810114537E+03  0.00000000000E+00 0.  1.
          1   -1    0    0  501    0  0.00000000000E+00 -0.00000000000E+00 -0.10289584936E+03  0.10289584936E+03  0.00000000000E+00 0. -1.
         25    2    1    2    0    0 -0.18653139226E+02  0.58576789963E+02  0.21765092309E+02  0.14106927727E+03  0.12509053449E+03 0.  0.
          5    1    3    3  502    0 -0.23485268053E+02 -0.34804580475E+02  0.21747928721E+02  0.47469584380E+02  0.41800000000E+01 0. -1.
         -5    1    3    3    0  502  0.48321288271E+01  0.93381370438E+02  0.17163588009E-01  0.93599692886E+02  0.41800000000E+01 0. -1.
        -11    1    1    2    0    0  0.47741794802E+02 -0.22756345375E+02 -0.88293308394E+01  0.53619840627E+02  0.00000000000E+00 0.  1.
         11    1    1    2    0    0 -0.29088655577E+02 -0.35820444587E+02  0.32269534544E+02  0.56307876832E+02  0.00000000000E+00 0. -1.
</event>
<event>
 7    1  0.2810263E-009  0.1285563E+03  0.7561462E-02  0.1229614E+00
         -2   -1    0    0    0  501 -0.00000000000E+00  0.00000000000E+00  0.12992587176E+02  0.12992587176E+02  0.00000000000E+00 0.  1.
          2   -1    0    0  501    0  0.00000000000E+00 -0.00000000000E+00 -0.14935823585E+04  0.14935823585E+04  0.00000000000E+00 0. -1.
         25    2    1    2    0    0 -0.19796534168E+02 -0.70784145421E+02 -0.10183092918E+04  0.10285927511E+04  0.12508771241E+03 0.  0.
          5    1    3    3  502    0  0.27038135079E+01  0.31153090213E+02 -0.11455396009E+03  0.11881880243E+03  0.41800000000E+01 0.  1.
         -5    1    3    3    0  502 -0.22500347676E+02 -0.10193723563E+03 -0.90375533176E+03  0.90977394870E+03  0.41800000000E+01 0.  1.
        -11    1    1    2    0    0 -0.33785849521E+02  0.19271667910E+01 -0.11213117072E+03  0.11712641481E+03  0.00000000000E+00 0.  1.
         11    1    1    2    0    0  0.53582383689E+02  0.68856978630E+02 -0.35014930876E+03  0.36085577975E+03  0.00000000000E+00 0. -1.
</event>
<event>
 7    1  0.4441071E-009  0.1305626E+03  0.7561462E-02  0.1226623E+00
         -1   -1    0    0    0  501 -0.00000000000E+00  0.00000000000E+00  0.30408962766E+02  0.30408962766E+02  0.00000000000E+00 0.  1.
          1   -1    0    0  501    0  0.00000000000E+00 -0.00000000000E+00 -0.86781976241E+03  0.86781976241E+03  0.00000000000E+00 0. -1.
         25    2    1    2    0    0 -0.10043776973E+03  0.54408098964E+02 -0.55048708612E+03  0.57596132827E+03  0.12508969926E+03 0.  0.
          5    1    3    3  502    0 -0.47364013619E+02 -0.23025881440E+02 -0.77914581098E+02  0.94136578171E+02  0.41800000000E+01 0. -1.
         -5    1    3    3    0  502 -0.53073756107E+02  0.77433980404E+02 -0.47257250502E+03  0.48182475010E+03  0.41800000000E+01 0. -1.
        -11    1    1    2    0    0  0.32582922246E+02 -0.15157198807E+02 -0.14434045334E+02  0.38726336807E+02  0.00000000000E+00 0.  1.
         11    1    1    2    0    0  0.67854847480E+02 -0.39250900156E+02 -0.27248966819E+03  0.28354106009E+03  0.00000000000E+00 0. -1.
</event>
<event>
 7    1  0.2810263E-009  0.1249223E+03  0.7561462E-02  0.1235191E+00
         -1   -1    0    0    0  501 -0.00000000000E+00  0.00000000000E+00  0.15704620691E+03  0.15704620691E+03  0.00000000000E+00 0.  1.
          1   -1    0    0  501    0  0.00000000000E+00 -0.00000000000E+00 -0.14364094861E+03  0.14364094861E+03  0.00000000000E+00 0. -1.
         25    2    1    2    0    0  0.68207155076E+02  0.77578674990E+02  0.16611431003E+02  0.16307291934E+03  0.12508465360E+03 0.  0.
          5    1    3    3  502    0  0.55755497572E+02  0.81263341493E+02  0.61443192773E+02  0.11621163676E+03  0.41800000000E+01 0. -1.
         -5    1    3    3    0  502  0.12451657503E+02 -0.36846665036E+01 -0.44831761770E+02  0.46861282582E+02  0.41800000000E+01 0. -1.
        -11    1    1    2    0    0  0.21681334219E+02 -0.26269747255E+02 -0.16424995737E+01  0.34100992350E+02  0.00000000000E+00 0. -1.
         11    1    1    2    0    0 -0.89888489295E+02 -0.51308927734E+02 -0.15636731314E+01  0.10351324382E+03  0.00000000000E+00 0.  1.
</event>
<event>
 7    1  0.2810263E-009  0.1675718E+03  0.7561462E-02  0.1180404E+00
         -2   -1    0    0    0  501 -0.00000000000E+00  0.00000000000E+00  0.90110203646E+03  0.90110203646E+03  0.00000000000E+00 0.  1.
          2   -1    0    0  501    0  0.00000000000E+00 -0.00000000000E+00 -0.34113713778E+02  0.34113713778E+02  0.00000000000E+00 0. -1.
         25    2    1    2    0    0  0.11833328910E+03  0.65830875704E+02  0.41291954052E+03  0.45220232826E+03  0.12509167532E+03 0.  0.
          5    1    3    3  502    0 -0.23356705930E+02  0.77758519437E+01  0.10948036382E+03  0.11229168290E+03  0.41800000000E+01 0.  1.
         -5    1    3    3    0  502  0.14168999503E+03  0.58055023761E+02  0.30343917670E+03  0.33991064536E+03  0.41800000000E+01 0.  1.
        -11    1    1    2    0    0 -0.99442751820E+02 -0.12265945932E+02  0.21367287563E+03  0.23599875444E+03  0.00000000000E+00 0.  1.
         11    1    1    2    0    0 -0.18890537278E+02 -0.53564929772E+02  0.24039590654E+03  0.24701466754E+03  0.00000000000E+00 0. -1.
</event>
<event>
 7    1  0.2810263E-009  0.1810692E+03  0.7561462E-02  0.1166772E+00
          2   -1    0    0  501    0  0.00000000000E+00  0.00000000000E+00  0.14927067627E+04  0.14927067627E+04  0.00000000000E+00 0. -1.
         -2   -1    0    0    0  501 -0.00000000000E+00 -0.00000000000E+00 -0.42541835853E+02  0.42541835853E+02  0.00000000000E+00 0.  1.
         25    2    1    2    0    0 -0.74903218054E+02 -0.12991880321E+03  0.12707033343E+04  0.12856217467E+04  0.12508766642E+03 0.  0.
          5    1    3    3  502    0  0.27436886307E+02 -0.53625564881E+01  0.32886515049E+03  0.33007771714E+03  0.41800000000E+01 0.  1.
         -5    1    3    3    0  502 -0.10234010436E+03 -0.12455624673E+03  0.94183818378E+03  0.95554402954E+03  0.41800000000E+01 0.  1.
        -11    1    1    2    0    0  0.18119495885E+02  0.11142819823E+03  0.10497551463E+03  0.15415712168E+03  0.00000000000E+00 0.  1.
         11    1    1    2    0    0  0.56783722169E+02  0.18490604981E+02  0.74486077929E+02  0.95469730182E+02  0.00000000000E+00 0. -1.
</event>
<event>
 7    1  0.2810263E-009  0.1189773E+03  0.7561462E-02  0.1244794E+00
          2   -1    0    0  501    0  0.00000000000E+00  0.00000000000E+00  0.17566293972E+03  0.17566293972E+03  0.00000000000E+00 0. -1.
         -2   -1    0    0    0  501 -0.00000000000E+00 -0.00000000000E+00 -0.13465185555E+03  0.13465185555E+03  0.00000000000E+00 0.  1.
         25    2    1    2    0    0 -0.19209373038E+02  0.98434739948E+02 -0.18290799733E+02  0.16136970254E+03  0.12508888641E+03 0.  0.
          5    1    3    3  502    0  0.36882872269E+02  0.35990959928E+02 -0.49636466533E+02  0.71672495932E+02  0.41800000000E+01 0. -1.
         -5    1    3    3    0  502 -0.56092245307E+02  0.62443780020E+02  0.31345666800E+02  0.89697206612E+02  0.41800000000E+01 0. -1.
        -11    1    1    2    0    0 -0.31609984536E+01 -0.31020561106E+02  0.70454352130E+02  0.77045978848E+02  0.00000000000E+00 0. -1.
         11    1    1    2    0    0  0.22370371492E+02 -0.67414178841E+02 -0.11152468221E+02  0.71899113882E+02  0.00000000000E+00 0.  1.
</event>
<event>
 7    1  0.2810263E-009  0.6720720E+02  0.7561462E-02  0.1369856E+00
         -1   -1    0    0    0  501 -0.00000000000E+00  0.00000000000E+00  0.70254163527E+02  0.70254163527E+02  0.00000000000E+00 0.  1.
          1   -1    0    0  501    0  0.00000000000E+00 -0.00000000000E+00 -0.18092170461E+03  0.18092170461E+03  0.00000000000E+00 0. -1.
         25    2    1    2    0    0 -0.29625711690E+02  0.79688000166E+01 -0.60445097121E+02  0.14226776324E+03  0.12508126209E+03 0.  0.
          5    1    3    3  502    0 -0.15476781468E+02 -0.68125252484E+01 -0.97871153602E+02  0.99409136262E+02  0.41800000000E+01 0. -1.
         -5    1    3    3    0  502 -0.14148930223E+02  0.14781325265E+02  0.37426056482E+02  0.42858626982E+02  0.41800000000E+01 0. -1.
        -11    1    1    2    0    0 -0.11711849561E+02 -0.41351196861E+02 -0.28126239054E+02  0.51363160195E+02  0.00000000000E+00 0.  1.
         11    1    1    2    0    0  0.41337561251E+02  0.33382396844E+02 -0.22096204912E+02  0.57544944702E+02  0.00000000000E+00 0. -1.
</event>
<event>
 7    1  0.2810263E-009  0.1117519E+03  0.7561462E-02  0.1257360E+00
          1   -1    0    0  501    0  0.00000000000E+00  0.00000000000E+00  0.89139040947E+02  0.89139040947E+02  0.00000000000E+00 0. -1.
         -1   -1    0    0    0  501 -0.00000000000E+00 -0.00000000000E+00 -0.22707197906E+03  0.22707197906E+03  0.00000000000E+00 0.  1.
         25    2    1    2    0    0 -0.84243083454E+02 -0.25401681764E+02 -0.48468815004E+02  0.16043147463E+03  0.12508752726E+03 0.  0.
          5    1    3    3  502    0 -0.10634528447E+03 -0.22092023260E+02 -0.20180436620E+01  0.10871486523E+03  0.41800000000E+01 0. -1.
         -5    1    3    3    0  502  0.22102201020E+02 -0.33096585034E+01 -0.46450771342E+02  0.51716609398E+02  0.41800000000E+01 0. -1.
        -11    1    1    2    0    0  0.14450029811E+02 -0.58648654737E+01 -0.76670259630E+02  0.78240198877E+02  0.00000000000E+00 0.  1.
         11    1    1    2    0    0  0.69793053643E+02  0.31266547238E+02 -0.12793863477E+02  0.77539346500E+02  0.00000000000E+00 0. -1.
</event>
<event>
 7    1  0.2810263E-009  0.1982710E+03  0.7561462E-02  0.1151206E+00
          1   -1    0    0  501    0  0.00000000000E+00  0.00000000000E+00  0.12729992445E+03  0.12729992445E+03  0.00000000000E+00 0. -1.
         -1   -1    0    0    0  501 -0.00000000000E+00 -0.00000000000E+00 -0.38407018048E+03  0.38407018048E+03  0.00000000000E+00 0.  1.
         25    2    1    2    0    0 -0.19147256385E+03 -0.10762675621E+02 -0.15097321369E+03  0.27425911938E+03  0.12509026906E+03 0.  0.
          5    1    3    3  502    0 -0.14440402750E+03 -0.84677986556E+01 -0.34822659809E+02  0.14884326256E+03  0.41800000000E+01 0. -1.
         -5    1    3    3    0  502 -0.47068536350E+02 -0.22948769656E+01 -0.11615055388E+03  0.12541585681E+03  0.41800000000E+01 0. -1.
        -11    1    1    2    0    0  0.16516219951E+03 -0.17284118902E+02 -0.10881046752E+03  0.19853717726E+03  0.00000000000E+00 0.  1.
         11    1    1    2    0    0  0.26310364346E+02  0.28046794524E+02  0.30134251786E+01  0.38573808295E+02  0.00000000000E+00 0. -1.
</event>
<event>
 7    1  0.2810263E-009  0.1141321E+03  0.7561462E-02  0.1253104E+00
         -1   -1    0    0    0  501 -0.00000000000E+00  0.00000000000E+00  0.80661783843E+03  0.80661783843E+03  0.00000000000E+00 0.  1.
          1   -1    0    0  501    0  0.00000000000E+00 -0.00000000000E+00 -0.29723802541E+02  0.29723802541E+02  0.00000000000E+00 0. -1.
         25    2    1    2    0    0 -0.21975535784E+02  0.92581037044E+02  0.57205903352E+03  0.59325864400E+03  0.12510039273E+03 0.  0.
          5    1    3    3  502    0 -0.28140098092E+02  0.91573003882E+02  0.20709948143E+03  0.22822170749E+03  0.41800000000E+01 0.  1.
         -5    1    3    3    0  502  0.61645623087E+01  0.10080331612E+01  0.36495955209E+03  0.36503693652E+03  0.41800000000E+01 0.  1.
        -11    1    1    2    0    0 -0.24362213718E+02 -0.68360416843E+02  0.81530055293E+02  0.10915041898E+03  0.00000000000E+00 0. -1.
         11    1    1    2    0    0  0.46337749502E+02 -0.24220620201E+02  0.12330494708E+03  0.13393257799E+03  0.00000000000E+00 0.  1.
</event>
<event>
 7    1  0.2810263E-009  0.9222113E+02  0.7561462E-02  0.1297560E+00
         -1   -1    0    0    0  501 -0.00000000000E+00  0.00000000000E+00  0.28675265790E+03  0.28675265790E+03  0.00000000000E+00 0.  1.
          1   -1    0    0  501    0  0.00000000000E+00 -0.00000000000E+00 -0.49292076054E+02  0.49292076054E+02  0.00000000000E+00 0. -1.
         25    2    1    2    0    0 -0.35082569337E+01 -0.24478887683E+02  0.75885426238E+02  0.14838160600E+03  0.12508788621E+03 0.  0.
          5    1    3    3  502    0  0.66460705357E+01  0.31234715315E+02  0.84974751020E+02  0.90873309642E+02  0.41800000000E+01 0. -1.
         -5    1    3    3    0  502 -0.10154327469E+02 -0.55713602998E+02 -0.90893247818E+01  0.57508296361E+02  0.41800000000E+01 0. -1.
        -11    1    1    2    0    0  0.54156151770E+00  0.59901424926E+02  0.10105381503E+03  0.11747488042E+03  0.00000000000E+00 0. -1.
         11    1    1    2    0    0  0.29666954160E+01 -0.35422537242E+02  0.60521340574E+02  0.70188247530E+02  0.00000000000E+00 0.  1.
</event>
<event>
 7    1  0.2810263E-009  0.1180294E+03  0.7561462E-02  0.1246384E+00
         -1   -1    0    0    0  501 -0.00000000000E+00  0.00000000000E+00  0.22669600820E+02  0.22669600820E+02  0.00000000000E+00 0.  1.
          1   -1    0    0  501    0  0.00000000000E+00 -0.00000000000E+00 -0.73874467604E+03  0.73874467604E+03  0.00000000000E+00 0. -1.
         25    2    1    2    0    0 -0.43567333220E+02 -0.21842928536E+02 -0.54651859387E+03  0.56276546236E+03  0.12508863308E+03 0.  0.
          5    1    3    3  502    0 -0.51263763946E+02  0.44051375814E+02 -0.28376769729E+03  0.29173631182E+03  0.41800000000E+01 0.  1.
         -5    1    3    3    0  502  0.76964307257E+01 -0.65894304350E+02 -0.26275089658E+03  0.27102915054E+03  0.41800000000E+01 0.  1.
        -11    1    1    2    0    0  0.46707630505E+02 -0.26311363690E+02 -0.10664543119E+03  0.11936137818E+03  0.00000000000E+00 0.  1.
         11    1    1    2    0    0 -0.31402972846E+01  0.48154292226E+02 -0.62911050159E+02  0.79287436324E+02  0.00000000000E+00 0. -1.
</event>
<event>
 7    1  0.2810263E-009  0.1464772E+03  0.7561462E-02  0.1204870E+00
          1   -1    0    0  501    0  0.00000000000E+00  0.00000000000E+00  0.30018049656E+03  0.30018049656E+03  0.00000000000E+00 0. -1.
         -1   -1    0    0    0  501 -0.00000000000E+00 -0.00000000000E+00 -0.11730133166E+03  0.11730133166E+03  0.00000000000E+00 0.  1.
         25    2    1    2    0    0 -0.10691898831E+03 -0.86668589176E+02  0.22267692459E+02  0.18731392180E+03  0.12509013056E+03 0.  0.
          5    1    3    3  502    0 -0.31254393905E+02 -0.31507136129E+02 -0.51445110090E+02  0.68070614201E+02  0.41800000000E+01 0.  1.
         -5    1    3    3    0  502 -0.75664594405E+02 -0.55161453047E+02  0.73712802549E+02  0.11924330760E+03  0.41800000000E+01 0.  1.
        -11    1    1    2    0    0  0.50731725687E+02  0.84328038293E+02  0.13813616979E+03  0.16960697933E+03  0.00000000000E+00 0.  1.
         11    1    1    2    0    0  0.56187262623E+02  0.23405508832E+01  0.22475302650E+02  0.60560927080E+02  0.00000000000E+00 0. -1.
</event>
<event>
 7    1  0.2810263E-009  0.9605570E+02  0.7561462E-02  0.1288816E+00
          1   -1    0    0  501    0  0.00000000000E+00  0.00000000000E+00  0.11637627470E+03  0.11637627470E+03  0.00000000000E+00 0. -1.
         -1   -1    0    0    0  501 -0.00000000000E+00 -0.00000000000E+00 -0.20885144931E+03  0.20885144931E+03  0.00000000000E+00 0.  1.
         25    2    1    2    0    0 -0.69342177124E+02 -0.20985410048E+02  0.38128468082E+02  0.14950676629E+03  0.12509903327E+03 0.  0.
          5    1    3    3  502    0 -0.56476969582E+02 -0.22511616215E+02  0.82798789908E+02  0.10280823395E+03  0.41800000000E+01 0. -1.
         -5    1    3    3    0  502 -0.12865207542E+02  0.15262061678E+01 -0.44670321827E+02  0.46698532337E+02  0.41800000000E+01 0. -1.
        -11    1    1    2    0    0  0.40104575768E+02 -0.35753309773E+02 -0.58953023661E+02  0.79762993650E+02  0.00000000000E+00 0.  1.
         11    1    1    2    0    0  0.29237601356E+02  0.56738719820E+02 -0.71650619031E+02  0.95957964064E+02  0.00000000000E+00 0. -1.
</event>
<event>
 7    1  0.2810263E-009  0.1116408E+03  0.7561462E-02  0.1257561E+00
         -2   -1    0    0    0  501 -0.00000000000E+00  0.00000000000E+00  0.14964148865E+03  0.14964148865E+03  0.00000000000E+00 0.  1.
          2   -1    0    0  501    0  0.00000000000E+00 -0.00000000000E+00 -0.14480852648E+03  0.14480852648E+03  0.00000000000E+00 0. -1.
         25    2    1    2    0    0  0.29653271949E+02 -0.23869456254E+02 -0.89075260752E+02  0.15821567842E+03  0.12509488935E+03 0.  0.
          5    1    3    3  502    0 -0.37379650056E+02  0.21873875783E+02 -0.54923885042E+02  0.70070038021E+02  0.41800000000E+01 0.  1.
         -5    1    3    3    0  502  0.67032922006E+02 -0.45743332036E+02 -0.34151375709E+02  0.88145640398E+02  0.41800000000E+01 0.  1.
        -11    1    1    2    0    0  0.32554825587E+02  0.21741087258E+01  0.27220915055E+02  0.42491430126E+02  0.00000000000E+00 0. -1.
         11    1    1    2    0    0 -0.62208097536E+02  0.21695347528E+02  0.66687307870E+02  0.93742906582E+02  0.00000000000E+00 0.  1.
</event>
<event>
 7    1  0.2810263E-009  0.1288336E+03  0.7561462E-02  0.1229197E+00
          2   -1    0    0  501    0  0.00000000000E+00  0.00000000000E+00  0.17685678623E+04  0.17685678623E+04  0.00000000000E+00 0. -1.
         -2   -1    0    0    0  501 -0.00000000000E+00 -0.00000000000E+00 -0.10967063458E+02  0.10967063458E+02  0.00000000000E+00 0.  1.
         25    2    1    2    0    0  0.72672146165E+02 -0.22424032870E+02  0.12167021448E+04  0.12254772057E+04  0.12508474940E+03 0.  0.
          5    1    3    3  502    0  0.61370174131E+02 -0.71867668717E+02  0.85368803675E+03  0.85891326487E+03  0.41800000000E+01 0.  1.
         -5    1    3    3    0  502  0.11301972034E+02  0.49443635847E+02  0.36301410804E+03  0.36656394086E+03  0.41800000000E+01 0.  1.
        -11    1    1    2    0    0 -0.90543767478E+02  0.11597673046E+02  0.49851172709E+03  0.50680037677E+03  0.00000000000E+00 0. -1.
         11    1    1    2    0    0  0.17871621313E+02  0.10826359824E+02  0.42386927006E+02  0.47257343306E+02  0.00000000000E+00 0.  1.
</event>
<event>
 7    1  0.2810263E-009  0.1722678E+03  0.7561462E-02  0.1175503E+00
          2   -1    0    0  501    0  0.00000000000E+00  0.00000000000E+00  0.21229777124E+03  0.21229777124E+03  0.00000000000E+00 0.  1.
         -2   -1    0    0    0  501 -0.00000000000E+00 -0.00000000000E+00 -0.17362302510E+03  0.17362302510E+03  0.00000000000E+00 0. -1.
         25    2    1    2    0    0  0.11704487751E+03 -0.29754391784E+02  0.42315053500E+02  0.17894941841E+03  0.12508998127E+03 0.  0.
          5    1    3    3  502    0  0.59765945488E+02  0.48107272247E+02  0.23847050723E+02  0.80451427030E+02  0.41800000000E+01 0. -1.
         -5    1    3    3    0  502  0.57278932019E+02 -0.77861664031E+02  0.18468002777E+02  0.98497991378E+02  0.41800000000E+01 0. -1.
        -11    1    1    2    0    0  0.11533241586E+02  0.40320101571E+02  0.51718012269E+02  0.66584375384E+02  0.00000000000E+00 0.  1.
         11    1    1    2    0    0 -0.12857811909E+03 -0.10565709787E+02 -0.55358319632E+02  0.14038700255E+03  0.00000000000E+00 0. -1.
</event>
<event>
 7    1  0.2810263E-009  0.1152621E+03  0.7561462E-02  0.1251124E+00
          1   -1    0    0  501    0  0.00000000000E+00  0.00000000000E+00  0.42254604704E+03  0.42254604704E+03  0.00000000000E+00 0. -1.
         -1   -1    0    0    0  501 -0.00000000000E+00 -0.00000000000E+00 -0.66798305573E+02  0.66798305573E+02  0.00000000000E+00 0.  1.
         25    2    1    2    0    0 -0.62855485649E+02  0.47250833394E+02  0.33293894912E+03  0.36425181783E+03  0.12509032583E+03 0.  0.
          5    1    3    3  502    0 -0.11776018333E+02 -0.24853993465E+02  0.10233835497E+02  0.29641177235E+02  0.41800000000E+01 0. -1.
         -5    1    3    3    0  502 -0.51079467316E+02  0.72104826859E+02  0.32270511363E+03  0.33461064059E+03  0.41800000000E+01 0. -1.
        -11    1    1    2    0    0  0.80521751951E+02 -0.22085665310E+02  0.36880808277E+02  0.91278273256E+02  0.00000000000E+00 0. -1.
         11    1    1    2    0    0 -0.17666266302E+02 -0.25165168084E+02 -0.14072015938E+02  0.33814261523E+02  0.00000000000E+00 0.  1.
</event>
<event>
 7    1  0.2810263E-009  0.1209386E+03  0.7561462E-02  0.1241557E+00
         -2   -1    0    0    0  501 -0.00000000000E+00  0.00000000000E+00  0.21614017030E+02  0.21614017030E+02  0.00000000000E+00 0.  1.
          2   -1    0    0  501    0  0.00000000000E+00 -0.00000000000E+00 -0.81607009478E+03  0.81607009478E+03  0.00000000000E+00 0. -1.
         25    2    1    2    0    0  0.52187706089E+02 -0.10978026349E+02 -0.26825122078E+03  0.30075320364E+03  0.12509875427E+03 0.  0.
          5    1    3    3  502    0 -0.26944293188E+02  0.34986421912E+02 -0.84730790585E+02  0.95639029307E+02  0.41800000000E+01 0. -1.
         -5    1    3    3    0  502  0.79131999277E+02 -0.45964448261E+02 -0.18352043020E+03  0.20511417433E+03  0.41800000000E+01 0. -1.
        -11    1    1    2    0    0 -0.17874074628E+02 -0.40372462157E+02 -0.25387899653E+03  0.25768966437E+03  0.00000000000E+00 0. -1.
         11    1    1    2    0    0 -0.34313631461E+02  0.51350488506E+02 -0.27232586044E+03  0.27924124380E+03  0.00000000000E+00 0.  1.
</event>
<event>
 7    1  0.2810263E-009  0.7779469E+02  0.7561462E-02  0.1335429E+00
         -2   -1    0    0    0  501 -0.00000000000E+00  0.00000000000E+00  0.14707055638E+03  0.14707055638E+03  0.00000000000E+00 0.  1.
          2   -1    0    0  501    0  0.00000000000E+00 -0.00000000000E+00 -0.10518349224E+03  0.10518349224E+03  0.00000000000E+00 0. -1.
         25    2    1    2    0    0  0.25125869445E+02  0.37477299251E+01 -0.35898383358E+02  0.13259619571E+03  0.12509077662E+03 0.  0.
          5    1    3    3  502    0 -0.40268712646E+02  0.19356690969E+02  0.15914569988E+02  0.47612988158E+02  0.41800000000E+01 0.  1.
         -5    1    3    3    0  502  0.65394582090E+02 -0.15608961043E+02 -0.51812953345E+02  0.84983207553E+02  0.41800000000E+01 0.  1.
        -11    1    1    2    0    0 -0.70335054965E+01  0.15448840978E+02 -0.15333478539E+02  0.22874712047E+02  0.00000000000E+00 0. -1.
         11    1    1    2    0    0 -0.18092363948E+02 -0.19196570903E+02  0.93118926042E+02  0.96783140861E+02  0.00000000000E+00 0.  1.
</event>
<event>
 7    1  0.2810263E-009  0.1365028E+03  0.7561462E-02  0.1218114E+00
          1   -1    0    0  501    0  0.00000000000E+00  0.00000000000E+00  0.71301944685E+02  0.71301944685E+02  0.00000000000E+00 0. -1.
         -1   -1    0    0    0  501 -0.00000000000E+00 -0.00000000000E+00 -0.40617026093E+03  0.40617026093E+03  0.00000000000E+00 0.  1.
         25    2    1    2    0    0  0.96361290734E+02 -0.65670234674E+02 -0.93203391320E+02  0.19475907791E+03  0.12508456420E+03 0.  0.
          5    1    3    3  502    0  0.46886801512E+02 -0.74662062963E+02  0.57863000089E+00  0.88264392677E+02  0.41800000000E+01 0.  1.
         -5    1    3    3    0  502  0.49474489221E+02  0.89918282895E+01 -0.93782021321E+02  0.10649468523E+03  0.41800000000E+01 0.  1.
        -11    1    1    2    0    0 -0.53866946415E+02  0.73448645261E+02 -0.21074947139E+03  0.22959026786E+03  0.00000000000E+00 0.  1.
         11    1    1    2    0    0 -0.42494344319E+02 -0.77784105872E+01 -0.30915453534E+02  0.53122859840E+02  0.00000000000E+00 0. -1.
</event>
<event>
 7    1  0.2810263E-009  0.1189665E+03  0.7561462E-02  0.1244812E+00
         -4   -1    0    0    0  501 -0.00000000000E+00  0.00000000000E+00  0.18524337921E+03  0.18524337921E+03  0.00000000000E+00 0. -1.
          4   -1    0    0  501    0  0.00000000000E+00 -0.00000000000E+00 -0.11880874111E+03  0.11880874111E+03  0.00000000000E+00 0.  1.
         25    2    1    2    0    0 -0.68307526777E+02 -0.46158913662E+02  0.90580650577E+02  0.17506751482E+03  0.12508883628E+03 0.  0.
          5    1    3    3  502    0 -0.22516939970E+02  0.37697198443E+02  0.60383951431E+02  0.74778241130E+02  0.41800000000E+01 0. -1.
         -5    1    3    3    0  502 -0.45790586807E+02 -0.83856112106E+02  0.30196699146E+02  0.10028927369E+03  0.41800000000E+01 0. -1.
        -11    1    1    2    0    0  0.50688747395E+01 -0.11527222696E+02 -0.39997033025E+02  0.41932481503E+02  0.00000000000E+00 0.  1.
         11    1    1    2    0    0  0.63238652037E+02  0.57686136359E+02  0.15851020548E+02  0.87052123994E+02  0.00000000000E+00 0. -1.
</event>
<event>
 7    1  0.2810263E-009  0.1235102E+03  0.7561462E-02  0.1237416E+00
         -1   -1    0    0    0  501 -0.00000000000E+00  0.00000000000E+00  0.22421610059E+02  0.22421610059E+02  0.00000000000E+00 0.  1.
          1   -1    0    0  501    0  0.00000000000E+00 -0.00000000000E+00 -0.75352489377E+03  0.75352489377E+03  0.00000000000E+00 0. -1.
         25    2    1    2    0    0  0.45460762659E+02  0.40529685239E+02 -0.29223138106E+03  0.32366073950E+03  0.12509099844E+03 0.  0.
          5    1    3    3  502    0  0.59874253248E+02  0.77470463042E+02 -0.18689434312E+03  0.21102977690E+03  0.41800000000E+01 0. -1.
         -5    1    3    3    0  502 -0.14413490588E+02 -0.36940777803E+02 -0.10533703794E+03  0.11263096261E+03  0.41800000000E+01 0. -1.
        -11    1    1    2    0    0  0.27668538140E+02 -0.16276948303E+02 -0.11734801533E+03  0.12165954032E+03  0.00000000000E+00 0.  1.
         11    1    1    2    0    0 -0.73129300799E+02 -0.24252736936E+02 -0.32152388732E+03  0.33062622401E+03  0.00000000000E+00 0. -1.
</event>
<event>
 7    1  0.2810263E-009  0.1141271E+03  0.7561462E-02  0.1253113E+00
         -3   -1    0    0    0  501 -0.00000000000E+00  0.00000000000E+00  0.98447722561E+02  0.98447722561E+02  0.00000000000E+00 0.  1.
          3   -1    0    0  501    0  0.00000000000E+00 -0.00000000000E+00 -0.15210498450E+03  0.15210498450E+03  0.00000000000E+00 0. -1.
         25    2    1    2    0    0 -0.47254087841E+02  0.12803518704E+02  0.25952571494E+00  0.13432822098E+03  0.12508846745E+03 0.  0.
          5    1    3    3  502    0 -0.85439962113E+02  0.23527979150E+02  0.18248423660E+02  0.90576102228E+02  0.41800000000E+01 0. -1.
         -5    1    3    3    0  502  0.38185874272E+02 -0.10724460447E+02 -0.17988897945E+02  0.43752118749E+02  0.41800000000E+01 0. -1.
        -11    1    1    2    0    0 -0.25695699529E+02 -0.69871313708E+00 -0.27644416950E+02  0.37748787568E+02  0.00000000000E+00 0. -1.
         11    1    1    2    0    0  0.72949787371E+02 -0.12104805567E+02 -0.26272370707E+02  0.78475698517E+02  0.00000000000E+00 0.  1.
</event>
<event>
 7    1  0.2810263E-009  0.1101726E+03  0.7561462E-02  0.1260251E+00
         -1   -1    0    0    0  501 -0.00000000000E+00  0.00000000000E+00  0.22124163128E+02  0.22124163128E+02  0.00000000000E+00 0.  1.
          1   -1    0    0  501    0  0.00000000000E+00 -0.00000000000E+00 -0.63748473494E+03  0.63748473494E+03  0.00000000000E+00 0. -1.
         25    2    1    2    0    0  0.36691718143E+02 -0.93304956352E+00 -0.42966764670E+03  0.44900976370E+03  0.12509327926E+03 0.  0.
          5    1    3    3  502    0 -0.37165158091E+02  0.26185249531E+02 -0.22741508680E+03  0.23195260372E+03  0.41800000000E+01 0. -1.
         -5    1    3    3    0  502  0.73856876234E+02 -0.27118299094E+02 -0.20225255990E+03  0.21705715998E+03  0.41800000000E+01 0. -1.
        -11    1    1    2    0    0 -0.58724489462E+02  0.24507826334E+02 -0.95050131091E+02  0.11438411880E+03  0.00000000000E+00 0.  1.
         11    1    1    2    0    0  0.22032771319E+02 -0.23574776770E+02 -0.90642794023E+02  0.96215015564E+02  0.00000000000E+00 0. -1.
</event>
<event>
 7    1  0.2810263E-009  0.2482034E+03  0.7561462E-02  0.1114446E+00
          1   -1    0    0  501    0  0.00000000000E+00  0.00000000000E+00  0.98700388445E+03  0.98700388445E+03  0.00000000000E+00 0. -1.
         -1   -1    0    0    0  501 -0.00000000000E+00 -0.00000000000E+00 -0.15054549361E+03  0.15054549361E+03  0.00000000000E+00 0.  1.
         25    2    1    2    0    0 -0.19888919326E+03  0.12907196675E+03  0.83911844176E+03  0.88089942990E+03  0.12509021748E+03 0.  0.
          5    1    3    3  502    0  0.47829573512E+01 -0.10540042604E+02  0.10232649401E+02  0.16004645978E+02  0.41800000000E+01 0.  1.
         -5    1    3    3    0  502 -0.20367215061E+03  0.13961200935E+03  0.82888579235E+03  0.86489478392E+03  0.41800000000E+01 0.  1.
        -11    1    1    2    0    0  0.50155464154E+02 -0.30415377054E+02 -0.44144959503E+02  0.73412827186E+02  0.00000000000E+00 0.  1.
         11    1    1    2    0    0  0.14873372910E+03 -0.98656589695E+02  0.41484908582E+02  0.18323712097E+03  0.00000000000E+00 0. -1.
</event>
<event>
 7    1  0.2810263E-009  0.1511266E+03  0.7561462E-02  0.1199096E+00
         -1   -1    0    0    0  501 -0.00000000000E+00  0.00000000000E+00  0.36717802558E+02  0.36717802558E+02  0.00000000000E+00 0.  1.
          1   -1    0    0  501    0  0.00000000000E+00 -0.00000000000E+00 -0.74384974851E+03  0.74384974851E+03  0.00000000000E+00 0. -1.
         25    2    1    2    0    0  0.11791987297E+03  0.36202342671E+02 -0.35197790645E+03  0.39338581173E+03  0.12509294217E+03 0.  0.
          5    1    3    3  502    0  0.45459457445E+02  0.78668011395E+02 -0.19954714632E+03  0.21929832260E+03  0.41800000000E+01 0. -1.
         -5    1    3    3    0  502  0.72460415521E+02 -0.42465668724E+02 -0.15243076013E+03  0.17408748913E+03  0.41800000000E+01 0. -1.
        -11    1    1    2    0    0 -0.18451230459E+02  0.56438677828E+01 -0.38478124537E+01  0.19675030107E+02  0.00000000000E+00 0.  1.
         11    1    1    2    0    0 -0.99468642506E+02 -0.41846210454E+02 -0.35130622704E+03  0.36750670923E+03  0.00000000000E+00 0. -1.
</event>
<event>
 7    1  0.2810263E-009  0.1191298E+03  0.7561462E-02  0.1244540E+00
          1   -1    0    0  501    0  0.00000000000E+00  0.00000000000E+00  0.50869755603E+03  0.50869755603E+03  0.00000000000E+00 0. -1.
         -1   -1    0    0    0  501 -0.00000000000E+00 -0.00000000000E+00 -0.56093188356E+02  0.56093188356E+02  0.00000000000E+00 0.  1.
         25    2    1    2    0    0 -0.28187072558E+02  0.99027800388E+02  0.36967655632E+03  0.40361945710E+03  0.12508754356E+03 0.  0.
          5    1    3    3  502    0 -0.16833523271E+02  0.34083747370E+02  0.31653430739E+03  0.31883617972E+03  0.41800000000E+01 0. -1.
         -5    1    3    3    0  502 -0.11353549288E+02  0.64944053018E+02  0.53142248927E+02  0.84783277389E+02  0.41800000000E+01 0. -1.
        -11    1    1    2    0    0 -0.29888637982E+02 -0.20326126450E+02  0.41267766068E+02  0.54859006673E+02  0.00000000000E+00 0. -1.
         11    1    1    2    0    0  0.58075710540E+02 -0.78701673937E+02  0.41660045293E+02  0.10631228061E+03  0.00000000000E+00 0.  1.
</event>
<event>
 7    1  0.2810263E-009  0.1256491E+03  0.7561462E-02  0.1234058E+00
         -1   -1    0    0    0  501 -0.00000000000E+00  0.00000000000E+00  0.17642133699E+03  0.17642133699E+03  0.00000000000E+00 0.  1.
          1   -1    0    0  501    0  0.00000000000E+00 -0.00000000000E+00 -0.10076141296E+03  0.10076141296E+03  0.00000000000E+00 0. -1.
         25    2    1    2    0    0  0.75982150525E+02  0.97768396150E+01  0.38456462623E+02  0.15164017413E+03  0.12508784553E+03 0.  0.
          5    1    3    3  502    0  0.85813643613E+02 -0.31446974588E+02  0.54081275835E+02  0.10627864525E+03  0.41800000000E+01 0. -1.
         -5    1    3    3    0  502 -0.98314930881E+01  0.41223814203E+02 -0.15624813212E+02  0.45361528873E+02  0.41800000000E+01 0. -1.
        -11    1    1    2    0    0 -0.82306718291E+02 -0.36300122803E+02  0.39360768068E+02  0.98190451950E+02  0.00000000000E+00 0.  1.
         11    1    1    2    0    0  0.63245677664E+01  0.26523283188E+02 -0.21573066595E+01  0.27352123876E+02  0.00000000000E+00 0. -1.
</event>
<event>
 7    1  0.2810263E-009  0.1088124E+03  0.7561462E-02  0.1262785E+00
          1   -1    0    0  501    0  0.00000000000E+00  0.00000000000E+00  0.10942584064E+03  0.10942584064E+03  0.00000000000E+00 0. -1.
         -1   -1    0    0    0  501 -0.00000000000E+00 -0.00000000000E+00 -0.18107193016E+03  0.18107193016E+03  0.00000000000E+00 0.  1.
         25    2    1    2    0    0  0.16888416656E+02  0.87662156219E+02 -0.51640317209E+02  0.16212241823E+03  0.12508830433E+03 0.  0.
          5    1    3    3  502    0 -0.22295524172E+02 -0.53084837333E+01  0.25879426548E+02  0.34820791434E+02  0.41800000000E+01 0. -1.
         -5    1    3    3    0  502  0.39183940828E+02  0.92970639953E+02 -0.77519743756E+02  0.12730162679E+03  0.41800000000E+01 0. -1.
        -11    1    1    2    0    0  0.17649598031E+01 -0.59769404471E+02 -0.54028819017E+02  0.80589143675E+02  0.00000000000E+00 0.  1.
         11    1    1    2    0    0 -0.18653376459E+02 -0.27892751748E+02  0.34023046705E+02  0.47786208895E+02  0.00000000000E+00 0. -1.
</event>
<event>
 7    1  0.2810263E-009  0.2357292E+03  0.7561462E-02  0.1122671E+00
         -1   -1    0    0    0  501 -0.00000000000E+00  0.00000000000E+00  0.81197956599E+02  0.81197956599E+02  0.00000000000E+00 0.  1.
          1   -1    0    0  501    0  0.00000000000E+00 -0.00000000000E+00 -0.93788609197E+03  0.93788609197E+03  0.00000000000E+00 0. -1.
         25    2    1    2    0    0 -0.19830037461E+02 -0.22293835263E+03 -0.65761813989E+03  0.70583521702E+03  0.12508795387E+03 0.  0.
          5    1    3    3  502    0 -0.13263589536E+02 -0.47711341002E+01 -0.18104608025E+03  0.18164207140E+03  0.41800000000E+01 0.  1.
         -5    1    3    3    0  502 -0.65664479244E+01 -0.21816721853E+03 -0.47657205964E+03  0.52419314562E+03  0.41800000000E+01 0.  1.
        -11    1    1    2    0    0 -0.25225311849E+02  0.15427927990E+03 -0.10470170457E+03  0.18815116131E+03  0.00000000000E+00 0.  1.
         11    1    1    2    0    0  0.45055349310E+02  0.68659072730E+02 -0.94368290905E+02  0.12509767023E+03  0.00000000000E+00 0. -1.
</event>
<event>
 7    1  0.2810263E-009  0.1316006E+03  0.7561462E-02  0.1225100E+00
         -1   -1    0    0    0  501 -0.00000000000E+00  0.00000000000E+00  0.52213877769E+02  0.52213877769E+02  0.00000000000E+00 0.  1.
          1   -1    0    0  501    0  0.00000000000E+00 -0.00000000000E+00 -0.50043972603E+03  0.50043972603E+03  0.00000000000E+00 0. -1.
         25    2    1    2    0    0  0.83896797001E+02 -0.12564665241E+02 -0.96864578418E+02  0.17952067933E+03  0.12509350261E+03 0.  0.
          5    1    3    3  502    0  0.41068993404E+01  0.46108915917E+02 -0.96148223359E+01  0.47463838422E+02  0.41800000000E+01 0. -1.
         -5    1    3    3    0  502  0.79789897661E+02 -0.58673581157E+02 -0.87249756082E+02  0.13205684091E+03  0.41800000000E+01 0. -1.
        -11    1    1    2    0    0 -0.85770304491E+02  0.36766557206E+02 -0.21137807640E+03  0.23106063283E+03  0.00000000000E+00 0. -1.
         11    1    1    2    0    0  0.18735074895E+01 -0.24201891966E+02 -0.13998319344E+03  0.14207229163E+03  0.00000000000E+00 0.  1.
</event>
<event>
 7    1  0.2810263E-009  0.1050133E+03  0.7561462E-02  0.1270093E+00
         -1   -1    0    0    0  501 -0.00000000000E+00  0.00000000000E+00  0.74166568724E+02  0.74166568724E+02  0.00000000000E+00 0.  1.
          1   -1    0    0  501    0  0.00000000000E+00 -0.00000000000E+00 -0.19700167200E+03  0.19700167200E+03  0.00000000000E+00 0. -1.
         25    2    1    2    0    0 -0.22205804557E+02 -0.48353461222E+02 -0.35290642498E+02  0.14044387067E+03  0.12509155204E+03 0.  0.
          5    1    3    3  502    0 -0.64494209488E+02 -0.12477281335E+02 -0.50298468078E+02  0.82840774369E+02  0.41800000000E+01 0.  1.
         -5    1    3    3    0  502  0.42288404931E+02 -0.35876179887E+02  0.15007825580E+02  0.57603096302E+02  0.41800000000E+01 0.  1.
        -11    1    1    2    0    0  0.42536987978E+02  0.78291306493E+01 -0.69640935742E+02  0.81978964155E+02  0.00000000000E+00 0. -1.
         11    1    1    2    0    0 -0.20331183421E+02  0.40524330573E+02 -0.17903525037E+02  0.48745405901E+02  0.00000000000E+00 0.  1.
</event>
<event>
 7    1  0.2810263E-009  0.8112897E+02  0.7561462E-02  0.1325878E+00
          2   -1    0    0  501    0  0.00000000000E+00  0.00000000000E+00  0.71351284119E+03  0.71351284119E+03  0.00000000000E+00 0. -1.
         -2   -1    0    0    0  501 -0.00000000000E+00 -0.00000000000E+00 -0.16894320130E+02  0.16894320130E+02  0.00000000000E+00 0.  1.
         25    2    1    2    0    0  0.24540070820E+02 -0.60707711825E+01  0.40710320682E+03  0.42663812974E+03  0.12509197979E+03 0.  0.
          5    1    3    3  502    0 -0.94278054931E+01 -0.36195634500E+02  0.35667155116E+03  0.35865174652E+03  0.41800000000E+01 0.  1.
         -5    1    3    3    0  502  0.33967876313E+02  0.30124863317E+02  0.50431655656E+02  0.67986383220E+02  0.41800000000E+01 0.  1.
        -11    1    1    2    0    0 -0.68371288538E+01 -0.34284979194E+02  0.20971896578E+03  0.21261291291E+03  0.00000000000E+00 0. -1.
         11    1    1    2    0    0 -0.17702941966E+02  0.40355750377E+02  0.79796348460E+02  0.91156118666E+02  0.00000000000E+00 0.  1.
</event>
<event>
 7    1  0.2810263E-009  0.1038897E+03  0.7561462E-02  0.1272323E+00
          1   -1    0    0  501    0  0.00000000000E+00  0.00000000000E+00  0.22040987603E+02  0.22040987603E+02  0.00000000000E+00 0. -1.
         -1   -1    0    0    0  501 -0.00000000000E+00 -0.00000000000E+00 -0.58069071256E+03  0.58069071256E+03  0.00000000000E+00 0.  1.
         25    2    1    2    0    0  0.91569233628E+01  0.19643236150E+02 -0.36075937111E+03  0.38244610705E+03  0.12509194609E+03 0.  0.
          5    1    3    3  502    0 -0.52062961601E+02  0.13377424741E+02 -0.91425853396E+02  0.10613984423E+03  0.41800000000E+01 0.  1.
         -5    1    3    3    0  502  0.61219884964E+02  0.62658114084E+01 -0.26933351772E+03  0.27630626282E+03  0.41800000000E+01 0.  1.
        -11    1    1    2    0    0 -0.48464478370E+02 -0.51611163837E+00 -0.13706062210E+03  0.14537773614E+03  0.00000000000E+00 0.  1.
         11    1    1    2    0    0  0.39307555007E+02 -0.19127124511E+02 -0.60829731744E+02  0.74907856976E+02  0.00000000000E+00 0. -1.
</event>
<event>
 7    1  0.2810263E-009  0.1065567E+03  0.7561462E-02  0.1267083E+00
          4   -1    0    0  501    0  0.00000000000E+00  0.00000000000E+00  0.41175831798E+03  0.41175831798E+03  0.00000000000E+00 0.  1.
         -4   -1    0    0    0  501 -0.00000000000E+00 -0.00000000000E+00 -0.47241986481E+02  0.47241986481E+02  0.00000000000E+00 0. -1.
         25    2    1    2    0    0 -0.72083621075E+02  0.35168864771E+02  0.25933410394E+03  0.29888772437E+03  0.12508715697E+03 0.  0.
          5    1    3    3  502    0 -0.24893549409E+02 -0.10759963087E+02  0.22075446236E+03  0.22245329995E+03  0.41800000000E+01 0. -1.
         -5    1    3    3    0  502 -0.47190071666E+02  0.45928827858E+02  0.38579641581E+02  0.76434424422E+02  0.41800000000E+01 0. -1.
        -11    1    1    2    0    0  0.34630891306E+02  0.29146869619E+02  0.29880276198E+02  0.54237160204E+02  0.00000000000E+00 0. -1.
         11    1    1    2    0    0  0.37452729768E+02 -0.64315734390E+02  0.75301951368E+02  0.10587541989E+03  0.00000000000E+00 0.  1.
</event>
<event>
 7    1  0.2810263E-009  0.1238500E+03  0.7561462E-02  0.1236878E+00
         -3   -1    0    0    0  501 -0.00000000000E+00  0.00000000000E+00  0.10753914575E+03  0.10753914575E+03  0.00000000000E+00 0.  1.
          3   -1    0    0  501    0  0.00000000000E+00 -0.00000000000E+00 -0.24156692813E+03  0.24156692813E+03  0.00000000000E+00 0. -1.
         25    2    1    2    0    0 -0.50640976627E+02 -0.85733089588E+02 -0.13644253609E+03  0.21018762249E+03  0.12509036666E+03 0.  0.
          5    1    3    3  502    0  0.10553275476E+02 -0.65953467897E+02 -0.12898175387E+03  0.14531000234E+03  0.41800000000E+01 0.  1.
         -5    1    3    3    0  502 -0.61194252103E+02 -0.19779621691E+02 -0.74607822229E+01  0.64877620148E+02  0.41800000000E+01 0.  1.
        -11    1    1    2    0    0  0.64414043119E+02  0.65612247250E+02 -0.31460951475E+02  0.97179871413E+02  0.00000000000E+00 0. -1.
         11    1    1    2    0    0 -0.13773066492E+02  0.20120842338E+02  0.33875705184E+02  0.41738579980E+02  0.00000000000E+00 0.  1.
</event>
<event>
 7    1  0.2810263E-009  0.1176931E+03  0.7561462E-02  0.1246952E+00
          2   -1    0    0  501    0  0.00000000000E+00  0.00000000000E+00  0.51540022683E+03  0.51540022683E+03  0.00000000000E+00 0. -1.
         -2   -1    0    0    0  501 -0.00000000000E+00 -0.00000000000E+00 -0.34514640696E+02  0.34514640696E+02  0.00000000000E+00 0.  1.
         25    2    1    2    0    0 -0.23923114276E+02  0.37807192153E+02  0.18249271306E+03  0.22572552965E+03  0.12508687077E+03 0.  0.
          5    1    3    3  502    0 -0.29493074568E+02  0.70265535226E+02  0.17608921258E+03  0.19191657061E+03  0.41800000000E+01 0.  1.
         -5    1    3    3    0  502  0.55699602923E+01 -0.32458343073E+02  0.64035004848E+01  0.33808959037E+02  0.41800000000E+01 0.  1.
        -11    1    1    2    0    0 -0.38668782337E+02 -0.48859793256E+02  0.16657823609E+03  0.17785067575E+03  0.00000000000E+00 0. -1.
         11    1    1    2    0    0  0.62591896613E+02  0.11052601104E+02  0.13181463698E+03  0.14633866214E+03  0.00000000000E+00 0.  1.
</event>
<event>
 7    1  0.2810263E-009  0.9108913E+02  0.7561462E-02  0.1300235E+00
         -2   -1    0    0    0  501 -0.00000000000E+00  0.00000000000E+00  0.66269802641E+02  0.66269802641E+02  0.00000000000E+00 0.  1.
          2   -1    0    0  501    0  0.00000000000E+00 -0.00000000000E+00 -0.32464287200E+03  0.32464287200E+03  0.00000000000E+00 0. -1.
         25    2    1    2    0    0  0.68784299627E+02  0.31959589136E+01 -0.23793949954E+03  0.27750127209E+03  0.12510098539E+03 0.  0.
          5    1    3    3  502    0  0.65145914995E+02  0.24599335541E+01 -0.34297082978E+02  0.73782137503E+02  0.41800000000E+01 0.  1.
         -5    1    3    3    0  502  0.36383846318E+01  0.73602535951E+00 -0.20364241656E+03  0.20371913459E+03  0.41800000000E+01 0.  1.
        -11    1    1    2    0    0 -0.78164798753E+02  0.24584852657E+02 -0.18649206267E+02  0.84035371355E+02  0.00000000000E+00 0.  1.
         11    1    1    2    0    0  0.93804991266E+01 -0.27780811571E+02 -0.17843635548E+01  0.29376031194E+02  0.00000000000E+00 0. -1.
</event>
<event>
 7    1  0.2810263E-009  0.1186687E+03  0.7561462E-02  0.1245310E+00
          1   -1    0    0  501    0  0.00000000000E+00  0.00000000000E+00  0.17700883399E+02  0.17700883399E+02  0.00000000000E+00 0. -1.
         -1   -1    0    0    0  501 -0.00000000000E+00 -0.00000000000E+00 -0.88540455813E+03  0.88540455813E+03  0.00000000000E+00 0.  1.
         25    2    1    2    0    0 -0.40513394037E+02 -0.52389267156E+02 -0.54110721368E+03  0.55931269381E+03  0.12509077647E+03 0.  0.
          5    1    3    3  502    0  0.32752041924E+02 -0.58248321899E+02 -0.22531094155E+03  0.23504905028E+03  0.41800000000E+01 0.  1.
         -5    1    3    3    0  502 -0.73265435961E+02  0.58590547427E+01 -0.31579627213E+03  0.32426364354E+03  0.41800000000E+01 0.  1.
        -11    1    1    2    0    0  0.46094109251E+02  0.20747815167E+01 -0.82727126073E+02  0.94724595615E+02  0.00000000000E+00 0. -1.
         11    1    1    2    0    0 -0.55807152143E+01  0.50314485639E+02 -0.24386933498E+03  0.24906815210E+03  0.00000000000E+00 0.  1.
</event>
<event>
 7    1  0.2810263E-009  0.1149548E+03  0.7561462E-02  0.1251660E+00
          2   -1    0    0  501    0  0.00000000000E+00  0.00000000000E+00  0.12958692183E+03  0.12958692183E+03  0.00000000000E+00 0. -1.
         -2   -1    0    0    0  501 -0.00000000000E+00 -0.00000000000E+00 -0.12926292867E+03  0.12926292867E+03  0.00000000000E+00 0.  1.
         25    2    1    2    0    0 -0.23345333043E+02 -0.51166929237E+02 -0.15544390644E+01  0.13715980897E+03  0.12508931887E+03 0.  0.
          5    1    3    3  502    0  0.12135430746E+02  0.36583546591E+02 -0.14790619860E+02  0.41495293666E+02  0.41800000000E+01 0.  1.
         -5    1    3    3    0  502 -0.35480763789E+02 -0.87750475828E+02  0.13236180795E+02  0.95664515308E+02  0.41800000000E+01 0.  1.
        -11    1    1    2    0    0  0.46564552101E+02  0.78134717991E+01  0.38051146392E+02  0.60639901019E+02  0.00000000000E+00 0. -1.
         11    1    1    2    0    0 -0.23219219058E+02  0.43353457438E+02 -0.36172714172E+02  0.61050140508E+02  0.00000000000E+00 0.  1.
</event>
<event>
 7    1  0.2810263E-009  0.9313050E+02  0.7561462E-02  0.1295443E+00
          2   -1    0    0  501    0  0.00000000000E+00  0.00000000000E+00  0.25560069537E+03  0.25560069537E+03  0.00000000000E+00 0. -1.
         -2   -1    0    0    0  501 -0.00000000000E+00 -0.00000000000E+00 -0.91390643716E+02  0.91390643716E+02  0.00000000000E+00 0.  1.
         25    2    1    2    0    0  0.68839655832E+02  0.49512182601E+02  0.18292208093E+03  0.23727316244E+03  0.12509081294E+03 0.  0.
          5    1    3    3  502    0 -0.22747214397E+01  0.41329114130E+01 -0.18132955924E+02  0.19197182213E+02  0.41800000000E+01 0.  1.
         -5    1    3    3    0  502  0.71114377272E+02  0.45379271188E+02  0.20105503685E+03  0.21807598023E+03  0.41800000000E+01 0.  1.
        -11    1    1    2    0    0 -0.44787666385E+02 -0.52163526232E+01 -0.34636400467E+02  0.56857942561E+02  0.00000000000E+00 0.  1.
         11    1    1    2    0    0 -0.24051989447E+02 -0.44295829978E+02  0.15924371197E+02  0.52860234088E+02  0.00000000000E+00 0. -1.
</event>
<event>
 7    1  0.2810263E-009  0.1024417E+03  0.7561462E-02  0.1275244E+00
          2   -1    0    0  501    0  0.00000000000E+00  0.00000000000E+00  0.20801363448E+03  0.20801363448E+03  0.00000000000E+00 0.  1.
         -2   -1    0    0    0  501 -0.00000000000E+00 -0.00000000000E+00 -0.84396726516E+02  0.84396726516E+02  0.00000000000E+00 0. -1.
         25    2    1    2    0    0 -0.46975478620E+02  0.50275749194E+02  0.32067936756E+02  0.14632169819E+03  0.12508932906E+03 0.  0.
          5    1    3    3  502    0 -0.54627033888E+02  0.17737960313E+02 -0.37712197598E+02  0.68836257272E+02  0.41800000000E+01 0.  1.
         -5    1    3    3    0  502  0.76515552678E+01  0.32537788880E+02  0.69780134353E+02  0.77485440914E+02  0.41800000000E+01 0.  1.
        -11    1    1    2    0    0  0.57143978796E+02 -0.70633868178E+02  0.76849693151E+02  0.11899770159E+03  0.00000000000E+00 0.  1.
         11    1    1    2    0    0 -0.10168500176E+02  0.20358118984E+02  0.14699278055E+02  0.27090961218E+02  0.00000000000E+00 0. -1.
</event>
<event>
 7    1  0.2810263E-009  0.8740590E+02  0.7561462E-02  0.1309258E+00
          1   -1    0    0  501    0  0.00000000000E+00  0.00000000000E+00  0.33569261423E+03  0.33569261423E+03  0.00000000000E+00 0. -1.
         -1   -1    0    0    0  501 -0.00000000000E+00 -0.00000000000E+00 -0.45543273767E+02  0.45543273767E+02  0.00000000000E+00 0.  1.
         25    2    1    2    0    0 -0.21043507217E+02  0.33993935886E+02  0.23232435260E+03  0.26687387148E+03  0.12509453063E+03 0.  0.
          5    1    3    3  502    0 -0.50679140146E+02  0.29030068964E+02  0.22898483814E+03  0.23635280546E+03  0.41800000000E+01 0.  1.
         -5    1    3    3    0  502  0.29635632930E+02  0.49638669226E+01  0.33395144582E+01  0.30521066017E+02  0.41800000000E+01 0.  1.
        -11    1    1    2    0    0 -0.28074381398E+02 -0.21152292057E+02  0.52683396923E+02  0.63333487678E+02  0.00000000000E+00 0. -1.
         11    1    1    2    0    0  0.49117888615E+02 -0.12841643829E+02  0.51415909369E+01  0.51028528840E+02  0.00000000000E+00 0.  1.
</event>
<event>
 7    1  0.2810263E-009  0.1786158E+03  0.7561462E-02  0.1169149E+00
          2   -1    0    0  501    0  0.00000000000E+00  0.00000000000E+00  0.79520614437E+03  0.79520614437E+03  0.00000000000E+00 0. -1.
         -2   -1    0    0    0  501 -0.00000000000E+00 -0.00000000000E+00 -0.40148375222E+02  0.40148375222E+02  0.00000000000E+00 0.  1.
         25    2    1    2    0    0 -0.89481709104E+01 -0.14470299259E+03  0.40928921286E+03  0.45186774846E+03  0.12509107288E+03 0.  0.
          5    1    3    3  502    0 -0.64023630506E+02 -0.48317632990E+02  0.17811266196E+03  0.19538477850E+03  0.41800000000E+01 0.  1.
         -5    1    3    3    0  502  0.55075459596E+02 -0.96385359602E+02  0.23117655090E+03  0.25648296996E+03  0.41800000000E+01 0.  1.
        -11    1    1    2    0    0  0.41378368750E+02  0.11354850533E+03  0.25503831828E+03  0.28222327377E+03  0.00000000000E+00 0.  1.
         11    1    1    2    0    0 -0.32430197840E+02  0.31154487258E+02  0.90730238009E+02  0.10126349736E+03  0.00000000000E+00 0. -1.
</event>
<event>
 7    1  0.2810263E-009  0.6236547E+02  0.7561462E-02  0.1388165E+00
         -2   -1    0    0    0  501 -0.00000000000E+00  0.00000000000E+00  0.54854522689E+02  0.54854522689E+02  0.00000000000E+00 0.  1.
          2   -1    0    0  501    0  0.00000000000E+00 -0.00000000000E+00 -0.22627038664E+03  0.22627038664E+03  0.00000000000E+00 0. -1.
         25    2    1    2    0    0  0.97943526066E+01  0.20924865694E+02 -0.82994560516E+02  0.15188277454E+03  0.12508597355E+03 0.  0.
          5    1    3    3  502    0  0.17753101420E+02  0.66104396734E+01 -0.11449867588E+03  0.11613048567E+03  0.41800000000E+01 0.  1.
         -5    1    3    3    0  502 -0.79587488130E+01  0.14314426021E+02  0.31504115364E+02  0.35752288876E+02  0.41800000000E+01 0.  1.
        -11    1    1    2    0    0  0.22825088830E+02  0.23862465395E+02 -0.56100131551E+02  0.65097055961E+02  0.00000000000E+00 0. -1.
         11    1    1    2    0    0 -0.32619441437E+02 -0.44787331089E+02 -0.32321171888E+02  0.64145078829E+02  0.00000000000E+00 0.  1.
</event>
<event>
 7    1  0.2810263E-009  0.7942652E+02  0.7561462E-02  0.1330687E+00
          2   -1    0    0  501    0  0.00000000000E+00  0.00000000000E+00  0.65712430625E+02  0.65712430625E+02  0.00000000000E+00 0. -1.
         -2   -1    0    0    0  501 -0.00000000000E+00 -0.00000000000E+00 -0.25327931984E+03  0.25327931984E+03  0.00000000000E+00 0.  1.
         25    2    1    2    0    0 -0.54209459324E+01  0.42203253641E+02 -0.21424180402E+02  0.13385329614E+03  0.12508880089E+03 0.  0.
          5    1    3    3  502    0 -0.39892307940E+02  0.39860372329E+02 -0.59625177946E+02  0.82175907418E+02  0.41800000000E+01 0. -1.
         -5    1    3    3    0  502  0.34471362008E+02  0.23428813118E+01  0.38200997544E+02  0.51677388719E+02  0.41800000000E+01 0. -1.
        -11    1    1    2    0    0 -0.20658167507E+02 -0.34667426016E+02 -0.14561789233E+03  0.15110645545E+03  0.00000000000E+00 0.  1.
         11    1    1    2    0    0  0.26079113440E+02 -0.75358276246E+01 -0.20524816475E+02  0.34031998870E+02  0.00000000000E+00 0. -1.
</event>
<event>
 7    1  0.2810263E-009  0.1080365E+03  0.7561462E-02  0.1264250E+00
          2   -1    0    0  501    0  0.00000000000E+00  0.00000000000E+00  0.50025009468E+03  0.50025009468E+03  0.00000000000E+00 0. -1.
         -2   -1    0    0    0  501 -0.00000000000E+00 -0.00000000000E+00 -0.49411256246E+02  0.49411256246E+02  0.00000000000E+00 0.  1.
         25    2    1    2    0    0 -0.25271623687E+02 -0.30840208110E+02  0.42898239092E+03  0.44862315573E+03  0.12508825179E+03 0.  0.
          5    1    3    3  502    0  0.69962366733E+01 -0.71382073685E+02  0.17142170891E+03  0.18586883132E+03  0.41800000000E+01 0.  1.
         -5    1    3    3    0  502 -0.32267860361E+02  0.40541865576E+02  0.25756068201E+03  0.26275432441E+03  0.41800000000E+01 0.  1.
        -11    1    1    2    0    0  0.50675988611E+02  0.40696097383E+02  0.31379657438E+02  0.72172786179E+02  0.00000000000E+00 0. -1.
         11    1    1    2    0    0 -0.25404364923E+02 -0.98558892738E+01 -0.95232099250E+01  0.28865409019E+02  0.00000000000E+00 0.  1.
</event>
<event>
 7    1  0.2810263E-009  0.1017103E+03  0.7561462E-02  0.1276740E+00
          4   -1    0    0  501    0  0.00000000000E+00  0.00000000000E+00  0.12190605767E+03  0.12190605767E+03  0.00000000000E+00 0. -1.
         -4   -1    0    0    0  501 -0.00000000000E+00 -0.00000000000E+00 -0.11048633704E+03  0.11048633704E+03  0.00000000000E+00 0.  1.
         25    2    1    2    0    0 -0.34303279553E+02  0.64135966345E+01 -0.23803366463E+02  0.13203148616E+03  0.12509142206E+03 0.  0.
          5    1    3    3  502    0  0.44681384967E+02 -0.70216898698E+01  0.72610651471E+01  0.45999193018E+02  0.41800000000E+01 0. -1.
         -5    1    3    3    0  502 -0.78984664520E+02  0.13435286504E+02 -0.31064431610E+02  0.86032293147E+02  0.41800000000E+01 0. -1.
        -11    1    1    2    0    0  0.15211496619E+02 -0.37961010322E+02 -0.99104963035E+01  0.42079043134E+02  0.00000000000E+00 0.  1.
         11    1    1    2    0    0  0.19091782934E+02  0.31547413688E+02  0.45133583393E+02  0.58281865412E+02  0.00000000000E+00 0. -1.
</event>
<event>
 7    1  0.2810263E-009  0.9868857E+02  0.7561462E-02  0.1283078E+00
          2   -1    0    0  501    0  0.00000000000E+00  0.00000000000E+00  0.44456480241E+03  0.44456480241E+03  0.00000000000E+00 0. -1.
         -2   -1    0    0    0  501 -0.00000000000E+00 -0.00000000000E+00 -0.32030374357E+02  0.32030374357E+02  0.00000000000E+00 0.  1.
         25    2    1    2    0    0 -0.17843042699E+02 -0.43779429611E+02  0.26716110485E+03  0.29876167459E+03  0.12509384329E+03 0.  0.
          5    1    3    3  502    0  0.58508942048E+01 -0.84139769014E+02  0.19680912524E+03  0.21416124269E+03  0.41800000000E+01 0.  1.
         -5    1    3    3    0  502 -0.23693936904E+02  0.40360339404E+02  0.70351979613E+02  0.84600431903E+02  0.41800000000E+01 0.  1.
        -11    1    1    2    0    0  0.29584918354E+02  0.11756354530E+02  0.36268206778E+01  0.32041115681E+02  0.00000000000E+00 0.  1.
         11    1    1    2    0    0 -0.11741875655E+02  0.32023075080E+02  0.14174650253E+03  0.14579238650E+03  0.00000000000E+00 0. -1.
</event>
<event>
 7    1  0.2810263E-009  0.9156178E+02  0.7561462E-02  0.1299113E+00
          4   -1    0    0  501    0  0.00000000000E+00  0.00000000000E+00  0.40275603837E+03  0.40275603837E+03  0.00000000000E+00 0. -1.
         -4   -1    0    0    0  501 -0.00000000000E+00 -0.00000000000E+00 -0.30194599986E+02  0.30194599986E+02  0.00000000000E+00 0.  1.
         25    2    1    2    0    0  0.11509678033E+02  0.16153970331E+02  0.24246870078E+03  0.27355507762E+03  0.12509151126E+03 0.  0.
          5    1    3    3  502    0 -0.55741461311E+02  0.18614256062E+02  0.10352560942E+03  0.11911601590E+03  0.41800000000E+01 0. -1.
         -5    1    3    3    0  502  0.67251139344E+02 -0.24602857309E+01  0.13894309136E+03  0.15443906172E+03  0.41800000000E+01 0. -1.
        -11    1    1    2    0    0  0.20962311772E+02 -0.11698513329E+02  0.12369232027E+03  0.12600025326E+03  0.00000000000E+00 0. -1.
         11    1    1    2    0    0 -0.32471989804E+02 -0.44554570018E+01  0.64004173331E+01  0.33395307470E+02  0.00000000000E+00 0.  1.
</event>
<event>
 7    1  0.2810263E-009  0.1148094E+03  0.7561462E-02  0.1251914E+00
         -2   -1    0    0    0  501 -0.00000000000E+00  0.00000000000E+00  0.67678323194E+03  0.67678323194E+03  0.00000000000E+00 0.  1.
          2   -1    0    0  501    0  0.00000000000E+00 -0.00000000000E+00 -0.24700487788E+02  0.24700487788E+02  0.00000000000E+00 0. -1.
         25    2    1    2    0    0  0.57438697410E+02  0.50079055311E+01  0.25261901760E+03  0.28772650664E+03  0.12508353806E+03 0.  0.
          5    1    3    3  502    0  0.72943937721E+02 -0.43535547930E+02  0.13620180118E+03  0.16057572989E+03  0.41800000000E+01 0. -1.
         -5    1    3    3    0  502 -0.15505240311E+02  0.48543453462E+02  0.11641721642E+03  0.12715077676E+03  0.41800000000E+01 0. -1.
        -11    1    1    2    0    0 -0.19813254368E+02  0.33929716958E+02  0.73652984665E+02  0.83477858690E+02  0.00000000000E+00 0. -1.
         11    1    1    2    0    0 -0.37625443042E+02 -0.38937622489E+02  0.32581074188E+03  0.33027935439E+03  0.00000000000E+00 0.  1.
</event>
<event>
 7    1  0.2810263E-009  0.1117144E+03  0.7561462E-02  0.1257428E+00
         -2   -1    0    0    0  501 -0.00000000000E+00  0.00000000000E+00  0.64607569345E+02  0.64607569345E+02  0.00000000000E+00 0.  1.
          2   -1    0    0  501    0  0.00000000000E+00 -0.00000000000E+00 -0.22899644354E+03  0.22899644354E+03  0.00000000000E+00 0. -1.
         25    2    1    2    0    0  0.30183715983E+02  0.40898502193E+02 -0.12421215298E+03  0.18346722510E+03  0.12509124488E+03 0.  0.
          5    1    3    3  502    0  0.13604006496E+02  0.85733523709E+02 -0.76096033289E+02  0.11551356960E+03  0.41800000000E+01 0. -1.
         -5    1    3    3    0  502  0.16579709487E+02 -0.44835021516E+02 -0.48116119693E+02  0.67953655497E+02  0.41800000000E+01 0. -1.
        -11    1    1    2    0    0  0.11997479739E+02  0.14556193733E+02 -0.35629109654E+02  0.40314460815E+02  0.00000000000E+00 0. -1.
         11    1    1    2    0    0 -0.42181195721E+02 -0.55454695926E+02 -0.45476115601E+01  0.69822326971E+02  0.00000000000E+00 0.  1.
</event>
<event>
 7    1  0.2810263E-009  0.1068981E+03  0.7561462E-02  0.1266424E+00
          1   -1    0    0  501    0  0.00000000000E+00  0.00000000000E+00  0.62380379786E+03  0.62380379786E+03  0.00000000000E+00 0. -1.
         -1   -1    0    0    0  501 -0.00000000000E+00 -0.00000000000E+00 -0.23707539026E+02  0.23707539026E+02  0.00000000000E+00 0.  1.
         25    2    1    2    0    0  0.76967334641E+01  0.34053289379E+01  0.48012233570E+03  0.49622049625E+03  0.12508592123E+03 0.  0.
          5    1    3    3  502    0  0.46774293380E+02 -0.41462556927E+02  0.30028192774E+03  0.30674694241E+03  0.41800000000E+01 0. -1.
         -5    1    3    3    0  502 -0.39077559916E+02  0.44867885865E+02  0.17984040796E+03  0.18947355384E+03  0.41800000000E+01 0. -1.
        -11    1    1    2    0    0 -0.20338039154E+02 -0.44275933385E+02  0.54777287670E+02  0.73311290796E+02  0.00000000000E+00 0.  1.
         11    1    1    2    0    0  0.12641305690E+02  0.40870604447E+02  0.65196635463E+02  0.77979549839E+02  0.00000000000E+00 0. -1.
</event>
<event>
 7    1  0.2810263E-009  0.1135062E+03  0.7561462E-02  0.1254211E+00
          1   -1    0    0  501    0  0.00000000000E+00  0.00000000000E+00  0.17808462472E+02  0.17808462472E+02  0.00000000000E+00 0.  1.
         -1   -1    0    0    0  501 -0.00000000000E+00 -0.00000000000E+00 -0.11669437103E+04  0.11669437103E+04  0.00000000000E+00 0. -1.
         25    2    1    2    0    0  0.11046569093E+02  0.84024605133E+02 -0.79064174763E+03  0.80494971358E+03  0.12508999698E+03 0.  0.
          5    1    3    3  502    0  0.38894692482E+02  0.13915622530E+02 -0.78434026274E+02  0.88745763455E+02  0.41800000000E+01 0. -1.
         -5    1    3    3    0  502 -0.27848123389E+02  0.70108982602E+02 -0.71220772136E+03  0.71620395013E+03  0.41800000000E+01 0. -1.
        -11    1    1    2    0    0 -0.35353578258E+02 -0.18185356296E+02 -0.52449984741E+02  0.65814767177E+02  0.00000000000E+00 0.  1.
         11    1    1    2    0    0  0.24307009166E+02 -0.65839248837E+02 -0.30604351545E+03  0.31398769201E+03  0.00000000000E+00 0. -1.
</event>
<event>
 7    1  0.2810263E-009  0.1146703E+03  0.7561462E-02  0.1252158E+00
         -1   -1    0    0    0  501 -0.00000000000E+00  0.00000000000E+00  0.29528866166E+02  0.29528866166E+02  0.00000000000E+00 0.  1.
          1   -1    0    0  501    0  0.00000000000E+00 -0.00000000000E+00 -0.61458631698E+03  0.61458631698E+03  0.00000000000E+00 0. -1.
         25    2    1    2    0    0  0.38855781786E+02 -0.47433524553E+02 -0.44181923294E+03  0.46326055961E+03  0.12508557256E+03 0.  0.
          5    1    3    3  502    0 -0.75533823147E+01  0.31360538776E+02 -0.42146389342E+02  0.53238402599E+02  0.41800000000E+01 0. -1.
         -5    1    3    3    0  502  0.46409164101E+02 -0.78794063329E+02 -0.39967284360E+03  0.41002215701E+03  0.41800000000E+01 0. -1.
        -11    1    1    2    0    0 -0.66418163194E+02  0.33478328465E+02 -0.73443285879E+02  0.10452792507E+03  0.00000000000E+00 0.  1.
         11    1    1    2    0    0  0.27562381408E+02  0.13955196088E+02 -0.69794931997E+02  0.76326698469E+02  0.00000000000E+00 0. -1.
</event>
<event>
 7    1  0.2810263E-009  0.2722012E+03  0.7561462E-02  0.1100026E+00
          3   -1    0    0  501    0  0.00000000000E+00  0.00000000000E+00  0.29585842470E+03  0.29585842470E+03  0.00000000000E+00 0. -1.
         -3   -1    0    0    0  501 -0.00000000000E+00 -0.00000000000E+00 -0.28399772247E+03  0.28399772247E+03  0.00000000000E+00 0.  1.
         25    2    1    2    0    0 -0.12152451900E+03 -0.23655233196E+03 -0.26994182760E+02  0.29512959339E+03  0.12509027349E+03 0.  0.
          5    1    3    3  502    0 -0.86856175347E+02 -0.15821456883E+03  0.41645266123E+02  0.18527721278E+03  0.41800000000E+01 0. -1.
         -5    1    3    3    0  502 -0.34668343648E+02 -0.78337763125E+02 -0.68639448883E+02  0.10985238061E+03  0.41800000000E+01 0. -1.
        -11    1    1    2    0    0  0.93464167674E+02  0.93078180878E+02 -0.52984318853E+01  0.13201201375E+03  0.00000000000E+00 0. -1.
         11    1    1    2    0    0  0.28060351321E+02  0.14347415108E+03  0.44153316877E+02  0.15271454002E+03  0.00000000000E+00 0.  1.
</event>
<event>
 7    1  0.2810263E-009  0.1335789E+03  0.7561462E-02  0.1222240E+00
         -2   -1    0    0    0  501 -0.00000000000E+00  0.00000000000E+00  0.29797911019E+02  0.29797911019E+02  0.00000000000E+00 0.  1.
          2   -1    0    0  501    0  0.00000000000E+00 -0.00000000000E+00 -0.80536445967E+03  0.80536445967E+03  0.00000000000E+00 0. -1.
         25    2    1    2    0    0  0.64372384043E+02 -0.86558330296E+02 -0.33848426054E+03  0.37663528495E+03  0.12508555018E+03 0.  0.
          5    1    3    3  502    0  0.42439100405E+02 -0.10731420917E+03 -0.32178078588E+03  0.34187389969E+03  0.41800000000E+01 0. -1.
         -5    1    3    3    0  502  0.21933283638E+02  0.20755878875E+02 -0.16703474668E+02  0.34761385257E+02  0.41800000000E+01 0. -1.
        -11    1    1    2    0    0 -0.62425226121E+02  0.39018930473E+02 -0.36366034537E+03  0.37103669978E+03  0.00000000000E+00 0. -1.
         11    1    1    2    0    0 -0.19471579219E+01  0.47539399823E+02 -0.73421942741E+02  0.87490385959E+02  0.00000000000E+00 0.  1.
</event>
<event>
 7    1  0.2810263E-009  0.1065706E+03  0.7561462E-02  0.1267056E+00
          1   -1    0    0  501    0  0.00000000000E+00  0.00000000000E+00  0.29554532289E+03  0.29554532289E+03  0.00000000000E+00 0. -1.
         -1   -1    0    0    0  501 -0.00000000000E+00 -0.00000000000E+00 -0.61670946069E+02  0.61670946069E+02  0.00000000000E+00 0.  1.
         25    2    1    2    0    0  0.47529607100E+02 -0.21238857584E+02  0.43206624271E+02  0.14221757250E+03  0.12509545525E+03 0.  0.
          5    1    3    3  502    0  0.71245794805E+02 -0.45342127496E+02  0.60537653637E+02  0.10399111362E+03  0.41800000000E+01 0.  1.
         -5    1    3    3    0  502 -0.23716187705E+02  0.24103269912E+02 -0.17331029366E+02  0.38226458881E+02  0.41800000000E+01 0.  1.
        -11    1    1    2    0    0 -0.36177011089E+02  0.51076715286E+02  0.91823164158E+02  0.11112650652E+03  0.00000000000E+00 0.  1.
         11    1    1    2    0    0 -0.11352596011E+02 -0.29837857702E+02  0.98844588394E+02  0.10387218994E+03  0.00000000000E+00 0. -1.
</event>
<event>
 7    1  0.2810263E-009  0.1124684E+03  0.7561462E-02  0.1256066E+00
         -1   -1    0    0    0  501 -0.00000000000E+00  0.00000000000E+00  0.87259216266E+02  0.87259216266E+02  0.00000000000E+00 0.  1.
          1   -1    0    0  501    0  0.00000000000E+00 -0.00000000000E+00 -0.33003393642E+03  0.33003393642E+03  0.00000000000E+00 0. -1.
         25    2    1    2    0    0  0.40774849426E+02  0.68117734100E+02 -0.22382858904E+01  0.14817362639E+03  0.12509116512E+03 0.  0.
          5    1    3    3  502    0 -0.41728443133E+02  0.40843742431E+02  0.12709066236E+02  0.59903814793E+02  0.41800000000E+01 0. -1.
         -5    1    3    3    0  502  0.82503292560E+02  0.27273991669E+02 -0.14947352126E+02  0.88269811602E+02  0.41800000000E+01 0. -1.
        -11    1    1    2    0    0 -0.12757071876E+02 -0.22607550892E+02 -0.35718396196E+01  0.26203096734E+02  0.00000000000E+00 0.  1.
         11    1    1    2    0    0 -0.28017777550E+02 -0.45510183208E+02 -0.23696459464E+03  0.24291642956E+03  0.00000000000E+00 0. -1.
</event>
<event>
 7    1  0.2810263E-009  0.9395475E+02  0.7561462E-02  0.1293548E+00
         -2   -1    0    0    0  501 -0.00000000000E+00  0.00000000000E+00  0.13066326315E+03  0.13066326315E+03  0.00000000000E+00 0.  1.
          2   -1    0    0  501    0  0.00000000000E+00 -0.00000000000E+00 -0.11561598586E+03  0.11561598586E+03  0.00000000000E+00 0. -1.
         25    2    1    2    0    0 -0.17729283238E+02  0.26637096997E+02  0.53661919809E+02  0.13982576047E+03  0.12509108374E+03 0.  0.
          5    1    3    3  502    0 -0.50495562874E+02  0.50197859418E+02 -0.15114405690E+01  0.71339917386E+02  0.41800000000E+01 0. -1.
         -5    1    3    3    0  502  0.32766279636E+02 -0.23560762421E+02  0.55173360378E+02  0.68485843081E+02  0.41800000000E+01 0. -1.
        -11    1    1    2    0    0  0.43593178473E+02 -0.84779224369E+01 -0.55132967434E+02  0.70794664180E+02  0.00000000000E+00 0. -1.
         11    1    1    2    0    0 -0.25863895235E+02 -0.18159174560E+02  0.16518324912E+02  0.35658824368E+02  0.00000000000E+00 0.  1.
</event>
<event>
 7    1  0.2810263E-009  0.2075599E+03  0.7561462E-02  0.1143513E+00
          2   -1    0    0  501    0  0.00000000000E+00  0.00000000000E+00  0.13984733718E+03  0.13984733718E+03  0.00000000000E+00 0. -1.
         -2   -1    0    0    0  501 -0.00000000000E+00 -0.00000000000E+00 -0.36135447932E+03  0.36135447932E+03  0.00000000000E+00 0.  1.
         25    2    1    2    0    0 -0.15681513670E+03  0.11828820902E+03 -0.13315264388E+03  0.26825294188E+03  0.12508767631E+03 0.  0.
          5    1    3    3  502    0 -0.21391015713E+01  0.97979371954E+01 -0.67238373131E+02  0.68110546541E+02  0.41800000000E+01 0. -1.
         -5    1    3    3    0  502 -0.15467603513E+03  0.10849027183E+03 -0.65914270748E+02  0.20014239534E+03  0.41800000000E+01 0. -1.
        -11    1    1    2    0    0  0.44625012579E+02 -0.88635310883E+02 -0.46491231129E+02  0.10958578674E+03  0.00000000000E+00 0.  1.
         11    1    1    2    0    0  0.11219012412E+03 -0.29652898138E+02 -0.41863267123E+02  0.12336308788E+03  0.00000000000E+00 0. -1.
</event>
<event>
 7    1  0.2810263E-009  0.1140041E+03  0.7561462E-02  0.1253330E+00
         -1   -1    0    0    0  501 -0.00000000000E+00  0.00000000000E+00  0.15352859815E+03  0.15352859815E+03  0.00000000000E+00 0.  1.
          1   -1    0    0  501    0  0.00000000000E+00 -0.00000000000E+00 -0.15211440956E+03  0.15211440956E+03  0.00000000000E+00 0. -1.
         25    2    1    2    0    0 -0.39589989750E+02  0.99651966346E+02  0.80161220981E+01  0.16495446184E+03  0.12509130498E+03 0.  0.
          5    1    3    3  502    0 -0.28764828542E+02  0.55223260720E+02  0.66104600678E+02  0.90908275291E+02  0.41800000000E+01 0. -1.
         -5    1    3    3    0  502 -0.10825161208E+02  0.44428705626E+02 -0.58088478580E+02  0.74046186549E+02  0.41800000000E+01 0. -1.
        -11    1    1    2    0    0 -0.10417541863E+02 -0.29680312264E+01  0.25081172787E+02  0.27320315082E+02  0.00000000000E+00 0.  1.
         11    1    1    2    0    0  0.50007531613E+02 -0.96683935119E+02 -0.31683106290E+02  0.11336823079E+03  0.00000000000E+00 0. -1.
</event>
<event>
 7    1  0.2810263E-009  0.1269098E+03  0.7561462E-02  0.1232114E+00
         -1   -1    0    0    0  501 -0.00000000000E+00  0.00000000000E+00  0.18343952150E+03  0.18343952150E+03  0.00000000000E+00 0.  1.
          1   -1    0    0  501    0  0.00000000000E+00 -0.00000000000E+00 -0.14912072678E+03  0.14912072678E+03  0.00000000000E+00 0. -1.
         25    2    1    2    0    0  0.63280398057E+02  0.83932436241E+02 -0.46767794643E+02  0.16995015136E+03  0.12508702850E+03 0.  0.
          5    1    3    3  502    0 -0.22344501491E+02  0.52470010809E+02 -0.53601079782E+02  0.78376826517E+02  0.41800000000E+01 0. -1.
         -5    1    3    3    0  502  0.85624899548E+02  0.31462425432E+02  0.68332851383E+01  0.91573324841E+02  0.41800000000E+01 0. -1.
        -11    1    1    2    0    0 -0.12104343826E+02 -0.12045923491E+02  0.71889661340E+02  0.73890072539E+02  0.00000000000E+00 0.  1.
         11    1    1    2    0    0 -0.51176054232E+02 -0.71886512750E+02  0.91969280192E+01  0.88720024386E+02  0.00000000000E+00 0. -1.
</event>
<event>
 7    1  0.2810263E-009  0.1277267E+03  0.7561462E-02  0.1230868E+00
          1   -1    0    0  501    0  0.00000000000E+00  0.00000000000E+00  0.11328775903E+03  0.11328775903E+03  0.00000000000E+00 0. -1.
         -1   -1    0    0    0  501 -0.00000000000E+00 -0.00000000000E+00 -0.19604572577E+03  0.19604572577E+03  0.00000000000E+00 0.  1.
         25    2    1    2    0    0  0.14158088190E+02  0.96291206682E+02 -0.83424744972E+01  0.15871514713E+03  0.12509377723E+03 0.  0.
          5    1    3    3  502    0  0.13968212878E+01  0.12211825058E+03 -0.25633703463E+02  0.12485742824E+03  0.41800000000E+01 0. -1.
         -5    1    3    3    0  502  0.12761266902E+02 -0.25827043893E+02  0.17291228966E+02  0.33857718889E+02  0.41800000000E+01 0. -1.
        -11    1    1    2    0    0  0.32569742412E+01 -0.80717861051E+02 -0.91532850379E+01  0.81300452648E+02  0.00000000000E+00 0. -1.
         11    1    1    2    0    0 -0.17415062431E+02 -0.15573345632E+02 -0.65262207209E+02  0.69317885018E+02  0.00000000000E+00 0.  1.
</event>
<event>
 7    1  0.2810263E-009  0.2020767E+03  0.7561462E-02  0.1147999E+00
          2   -1    0    0  501    0  0.00000000000E+00  0.00000000000E+00  0.14419073972E+04  0.14419073972E+04  0.00000000000E+00 0.  1.
         -2   -1    0    0    0  501 -0.00000000000E+00 -0.00000000000E+00 -0.33495775014E+02  0.33495775014E+02  0.00000000000E+00 0. -1.
         25    2    1    2    0    0  0.10486886882E+03 -0.15693295724E+03  0.81665265571E+03  0.84746375927E+03  0.12509128865E+03 0.  0.
          5    1    3    3  502    0  0.12395918787E+03 -0.14887427616E+03  0.61740812897E+03  0.64710099712E+03  0.41800000000E+01 0. -1.
         -5    1    3    3    0  502 -0.19090319046E+02 -0.80586810716E+01  0.19924452674E+03  0.20036276215E+03  0.41800000000E+01 0. -1.
        -11    1    1    2    0    0 -0.44799660928E+02  0.55097288889E+02  0.10315767802E+03  0.12523668550E+03  0.00000000000E+00 0. -1.
         11    1    1    2    0    0 -0.60069207894E+02  0.10183566835E+03  0.48860128844E+03  0.50270272741E+03  0.00000000000E+00 0.  1.
</event>
<event>
 7    1  0.2810263E-009  0.9503136E+02  0.7561462E-02  0.1291105E+00
          2   -1    0    0  501    0  0.00000000000E+00  0.00000000000E+00  0.17312620823E+02  0.17312620823E+02  0.00000000000E+00 0. -1.
         -2   -1    0    0    0  501 -0.00000000000E+00 -0.00000000000E+00 -0.11345438012E+04  0.11345438012E+04  0.00000000000E+00 0.  1.
         25    2    1    2    0    0 -0.33033835306E+02  0.67005337011E+01 -0.94547292757E+03  0.95430742784E+03  0.12508988222E+03 0.  0.
          5    1    3    3  502    0  0.69657082363E+01 -0.36127949308E+02 -0.97395869169E+02  0.10419778090E+03  0.41800000000E+01 0.  1.
         -5    1    3    3    0  502 -0.39999543542E+02  0.42828483009E+02 -0.84807705840E+03  0.85010964694E+03  0.41800000000E+01 0.  1.
        -11    1    1    2    0    0  0.14537884924E+02 -0.47398373052E+02 -0.11550912386E+03  0.12569929817E+03  0.00000000000E+00 0.  1.
         11    1    1    2    0    0  0.18495950382E+02  0.40697839351E+02 -0.56249128908E+02  0.71849695972E+02  0.00000000000E+00 0. -1.
</event>
<event>
 7    1  0.2810263E-009  0.1251842E+03  0.7561462E-02  0.1234782E+00
         -2   -1    0    0    0  501 -0.00000000000E+00  0.00000000000E+00  0.79607584141E+03  0.79607584141E+03  0.00000000000E+00 0. -1.
          2   -1    0    0  501    0  0.00000000000E+00 -0.00000000000E+00 -0.23962552740E+02  0.23962552740E+02  0.00000000000E+00 0.  1.
         25    2    1    2    0    0  0.46736105600E+02 -0.72519773958E+02  0.45414250523E+03  0.47889076680E+03  0.12509024860E+03 0.  0.
          5    1    3    3  502    0 -0.20959203334E+02  0.79570200141E+01  0.14960778612E+02  0.27274524168E+02  0.41800000000E+01 0. -1.
         -5    1    3    3    0  502  0.67695308934E+02 -0.80476793972E+02  0.43918172662E+03  0.45161624264E+03  0.41800000000E+01 0. -1.
        -11    1    1    2    0    0 -0.62922535298E+02  0.18001064431E+02  0.14547996310E+03  0.15952336328E+03  0.00000000000E+00 0.  1.
         11    1    1    2    0    0  0.16186429698E+02  0.54518709527E+02  0.17249082035E+03  0.18162426407E+03  0.00000000000E+00 0. -1.
</event>
<event>
 7    1  0.2810263E-009  0.1044787E+03  0.7561462E-02  0.1271150E+00
         -2   -1    0    0    0  501 -0.00000000000E+00  0.00000000000E+00  0.10955512021E+03  0.10955512021E+03  0.00000000000E+00 0.  1.
          2   -1    0    0  501    0  0.00000000000E+00 -0.00000000000E+00 -0.21315661678E+03  0.21315661678E+03  0.00000000000E+00 0. -1.
         25    2    1    2    0    0 -0.36213937552E+02  0.80427241756E+02  0.90444363366E+01  0.15332696282E+03  0.12508942885E+03 0.  0.
          5    1    3    3  502    0 -0.12463800832E+02 -0.14524543035E+02 -0.39426608262E+02  0.44025430385E+02  0.41800000000E+01 0.  1.
         -5    1    3    3    0  502 -0.23750136720E+02  0.94951784790E+02  0.48471044599E+02  0.10930153244E+03  0.41800000000E+01 0.  1.
        -11    1    1    2    0    0  0.36685574496E+02 -0.55862230161E+02 -0.14732624371E+02  0.68435884999E+02  0.00000000000E+00 0.  1.
         11    1    1    2    0    0 -0.47163694453E+00 -0.24565011595E+02 -0.97913308535E+02  0.10094888917E+03  0.00000000000E+00 0. -1.
</event>
<event>
 7    1  0.2810263E-009  0.7013001E+02  0.7561462E-02  0.1359651E+00
          4   -1    0    0  501    0  0.00000000000E+00  0.00000000000E+00  0.41502495940E+02  0.41502495940E+02  0.00000000000E+00 0. -1.
         -4   -1    0    0    0  501 -0.00000000000E+00 -0.00000000000E+00 -0.50809846275E+03  0.50809846275E+03  0.00000000000E+00 0.  1.
         25    2    1    2    0    0 -0.30011578944E+02 -0.18593745223E+02 -0.41775845620E+03  0.43751513075E+03  0.12510371568E+03 0.  0.
          5    1    3    3  502    0 -0.10740729446E+01 -0.87938552063E+01  0.67448381485E+01  0.11893307518E+02  0.41800000000E+01 0. -1.
         -5    1    3    3    0  502 -0.28937505999E+02 -0.97998900166E+01 -0.42450329435E+03  0.42562182324E+03  0.41800000000E+01 0. -1.
        -11    1    1    2    0    0  0.56176420290E+02 -0.13937825355E+02 -0.36987142059E+02  0.68688440439E+02  0.00000000000E+00 0. -1.
         11    1    1    2    0    0 -0.26164841346E+02  0.32531570577E+02 -0.11850368547E+02  0.43397387498E+02  0.00000000000E+00 0.  1.
</event>
<event>
 7    1  0.2810263E-009  0.1119588E+03  0.7561462E-02  0.1256985E+00
          1   -1    0    0  501    0  0.00000000000E+00  0.00000000000E+00  0.56715285089E+02  0.56715285089E+02  0.00000000000E+00 0. -1.
         -1   -1    0    0    0  501 -0.00000000000E+00 -0.00000000000E+00 -0.30167945999E+03  0.30167945999E+03  0.00000000000E+00 0.  1.
         25    2    1    2    0    0  0.40315067706E+02 -0.58121350641E+02 -0.10795887562E+03  0.17973778184E+03  0.12508858985E+03 0.  0.
          5    1    3    3  502    0 -0.16852215543E+02  0.12413569365E+02 -0.82692335117E+02  0.85402509098E+02  0.41800000000E+01 0. -1.
         -5    1    3    3    0  502  0.57167283249E+02 -0.70534920005E+02 -0.25266540507E+02  0.94335272743E+02  0.41800000000E+01 0. -1.
        -11    1    1    2    0    0 -0.88166556873E+01  0.75294710338E+02 -0.72776167397E+02  0.10508756998E+03  0.00000000000E+00 0.  1.
         11    1    1    2    0    0 -0.31498412019E+02 -0.17173359697E+02 -0.64229131877E+02  0.73569393260E+02  0.00000000000E+00 0. -1.
</event>
<event>
 7    1  0.2810263E-009  0.1220176E+03  0.7561462E-02  0.1239805E+00
          2   -1    0    0  501    0  0.00000000000E+00  0.00000000000E+00  0.60041509257E+03  0.60041509257E+03  0.00000000000E+00 0.  1.
         -2   -1    0    0    0  501 -0.00000000000E+00 -0.00000000000E+00 -0.28429661015E+02  0.28429661015E+02  0.00000000000E+00 0. -1.
         25    2    1    2    0    0 -0.65346779542E+02 -0.29730887641E+02  0.33108290521E+03  0.36113346260E+03  0.12508940966E+03 0.  0.
          5    1    3    3  502    0 -0.24787845980E+02  0.40507402582E+02  0.52327082637E+02  0.70787590364E+02  0.41800000000E+01 0. -1.
         -5    1    3    3    0  502 -0.40558933563E+02 -0.70238290223E+02  0.27875582258E+03  0.29034587224E+03  0.41800000000E+01 0. -1.
        -11    1    1    2    0    0  0.24054164973E+02 -0.32517514292E+02  0.64343849090E+02  0.76000805943E+02  0.00000000000E+00 0.  1.
         11    1    1    2    0    0  0.41292614570E+02  0.62248401933E+02  0.17655867725E+03  0.19171048504E+03  0.00000000000E+00 0. -1.
</event>
<event>
 7    1  0.3239968E-009  0.1007491E+03  0.7561462E-02  0.1278729E+00
         -3   -1    0    0    0  501 -0.00000000000E+00  0.00000000000E+00  0.62691154117E+02  0.62691154117E+02  0.00000000000E+00 0.  1.
          3   -1    0    0  501    0  0.00000000000E+00 -0.00000000000E+00 -0.28236894415E+03  0.28236894415E+03  0.00000000000E+00 0. -1.
         25    2    1    2    0    0 -0.11508958950E+02  0.73642968639E+02 -0.97216392180E+02  0.17508512215E+03  0.12509208658E+03 0.  0.
          5    1    3    3  502    0  0.34046607148E+02  0.73574597099E+02 -0.17299332030E+02  0.83000795691E+02  0.41800000000E+01 0.  1.
         -5    1    3    3    0  502 -0.45555566098E+02  0.68371539655E-01 -0.79917060150E+02  0.92084326463E+02  0.41800000000E+01 0.  1.
        -11    1    1    2    0    0  0.40050074784E+01 -0.19005182839E+02 -0.11221135944E+03  0.11387987640E+03  0.00000000000E+00 0. -1.
         11    1    1    2    0    0  0.75039514715E+01 -0.54637785800E+02 -0.10250038407E+02  0.56095099716E+02  0.00000000000E+00 0.  1.
</event>
<event>
 7    1  0.2943837E-009  0.9826793E+02  0.7561462E-02  0.1283981E+00
         -1   -1    0    0    0  501 -0.00000000000E+00  0.00000000000E+00  0.33036836100E+02  0.33036836100E+02  0.00000000000E+00 0.  1.
          1   -1    0    0  501    0  0.00000000000E+00 -0.00000000000E+00 -0.43260486700E+03  0.43260486700E+03  0.00000000000E+00 0. -1.
         25    2    1    2    0    0 -0.27913229916E+02 -0.31137695576E+02 -0.17061980720E+03  0.21565704340E+03  0.12509251484E+03 0.  0.
          5    1    3    3  502    0 -0.31453467675E+02  0.40538238876E+02 -0.35271697653E+02  0.62403801929E+02  0.41800000000E+01 0. -1.
         -5    1    3    3    0  502  0.35402377591E+01 -0.71675934452E+02 -0.13534810955E+03  0.15325324147E+03  0.41800000000E+01 0. -1.
        -11    1    1    2    0    0 -0.10473824140E+02  0.33116537880E+02 -0.25891281399E+02  0.43321640386E+02  0.00000000000E+00 0.  1.
         11    1    1    2    0    0  0.38387054055E+02 -0.19788423040E+01 -0.20305694230E+03  0.20666301931E+03  0.00000000000E+00 0. -1.
</event>
<event>
 7    1  0.2810263E-009  0.1134342E+03  0.7561462E-02  0.1254339E+00
          1   -1    0    0  501    0  0.00000000000E+00  0.00000000000E+00  0.46560834203E+03  0.46560834203E+03  0.00000000000E+00 0. -1.
         -1   -1    0    0    0  501 -0.00000000000E+00 -0.00000000000E+00 -0.46886370060E+02  0.46886370060E+02  0.00000000000E+00 0.  1.
         25    2    1    2    0    0 -0.43746404646E+01 -0.99789479758E+02  0.23455402998E+03  0.28397246964E+03  0.12509073821E+03 0.  0.
          5    1    3    3  502    0 -0.17334123752E+02 -0.32463183463E+02 -0.25437793521E+01  0.37125103908E+02  0.41800000000E+01 0. -1.
         -5    1    3    3    0  502  0.12959483287E+02 -0.67326296296E+02  0.23709780933E+03  0.24684736573E+03  0.41800000000E+01 0. -1.
        -11    1    1    2    0    0  0.32820047308E+02  0.80051887102E+02  0.76723235093E+02  0.11563699640E+03  0.00000000000E+00 0.  1.
         11    1    1    2    0    0 -0.28445406843E+02  0.19737592656E+02  0.10744470690E+03  0.11288524605E+03  0.00000000000E+00 0. -1.
</event>
<event>
 7    1  0.2810263E-009  0.1153851E+03  0.7561462E-02  0.1250910E+00
         -3   -1    0    0    0  501 -0.00000000000E+00  0.00000000000E+00  0.41092084176E+02  0.41092084176E+02  0.00000000000E+00 0.  1.
          3   -1    0    0  501    0  0.00000000000E+00 -0.00000000000E+00 -0.43332110343E+03  0.43332110343E+03  0.00000000000E+00 0. -1.
         25    2    1    2    0    0  0.60964254991E+02 -0.11774639725E+01 -0.12766999372E+03  0.18885235905E+03  0.12509020510E+03 0.  0.
          5    1    3    3  502    0 -0.27289155156E+02  0.29627463582E+02 -0.16977185943E+02  0.43911067283E+02  0.41800000000E+01 0.  1.
         -5    1    3    3    0  502  0.88253410146E+02 -0.30804927555E+02 -0.11069280778E+03  0.14494129177E+03  0.41800000000E+01 0.  1.
        -11    1    1    2    0    0 -0.22791997620E+02 -0.36524825507E+02 -0.18256759848E+03  0.18757522771E+03  0.00000000000E+00 0.  1.
         11    1    1    2    0    0 -0.38172257370E+02  0.37702289480E+02 -0.81991427051E+02  0.97985600853E+02  0.00000000000E+00 0. -1.
</event>
<event>
 7    1  0.2810263E-009  0.1396907E+03  0.7561462E-02  0.1213746E+00
          1   -1    0    0  501    0  0.00000000000E+00  0.00000000000E+00  0.87384892648E+02  0.87384892648E+02  0.00000000000E+00 0. -1.
         -1   -1    0    0    0  501 -0.00000000000E+00 -0.00000000000E+00 -0.28972357204E+03  0.28972357204E+03  0.00000000000E+00 0.  1.
         25    2    1    2    0    0  0.32507391117E+02 -0.11163445090E+03 -0.10464293403E+03  0.20029063325E+03  0.12508882052E+03 0.  0.
          5    1    3    3  502    0  0.55385553161E+02 -0.77349334587E+02 -0.12251561621E+03  0.15517096273E+03  0.41800000000E+01 0.  1.
         -5    1    3    3    0  502 -0.22878162044E+02 -0.34285116317E+02  0.17872682178E+02  0.45119670518E+02  0.41800000000E+01 0.  1.
        -11    1    1    2    0    0 -0.41501085710E+02  0.12208085631E+03 -0.99562789836E+02  0.16290741147E+03  0.00000000000E+00 0.  1.
         11    1    1    2    0    0  0.89936945933E+01 -0.10446405407E+02  0.18670444820E+01  0.13910419960E+02  0.00000000000E+00 0. -1.
</event>
<event>
 7    1  0.2810263E-009  0.1398343E+03  0.7561462E-02  0.1213552E+00
          1   -1    0    0  501    0  0.00000000000E+00  0.00000000000E+00  0.13183352197E+03  0.13183352197E+03  0.00000000000E+00 0. -1.
         -1   -1    0    0    0  501 -0.00000000000E+00 -0.00000000000E+00 -0.18375182362E+03  0.18375182362E+03  0.00000000000E+00 0.  1.
         25    2    1    2    0    0  0.19710103947E+01 -0.11240061048E+03 -0.10261034599E+02  0.16849635340E+03  0.12509176695E+03 0.  0.
          5    1    3    3  502    0 -0.47185221306E+02 -0.39238548762E+01  0.71368368478E+01  0.48065045376E+02  0.41800000000E+01 0. -1.
         -5    1    3    3    0  502  0.49156231700E+02 -0.10847675560E+03 -0.17397871447E+02  0.12043130802E+03  0.41800000000E+01 0. -1.
        -11    1    1    2    0    0  0.38495759502E+01  0.18969236366E+02  0.25401837936E+02  0.31935944229E+02  0.00000000000E+00 0. -1.
         11    1    1    2    0    0 -0.58205863448E+01  0.93431374115E+02 -0.67059104981E+02  0.11515304796E+03  0.00000000000E+00 0.  1.
</event>
<event>
 7    1  0.2810263E-009  0.6759797E+02  0.7561462E-02  0.1368457E+00
         -1   -1    0    0    0  501 -0.00000000000E+00  0.00000000000E+00  0.15852023300E+03  0.15852023300E+03  0.00000000000E+00 0.  1.
          1   -1    0    0  501    0  0.00000000000E+00 -0.00000000000E+00 -0.82413955100E+02  0.82413955100E+02  0.00000000000E+00 0. -1.
         25    2    1    2    0    0  0.34387621992E+02 -0.15299780753E+01  0.18446956602E+02  0.13104606066E+03  0.12509168809E+03 0.  0.
          5    1    3    3  502    0  0.15242608278E+02  0.46330439707E+02 -0.32253500332E+02  0.58622584677E+02  0.41800000000E+01 0.  1.
         -5    1    3    3    0  502  0.19145013714E+02 -0.47860417782E+02  0.50700456934E+02  0.72423475985E+02  0.41800000000E+01 0.  1.
        -11    1    1    2    0    0 -0.20325742549E+02  0.22297983993E+01  0.80500218054E+02  0.83056564568E+02  0.00000000000E+00 0.  1.
         11    1    1    2    0    0 -0.14061879442E+02 -0.69982032401E+00 -0.22840896750E+02  0.26831562875E+02  0.00000000000E+00 0. -1.
</event>
<event>
 7    1  0.2810263E-009  0.1328133E+03  0.7561462E-02  0.1223340E+00
         -1   -1    0    0    0  501 -0.00000000000E+00  0.00000000000E+00  0.71940936587E+02  0.71940936587E+02  0.00000000000E+00 0.  1.
          1   -1    0    0  501    0  0.00000000000E+00 -0.00000000000E+00 -0.33468036297E+03  0.33468036297E+03  0.00000000000E+00 0. -1.
         25    2    1    2    0    0 -0.97946791114E+02  0.56145363104E+02 -0.15101120746E+03  0.22626888674E+03  0.12508936262E+03 0.  0.
          5    1    3    3  502    0 -0.46292737778E+02  0.80016248904E+02 -0.38715278517E+02  0.10030933581E+03  0.41800000000E+01 0.  1.
         -5    1    3    3    0  502 -0.51654053336E+02 -0.23870885800E+02 -0.11229592894E+03  0.12595955093E+03  0.41800000000E+01 0.  1.
        -11    1    1    2    0    0  0.46970465008E+02 -0.42300078109E+02 -0.76949364949E+01  0.63676787283E+02  0.00000000000E+00 0.  1.
         11    1    1    2    0    0  0.50976326106E+02 -0.13845284996E+02 -0.10403328243E+03  0.11667562553E+03  0.00000000000E+00 0. -1.
</event>
<event>
 7    1  0.2810263E-009  0.1467419E+03  0.7561462E-02  0.1204535E+00
          2   -1    0    0  501    0  0.00000000000E+00  0.00000000000E+00  0.39289507112E+03  0.39289507112E+03  0.00000000000E+00 0. -1.
         -2   -1    0    0    0  501 -0.00000000000E+00 -0.00000000000E+00 -0.62066602446E+02  0.62066602446E+02  0.00000000000E+00 0.  1.
         25    2    1    2    0    0 -0.67173926353E+02  0.88634796212E+02  0.22597918442E+03  0.28121586090E+03  0.12508918879E+03 0.  0.
          5    1    3    3  502    0  0.18285012938E+02 -0.18225658739E+02  0.16336044218E+02  0.30835938048E+02  0.41800000000E+01 0. -1.
         -5    1    3    3    0  502 -0.85458939291E+02  0.10686045495E+03  0.20964314020E+03  0.25037992286E+03  0.41800000000E+01 0. -1.
        -11    1    1    2    0    0  0.15526593618E+02  0.10438923312E+02 -0.24129178516E+01  0.18864474598E+02  0.00000000000E+00 0.  1.
         11    1    1    2    0    0  0.51647332735E+02 -0.99073719525E+02  0.10726220211E+03  0.15488133807E+03  0.00000000000E+00 0. -1.
</event>
<event>
 7    1  0.2810263E-009  0.1595655E+03  0.7561462E-02  0.1189188E+00
         -2   -1    0    0    0  501 -0.00000000000E+00  0.00000000000E+00  0.30531530650E+02  0.30531530650E+02  0.00000000000E+00 0.  1.
          2   -1    0    0  501    0  0.00000000000E+00 -0.00000000000E+00 -0.11527503907E+04  0.11527503907E+04  0.00000000000E+00 0. -1.
         25    2    1    2    0    0  0.83044732051E+02  0.10487840091E+03 -0.82377560016E+03  0.84388942566E+03  0.12508883574E+03 0.  0.
          5    1    3    3  502    0  0.73851963449E+02 -0.37280280694E+01 -0.32908021499E+03  0.33731183050E+03  0.41800000000E+01 0. -1.
         -5    1    3    3    0  502  0.91927686021E+01  0.10860642898E+03 -0.49469538518E+03  0.50657759517E+03  0.41800000000E+01 0. -1.
        -11    1    1    2    0    0 -0.21994617849E+02 -0.12604322387E+02 -0.50742795026E+01  0.25853055325E+02  0.00000000000E+00 0.  1.
         11    1    1    2    0    0 -0.61050114202E+02 -0.92274078519E+02 -0.29336898040E+03  0.31353944038E+03  0.00000000000E+00 0. -1.
</event>
<event>
 7    1  0.3441264E-009  0.1190271E+03  0.7561462E-02  0.1244711E+00
         -4   -1    0    0    0  501 -0.00000000000E+00  0.00000000000E+00  0.66003537910E+02  0.66003537910E+02  0.00000000000E+00 0.  1.
          4   -1    0    0  501    0  0.00000000000E+00 -0.00000000000E+00 -0.30051002799E+03  0.30051002799E+03  0.00000000000E+00 0. -1.
         25    2    1    2    0    0 -0.47659290047E+02  0.68489758513E+02 -0.85693607068E+02  0.17307013048E+03  0.12509045056E+03 0.  0.
          5    1    3    3  502    0 -0.23661584190E+02  0.98854290409E+02 -0.31797938610E+02  0.10658622143E+03  0.41800000000E+01 0. -1.
         -5    1    3    3    0  502 -0.23997705857E+02 -0.30364531896E+02 -0.53895668458E+02  0.66483909047E+02  0.41800000000E+01 0. -1.
        -11    1    1    2    0    0  0.44449973365E+02 -0.19904986656E+02 -0.13395849777E+03  0.14253732056E+03  0.00000000000E+00 0. -1.
         11    1    1    2    0    0  0.32093166818E+01 -0.48584771858E+02 -0.14854385239E+02  0.50906114867E+02  0.00000000000E+00 0.  1.
</event>
<event>
 7    1  0.2810263E-009  0.9380230E+02  0.7561462E-02  0.1293897E+00
          1   -1    0    0  501    0  0.00000000000E+00  0.00000000000E+00  0.11988428799E+03  0.11988428799E+03  0.00000000000E+00 0. -1.
         -1   -1    0    0    0  501 -0.00000000000E+00 -0.00000000000E+00 -0.10509522364E+03  0.10509522364E+03  0.00000000000E+00 0.  1.
         25    2    1    2    0    0 -0.25015128973E+01  0.28965984487E+02  0.10580283708E+02  0.12886258499E+03  0.12509331550E+03 0.  0.
          5    1    3    3  502    0  0.55171877865E+02  0.40194238944E+02 -0.28437849184E+01  0.68447589177E+02  0.41800000000E+01 0. -1.
         -5    1    3    3    0  502 -0.57673390763E+02 -0.11228254458E+02  0.13424068626E+02  0.60414995810E+02  0.41800000000E+01 0. -1.
        -11    1    1    2    0    0  0.19578728615E+02  0.67606558156E+01 -0.34821751143E+02  0.40516508165E+02  0.00000000000E+00 0.  1.
         11    1    1    2    0    0 -0.17077215717E+02 -0.35726640302E+02  0.39030531778E+02  0.55600418477E+02  0.00000000000E+00 0. -1.
</event>
<event>
 7    1  0.2810263E-009  0.9647268E+02  0.7561462E-02  0.1287893E+00
         -2   -1    0    0    0  501 -0.00000000000E+00  0.00000000000E+00  0.11443717686E+02  0.11443717686E+02  0.00000000000E+00 0.  1.
          2   -1    0    0  501    0  0.00000000000E+00 -0.00000000000E+00 -0.21476029647E+04  0.21476029647E+04  0.00000000000E+00 0. -1.
         25    2    1    2    0    0  0.65231193349E+01  0.24042816011E+02 -0.19022397800E+04  0.19065103600E+04  0.12507983071E+03 0.  0.
          5    1    3    3  502    0 -0.22478294378E+02  0.52653698014E+02 -0.16474976175E+04  0.16484973636E+04  0.41800000000E+01 0. -1.
         -5    1    3    3    0  502  0.29001413713E+02 -0.28610882003E+02 -0.25474216252E+03  0.25801299644E+03  0.41800000000E+01 0. -1.
        -11    1    1    2    0    0 -0.48689334807E+02 -0.18385673020E+02 -0.14236165768E+03  0.15157679860E+03  0.00000000000E+00 0.  1.
         11    1    1    2    0    0  0.42166215472E+02 -0.56571429913E+01 -0.91557809286E+02  0.10095952375E+03  0.00000000000E+00 0. -1.
</event>
<event>
 7    1  0.2810263E-009  0.7528617E+02  0.7561462E-02  0.1342987E+00
          1   -1    0    0  501    0  0.00000000000E+00  0.00000000000E+00  0.66343847088E+02  0.66343847088E+02  0.00000000000E+00 0. -1.
         -1   -1    0    0    0  501 -0.00000000000E+00 -0.00000000000E+00 -0.22072814031E+03  0.22072814031E+03  0.00000000000E+00 0.  1.
         25    2    1    2    0    0 -0.46142240864E+02 -0.21521716300E+02 -0.11301239987E+03  0.17610083080E+03  0.12508960557E+03 0.  0.
          5    1    3    3  502    0 -0.76367027272E+01 -0.10757046423E+02 -0.13123574247E+03  0.13196335013E+03  0.41800000000E+01 0. -1.
         -5    1    3    3    0  502 -0.38505538137E+02 -0.10764669877E+02  0.18223342602E+02  0.44137480675E+02  0.41800000000E+01 0. -1.
        -11    1    1    2    0    0  0.57314347863E+02 -0.14249098517E+02 -0.43631735761E+02  0.73428193802E+02  0.00000000000E+00 0.  1.
         11    1    1    2    0    0 -0.11172106999E+02  0.35770814816E+02  0.22598424053E+01  0.37542962791E+02  0.00000000000E+00 0. -1.
</event>
<event>
 7    1  0.2810263E-009  0.1189551E+03  0.7561462E-02  0.1244831E+00
         -1   -1    0    0    0  501 -0.00000000000E+00  0.00000000000E+00  0.34567600183E+02  0.34567600183E+02  0.00000000000E+00 0.  1.
          1   -1    0    0  501    0  0.00000000000E+00 -0.00000000000E+00 -0.70674303314E+03  0.70674303314E+03  0.00000000000E+00 0. -1.
         25    2    1    2    0    0 -0.86146956574E+02  0.61326159112E+02 -0.45308892412E+03  0.48178727325E+03  0.12508879878E+03 0.  0.
          5    1    3    3  502    0 -0.82026169574E+02  0.41511285864E+02 -0.13709391296E+03  0.16511720903E+03  0.41800000000E+01 0.  1.
         -5    1    3    3    0  502 -0.41207869995E+01  0.19814873248E+02 -0.31599501116E+03  0.31667006421E+03  0.41800000000E+01 0.  1.
        -11    1    1    2    0    0  0.90975793050E+02 -0.33456793374E+02 -0.20737265977E+03  0.22890909105E+03  0.00000000000E+00 0. -1.
         11    1    1    2    0    0 -0.48288364759E+01 -0.27869365737E+02 -0.11713849063E+02  0.30614269029E+02  0.00000000000E+00 0.  1.
</event>
<event>
 7    1  0.2810263E-009  0.1165717E+03  0.7561462E-02  0.1248862E+00
          1   -1    0    0  501    0  0.00000000000E+00  0.00000000000E+00  0.97172313129E+02  0.97172313129E+02  0.00000000000E+00 0. -1.
         -1   -1    0    0    0  501 -0.00000000000E+00 -0.00000000000E+00 -0.18712336324E+03  0.18712336324E+03  0.00000000000E+00 0.  1.
         25    2    1    2    0    0  0.75455649165E+02  0.27789629479E+02 -0.63524006299E+02  0.16170731639E+03  0.12509251897E+03 0.  0.
          5    1    3    3  502    0  0.83037497617E+02 -0.25114877875E+02 -0.64347394478E+02  0.10809275035E+03  0.41800000000E+01 0. -1.
         -5    1    3    3    0  502 -0.75818484526E+01  0.52904507353E+02  0.82338817921E+00  0.53614566046E+02  0.41800000000E+01 0. -1.
        -11    1    1    2    0    0 -0.14615573678E+02 -0.28287168586E+02 -0.48371200222E+02  0.57909860227E+02  0.00000000000E+00 0.  1.
         11    1    1    2    0    0 -0.60840075486E+02  0.49753910722E+00  0.21944156405E+02  0.64678499756E+02  0.00000000000E+00 0. -1.
</event>
<event>
 7    1  0.2810263E-009  0.1888356E+03  0.7561462E-02  0.1159516E+00
         -1   -1    0    0    0  501 -0.00000000000E+00  0.00000000000E+00  0.85545142899E+02  0.85545142899E+02  0.00000000000E+00 0.  1.
          1   -1    0    0  501    0  0.00000000000E+00 -0.00000000000E+00 -0.55216496824E+03  0.55216496824E+03  0.00000000000E+00 0. -1.
         25    2    1    2    0    0  0.37704404508E+02  0.17918997801E+03 -0.30549310167E+03  0.37749796294E+03  0.12509199220E+03 0.  0.
          5    1    3    3  502    0 -0.77941572127E+01  0.40210266536E+01 -0.11238725316E+03  0.11280640325E+03  0.41800000000E+01 0. -1.
         -5    1    3    3    0  502  0.45498561721E+02  0.17516895136E+03 -0.19310584851E+03  0.26469155968E+03  0.41800000000E+01 0. -1.
        -11    1    1    2    0    0  0.45612586634E+00 -0.88923878595E+02 -0.24804884262E+02  0.92319805667E+02  0.00000000000E+00 0.  1.
         11    1    1    2    0    0 -0.38160530374E+02 -0.90266099417E+02 -0.13632183941E+03  0.16789234254E+03  0.00000000000E+00 0. -1.
</event>
<event>
 7    1  0.2810263E-009  0.1162817E+03  0.7561462E-02  0.1249360E+00
         -2   -1    0    0    0  501 -0.00000000000E+00  0.00000000000E+00  0.30004111761E+02  0.30004111761E+02  0.00000000000E+00 0. -1.
          2   -1    0    0  501    0  0.00000000000E+00 -0.00000000000E+00 -0.57099876061E+03  0.57099876061E+03  0.00000000000E+00 0.  1.
         25    2    1    2    0    0 -0.60699705012E+02  0.37280137589E+02 -0.26435916062E+03  0.30101091876E+03  0.12509014575E+03 0.  0.
          5    1    3    3  502    0 -0.94540067046E+02  0.24911703223E+02 -0.13547958089E+03  0.16712452385E+03  0.41800000000E+01 0.  1.
         -5    1    3    3    0  502  0.33840362034E+02  0.12368434366E+02 -0.12887957973E+03  0.13388639491E+03  0.41800000000E+01 0.  1.
        -11    1    1    2    0    0 -0.59548712762E+01 -0.30908693824E+02 -0.17809202663E+03  0.18085236463E+03  0.00000000000E+00 0.  1.
         11    1    1    2    0    0  0.66654576288E+02 -0.63714437649E+01 -0.98543461601E+02  0.11913958897E+03  0.00000000000E+00 0. -1.
</event>
<event>
 7    1  0.2810263E-009  0.9515134E+02  0.7561462E-02  0.1290836E+00
         -2   -1    0    0    0  501 -0.00000000000E+00  0.00000000000E+00  0.13883222476E+03  0.13883222476E+03  0.00000000000E+00 0.  1.
          2   -1    0    0  501    0  0.00000000000E+00 -0.00000000000E+00 -0.89120857224E+02  0.89120857224E+02  0.00000000000E+00 0. -1.
         25    2    1    2    0    0  0.25131133400E+02 -0.16499966218E+00  0.18184866722E+02  0.12887879732E+03  0.12508978347E+03 0.  0.
          5    1    3    3  502    0  0.75062137709E+02  0.79989901069E+00  0.22768399939E+02  0.78554673901E+02  0.41800000000E+01 0. -1.
         -5    1    3    3    0  502 -0.49931004309E+02 -0.96489867287E+00 -0.45835332175E+01  0.50324123415E+02  0.41800000000E+01 0. -1.
        -11    1    1    2    0    0 -0.14646216057E+01 -0.28101182630E+02 -0.20851712015E+02  0.35023070620E+02  0.00000000000E+00 0.  1.
         11    1    1    2    0    0 -0.23666511795E+02  0.28266182292E+02  0.52378212828E+02  0.64051214048E+02  0.00000000000E+00 0. -1.
</event>
<event>
 7    1  0.3339728E-009  0.1021715E+03  0.7561462E-02  0.1275795E+00
         -2   -1    0    0    0  501 -0.00000000000E+00  0.00000000000E+00  0.10554885127E+02  0.10554885127E+02  0.00000000000E+00 0.  1.
          2   -1    0    0  501    0  0.00000000000E+00 -0.00000000000E+00 -0.16371131415E+04  0.16371131415E+04  0.00000000000E+00 0. -1.
         25    2    1    2    0    0 -0.84391839010E+01  0.58502620321E+01 -0.13580610971E+04  0.13638485080E+04  0.12508942422E+03 0.  0.
          5    1    3    3  502    0 -0.10004637371E+02 -0.57963602400E+02 -0.78974951573E+03  0.79194800458E+03  0.41800000000E+01 0.  1.
         -5    1    3    3    0  502  0.15654534699E+01  0.63813864433E+02 -0.56831158134E+03  0.57190050343E+03  0.41800000000E+01 0.  1.
        -11    1    1    2    0    0 -0.23072961321E+02 -0.32689089390E+02 -0.66371787120E+02  0.77499369254E+02  0.00000000000E+00 0.  1.
         11    1    1    2    0    0  0.31512145222E+02  0.26838827358E+02 -0.20212537217E+03  0.20632014935E+03  0.00000000000E+00 0. -1.
</event>
<event>
 7    1  0.4954574E-009  0.1063342E+03  0.7561462E-02  0.1267513E+00
         -1   -1    0    0    0  501 -0.00000000000E+00  0.00000000000E+00  0.33207163916E+03  0.33207163916E+03  0.00000000000E+00 0.  1.
          1   -1    0    0  501    0  0.00000000000E+00 -0.00000000000E+00 -0.62026537048E+02  0.62026537048E+02  0.00000000000E+00 0. -1.
         25    2    1    2    0    0  0.71100479409E+02 -0.29490726627E+02  0.73808596198E+02  0.16437859311E+03  0.12509049473E+03 0.  0.
          5    1    3    3  502    0  0.27961388549E+02 -0.63784133103E+02  0.82917741978E+02  0.10836548906E+03  0.41800000000E+01 0.  1.
         -5    1    3    3    0  502  0.43139090860E+02  0.34293406476E+02 -0.91091457805E+01  0.56013104045E+02  0.41800000000E+01 0.  1.
        -11    1    1    2    0    0 -0.53506398569E+02  0.40297630364E+02  0.19797369938E+03  0.20899861087E+03  0.00000000000E+00 0.  1.
         11    1    1    2    0    0 -0.17594080840E+02 -0.10806903737E+02 -0.17371934628E+01  0.20720972229E+02  0.00000000000E+00 0. -1.
</event>
<event>
 7    1  0.2810263E-009  0.1266003E+03  0.7561462E-02  0.1232589E+00
         -1   -1    0    0    0  501 -0.00000000000E+00  0.00000000000E+00  0.52212224045E+02  0.52212224045E+02  0.00000000000E+00 0.  1.
          1   -1    0    0  501    0  0.00000000000E+00 -0.00000000000E+00 -0.47082926768E+03  0.47082926768E+03  0.00000000000E+00 0. -1.
         25    2    1    2    0    0 -0.65461505201E+02  0.19089216370E+02 -0.37529874288E+03  0.40142499931E+03  0.12507308593E+03 0.  0.
          5    1    3    3  502    0  0.22353538236E+02  0.44753849931E+02 -0.11480173866E+03  0.12529764306E+03  0.41800000000E+01 0.  1.
         -5    1    3    3    0  502 -0.87815043438E+02 -0.25664633562E+02 -0.26049700421E+03  0.27612735626E+03  0.41800000000E+01 0.  1.
        -11    1    1    2    0    0  0.64096425487E+02  0.23898644802E+02 -0.14736892745E+02  0.69976231618E+02  0.00000000000E+00 0.  1.
         11    1    1    2    0    0  0.13650797139E+01 -0.42987861171E+02 -0.28581408010E+02  0.51640260791E+02  0.00000000000E+00 0. -1.
</event>
<event>
 7    1  0.2810263E-009  0.1321916E+03  0.7561462E-02  0.1224240E+00
         -1   -1    0    0    0  501 -0.00000000000E+00  0.00000000000E+00  0.40433600768E+02  0.40433600768E+02  0.00000000000E+00 0.  1.
          1   -1    0    0  501    0  0.00000000000E+00 -0.00000000000E+00 -0.50196143826E+03  0.50196143826E+03  0.00000000000E+00 0. -1.
         25    2    1    2    0    0 -0.46830760506E+02  0.72303818558E+02 -0.19208897520E+03  0.24487867652E+03  0.12508568867E+03 0.  0.
          5    1    3    3  502    0 -0.27925439888E+02 -0.27832504780E+02 -0.18975615705E+02  0.43954805274E+02  0.41800000000E+01 0.  1.
         -5    1    3    3    0  502 -0.18905320618E+02  0.10013632334E+03 -0.17311335949E+03  0.20092387124E+03  0.41800000000E+01 0.  1.
        -11    1    1    2    0    0 -0.17186986410E+02  0.88886714423E+01 -0.21738846546E+02  0.29102893860E+02  0.00000000000E+00 0. -1.
         11    1    1    2    0    0  0.64017746916E+02 -0.81192490001E+02 -0.24770001574E+03  0.26841346865E+03  0.00000000000E+00 0.  1.
</event>
<event>
 7    1  0.2810263E-009  0.1578294E+03  0.7561462E-02  0.1191169E+00
         -1   -1    0    0    0  501 -0.00000000000E+00  0.00000000000E+00  0.79351383643E+02  0.79351383643E+02  0.00000000000E+00 0.  1.
          1   -1    0    0  501    0  0.00000000000E+00 -0.00000000000E+00 -0.46340891905E+03  0.46340891905E+03  0.00000000000E+00 0. -1.
         25    2    1    2    0    0  0.92959061577E+02  0.94874768288E+02 -0.78469322662E+02  0.19861233799E+03  0.12508723922E+03 0.  0.
          5    1    3    3  502    0 -0.30948070561E+02  0.25957126564E+02 -0.17631213408E+02  0.44270617537E+02  0.41800000000E+01 0. -1.
         -5    1    3    3    0  502  0.12390713214E+03  0.68917641724E+02 -0.60838109253E+02  0.15434172046E+03  0.41800000000E+01 0. -1.
        -11    1    1    2    0    0 -0.36617789930E+02 -0.44487818134E+02 -0.45851998226E+02  0.73637179760E+02  0.00000000000E+00 0.  1.
         11    1    1    2    0    0 -0.56341271647E+02 -0.50386950154E+02 -0.25973621452E+03  0.27051078494E+03  0.00000000000E+00 0. -1.
</event>
<event>
 7    1  0.3347404E-009  0.1105207E+03  0.7561462E-02  0.1259609E+00
         -2   -1    0    0    0  501 -0.00000000000E+00  0.00000000000E+00  0.64283101514E+02  0.64283101514E+02  0.00000000000E+00 0.  1.
          2   -1    0    0  501    0  0.00000000000E+00 -0.00000000000E+00 -0.29214327490E+03  0.29214327490E+03  0.00000000000E+00 0. -1.
         25    2    1    2    0    0 -0.15056965370E+02 -0.80612571816E+02 -0.10414090418E+03  0.18226180038E+03  0.12509571140E+03 0.  0.
          5    1    3    3  502    0 -0.23181256669E+02  0.24204009485E+02  0.62987722062E+00  0.33779785097E+02  0.41800000000E+01 0. -1.
         -5    1    3    3    0  502  0.81242912989E+01 -0.10481658130E+03 -0.10477078140E+03  0.14848201528E+03  0.41800000000E+01 0. -1.
        -11    1    1    2    0    0  0.74999262653E+01  0.32742913680E+02  0.73822762011E+01  0.34392517968E+02  0.00000000000E+00 0.  1.
         11    1    1    2    0    0  0.75570391045E+01  0.47869658136E+02 -0.13110154540E+03  0.13977205807E+03  0.00000000000E+00 0. -1.
</event>
<event>
 7    1  0.2810263E-009  0.1759049E+03  0.7561462E-02  0.1171826E+00
         -3   -1    0    0    0  501 -0.00000000000E+00  0.00000000000E+00  0.15437379069E+03  0.15437379069E+03  0.00000000000E+00 0.  1.
          3   -1    0    0  501    0  0.00000000000E+00 -0.00000000000E+00 -0.20899053281E+03  0.20899053281E+03  0.00000000000E+00 0. -1.
         25    2    1    2    0    0  0.10556997427E+03 -0.98250093429E+02 -0.30690479162E+02  0.19335451521E+03  0.12508382275E+03 0.  0.
          5    1    3    3  502    0  0.80713764686E+02  0.25593714692E+01  0.10569036577E+02  0.81550224563E+02  0.41800000000E+01 0.  1.
         -5    1    3    3    0  502  0.24856209584E+02 -0.10080946490E+03 -0.41259515738E+02  0.11180429065E+03  0.41800000000E+01 0.  1.
        -11    1    1    2    0    0  0.33805475799E-01  0.51576646359E+02 -0.17149266049E+02  0.54353002846E+02  0.00000000000E+00 0. -1.
         11    1    1    2    0    0 -0.10560377975E+03  0.46673447070E+02 -0.67769969098E+01  0.11565680544E+03  0.00000000000E+00 0.  1.
</event>
<event>
 7    1  0.2810263E-009  0.9232675E+02  0.7561462E-02  0.1297313E+00
         -2   -1    0    0    0  501 -0.00000000000E+00  0.00000000000E+00  0.10906954332E+03  0.10906954332E+03  0.00000000000E+00 0.  1.
          2   -1    0    0  501    0  0.00000000000E+00 -0.00000000000E+00 -0.16581833908E+03  0.16581833908E+03  0.00000000000E+00 0. -1.
         25    2    1    2    0    0 -0.12559856444E+02  0.50055012218E+02  0.26607371944E+02  0.13790795618E+03  0.12508955950E+03 0.  0.
          5    1    3    3  502    0  0.13722529168E+02  0.49450089519E+02 -0.40632662008E+02  0.65590432093E+02  0.41800000000E+01 0. -1.
         -5    1    3    3    0  502 -0.26282385612E+02  0.60492269886E+00  0.67240033952E+02  0.72317524092E+02  0.41800000000E+01 0. -1.
        -11    1    1    2    0    0  0.51872130645E+02 -0.41211847113E+02 -0.38262090900E+02  0.76505698351E+02  0.00000000000E+00 0.  1.
         11    1    1    2    0    0 -0.39312274201E+02 -0.88431651054E+01 -0.45094076805E+02  0.60474227856E+02  0.00000000000E+00 0. -1.
</event>
<event>
 7    1  0.2810263E-009  0.1579575E+03  0.7561462E-02  0.1191022E+00
         -2   -1    0    0    0  501 -0.00000000000E+00  0.00000000000E+00  0.60942112801E+02  0.60942112801E+02  0.00000000000E+00 0.  1.
          2   -1    0    0  501    0  0.00000000000E+00 -0.00000000000E+00 -0.67669714258E+03  0.67669714258E+03  0.00000000000E+00 0. -1.
         25    2    1    2    0    0  0.20912362446E+02  0.13515222612E+03 -0.51074693596E+03  0.54333531288E+03  0.12508948198E+03 0.  0.
          5    1    3    3  502    0 -0.39364012449E+02  0.22104497300E+02 -0.23390161486E+03  0.23825526671E+03  0.41800000000E+01 0. -1.
         -5    1    3    3    0  502  0.60276374895E+02  0.11304772882E+03 -0.27684532110E+03  0.30508004618E+03  0.41800000000E+01 0. -1.
        -11    1    1    2    0    0 -0.91671842681E+00 -0.11115384857E+03 -0.33221941857E+02  0.11601601547E+03  0.00000000000E+00 0.  1.
         11    1    1    2    0    0 -0.19995644019E+02 -0.23998377549E+02 -0.71786151958E+02  0.78287927023E+02  0.00000000000E+00 0. -1.
</event>
<event>
 7    1  0.2810263E-009  0.1527569E+03  0.7561462E-02  0.1197126E+00
          1   -1    0    0  501    0  0.00000000000E+00  0.00000000000E+00  0.29006122943E+03  0.29006122943E+03  0.00000000000E+00 0. -1.
         -1   -1    0    0    0  501 -0.00000000000E+00 -0.00000000000E+00 -0.12400548871E+03  0.12400548871E+03  0.00000000000E+00 0.  1.
         25    2    1    2    0    0 -0.99546378664E+02  0.68679639993E+02 -0.18000213342E+02  0.17492376283E+03  0.12509172901E+03 0.  0.
          5    1    3    3  502    0 -0.12295915599E+03  0.54357578512E+02 -0.39079520472E+02  0.14006563356E+03  0.41800000000E+01 0. -1.
         -5    1    3    3    0  502  0.23412777328E+02  0.14322061481E+02  0.21079307130E+02  0.34858129272E+02  0.41800000000E+01 0. -1.
        -11    1    1    2    0    0  0.11262822305E+03 -0.61599182125E+02  0.18389155398E+03  0.22426698262E+03  0.00000000000E+00 0. -1.
         11    1    1    2    0    0 -0.13081844390E+02 -0.70804578674E+01  0.16440008932E+00  0.14875972696E+02  0.00000000000E+00 0.  1.
</event>
<event>
 7    1  0.2810263E-009  0.1588379E+03  0.7561462E-02  0.1190015E+00
          2   -1    0    0  501    0  0.00000000000E+00  0.00000000000E+00  0.43474029560E+03  0.43474029560E+03  0.00000000000E+00 0. -1.
         -2   -1    0    0    0  501 -0.00000000000E+00 -0.00000000000E+00 -0.11043024819E+03  0.11043024819E+03  0.00000000000E+00 0.  1.
         25    2    1    2    0    0  0.44237136360E+02 -0.13664532444E+03  0.32293243483E+03  0.37491534188E+03  0.12508911698E+03 0.  0.
          5    1    3    3  502    0  0.60091819767E+02 -0.79409556383E+02  0.89326555926E+02  0.13384173655E+03  0.41800000000E+01 0. -1.
         -5    1    3    3    0  502 -0.15854683407E+02 -0.57235768057E+02  0.23360587890E+03  0.24107360533E+03  0.41800000000E+01 0. -1.
        -11    1    1    2    0    0  0.11978108015E+02  0.71163673421E+02 -0.30375923705E+02  0.78297127836E+02  0.00000000000E+00 0.  1.
         11    1    1    2    0    0 -0.56215244375E+02  0.65481651019E+02  0.31753536296E+02  0.91958074076E+02  0.00000000000E+00 0. -1.
</event>
<event>
 7    1  0.2810263E-009  0.1786388E+03  0.7561462E-02  0.1169127E+00
         -2   -1    0    0    0  501 -0.00000000000E+00  0.00000000000E+00  0.17132838658E+03  0.17132838658E+03  0.00000000000E+00 0.  1.
          2   -1    0    0  501    0  0.00000000000E+00 -0.00000000000E+00 -0.28692944647E+03  0.28692944647E+03  0.00000000000E+00 0. -1.
         25    2    1    2    0    0 -0.75253766281E+02 -0.12787346638E+03 -0.18686313578E+03  0.26941118156E+03  0.12509916264E+03 0.  0.
          5    1    3    3  502    0 -0.43084367919E+02 -0.14521078712E+03 -0.17331578278E+03  0.23021352787E+03  0.41800000000E+01 0. -1.
         -5    1    3    3    0  502 -0.32169398362E+02  0.17337320739E+02 -0.13547353002E+02  0.39197653689E+02  0.41800000000E+01 0. -1.
        -11    1    1    2    0    0  0.33230538274E+02 -0.11756127629E+01  0.35192357465E+02  0.48416451370E+02  0.00000000000E+00 0.  1.
         11    1    1    2    0    0  0.42023228008E+02  0.12904907914E+03  0.36069718423E+02  0.14043020013E+03  0.00000000000E+00 0. -1.
</event>
<event>
 7    1  0.2810263E-009  0.7776617E+02  0.7561462E-02  0.1335513E+00
          1   -1    0    0  501    0  0.00000000000E+00  0.00000000000E+00  0.50555121214E+03  0.50555121214E+03  0.00000000000E+00 0. -1.
         -1   -1    0    0    0  501 -0.00000000000E+00 -0.00000000000E+00 -0.26367251082E+02  0.26367251082E+02  0.00000000000E+00 0.  1.
         25    2    1    2    0    0 -0.13817847577E+02  0.24275566017E+02  0.23968738784E+03  0.27180741772E+03  0.12509593288E+03 0.  0.
          5    1    3    3  502    0  0.15738071675E+02 -0.57240158451E+00  0.23155355282E+03  0.23212611824E+03  0.41800000000E+01 0. -1.
         -5    1    3    3    0  502 -0.29555919251E+02  0.24847967601E+02  0.81338350177E+01  0.39681299485E+02  0.41800000000E+01 0. -1.
        -11    1    1    2    0    0  0.46398741340E+02  0.15559151959E+02  0.97842359024E+02  0.10939861803E+03  0.00000000000E+00 0.  1.
         11    1    1    2    0    0 -0.32580893763E+02 -0.39834717976E+02  0.14165421419E+03  0.15071242747E+03  0.00000000000E+00 0. -1.
</event>
<event>
 7    1  0.2810263E-009  0.2012483E+03  0.7561462E-02  0.1148690E+00
         -1   -1    0    0    0  501 -0.00000000000E+00  0.00000000000E+00  0.98779749171E+02  0.98779749171E+02  0.00000000000E+00 0.  1.
          1   -1    0    0  501    0  0.00000000000E+00 -0.00000000000E+00 -0.51635446118E+03  0.51635446118E+03  0.00000000000E+00 0. -1.
         25    2    1    2    0    0 -0.13917848053E+03 -0.12058016281E+03 -0.31399097166E+03  0.38489986170E+03  0.12508936067E+03 0.  0.
          5    1    3    3  502    0 -0.11353408808E+03 -0.32712170841E+02 -0.23843610929E+03  0.26613779493E+03  0.41800000000E+01 0.  1.
         -5    1    3    3    0  502 -0.25644392446E+02 -0.87867991967E+02 -0.75554862363E+02  0.11876206677E+03  0.41800000000E+01 0.  1.
        -11    1    1    2    0    0  0.15341009344E+02  0.45042767558E+02  0.66481264231E+01  0.48045760083E+02  0.00000000000E+00 0.  1.
         11    1    1    2    0    0  0.12383747118E+03  0.75537395250E+02 -0.11023186677E+03  0.18218858856E+03  0.00000000000E+00 0. -1.
</event>
<event>
 7    1  0.2810263E-009  0.1669108E+03  0.7561462E-02  0.1181108E+00
         -1   -1    0    0    0  501 -0.00000000000E+00  0.00000000000E+00  0.96198879853E+02  0.96198879853E+02  0.00000000000E+00 0.  1.
          1   -1    0    0  501    0  0.00000000000E+00 -0.00000000000E+00 -0.44290609949E+03  0.44290609949E+03  0.00000000000E+00 0. -1.
         25    2    1    2    0    0 -0.35676230076E+02  0.12598445679E+03 -0.28678196682E+02  0.18334284344E+03  0.12508909836E+03 0.  0.
          5    1    3    3  502    0  0.25387801144E+02  0.10887111422E+03  0.38734771430E+01  0.11193719750E+03  0.41800000000E+01 0.  1.
         -5    1    3    3    0  502 -0.61064031220E+02  0.17113342564E+02 -0.32551673825E+02  0.71405645934E+02  0.41800000000E+01 0.  1.
        -11    1    1    2    0    0  0.59295411221E+02 -0.12027574420E+03 -0.28258824008E+03  0.31279116654E+03  0.00000000000E+00 0. -1.
         11    1    1    2    0    0 -0.23619181145E+02 -0.57087125893E+01 -0.35440782872E+02  0.42970969363E+02  0.00000000000E+00 0.  1.
</event>
<event>
 7    1  0.2810263E-009  0.6856276E+02  0.7561462E-02  0.1365050E+00
          2   -1    0    0  501    0  0.00000000000E+00  0.00000000000E+00  0.15269091091E+04  0.15269091091E+04  0.00000000000E+00 0. -1.
         -2   -1    0    0    0  501 -0.00000000000E+00 -0.00000000000E+00 -0.10497289235E+02  0.10497289235E+02  0.00000000000E+00 0.  1.
         25    2    1    2    0    0  0.36238658924E+02  0.21553487303E+02  0.11369883213E+04  0.11446254428E+04  0.12508864208E+03 0.  0.
          5    1    3    3  502    0  0.24949857495E+02  0.74214863226E+01  0.42722557624E+02  0.50202222841E+02  0.41800000000E+01 0. -1.
         -5    1    3    3    0  502  0.11288801429E+02  0.14132000980E+02  0.10942657636E+04  0.10944232200E+04  0.41800000000E+01 0. -1.
        -11    1    1    2    0    0 -0.39149375387E+01  0.30594743074E+02  0.59415292668E+02  0.66944320465E+02  0.00000000000E+00 0.  1.
         11    1    1    2    0    0 -0.32323721386E+02 -0.52148230377E+02  0.32000820590E+03  0.32583663505E+03  0.00000000000E+00 0. -1.
</event>
<event>
 7    1  0.2810263E-009  0.9664811E+02  0.7561462E-02  0.1287507E+00
          3   -1    0    0  501    0  0.00000000000E+00  0.00000000000E+00  0.15673132435E+03  0.15673132435E+03  0.00000000000E+00 0. -1.
         -3   -1    0    0    0  501 -0.00000000000E+00 -0.00000000000E+00 -0.11030550879E+03  0.11030550879E+03  0.00000000000E+00 0.  1.
         25    2    1    2    0    0 -0.68185874242E+02 -0.16607920635E+02 -0.13268125879E+02  0.14404164381E+03  0.12508723161E+03 0.  0.
          5    1    3    3  502    0 -0.59824755196E+00 -0.31206167874E+02  0.44037523580E+02  0.54138329273E+02  0.41800000000E+01 0. -1.
         -5    1    3    3    0  502 -0.67587626690E+02  0.14598247239E+02 -0.57305649458E+02  0.89903314532E+02  0.41800000000E+01 0. -1.
        -11    1    1    2    0    0  0.56607489059E+02  0.38020550542E+02  0.11708637310E+02  0.69188599268E+02  0.00000000000E+00 0.  1.
         11    1    1    2    0    0  0.11578385183E+02 -0.21412629908E+02  0.47985304127E+02  0.53806590072E+02  0.00000000000E+00 0. -1.
</event>
<event>
 7    1  0.2810263E-009  0.1352523E+03  0.7561462E-02  0.1219864E+00
          2   -1    0    0  501    0  0.00000000000E+00  0.00000000000E+00  0.26854576318E+03  0.26854576318E+03  0.00000000000E+00 0. -1.
         -2   -1    0    0    0  501 -0.00000000000E+00 -0.00000000000E+00 -0.93400311066E+02  0.93400311066E+02  0.00000000000E+00 0.  1.
         25    2    1    2    0    0  0.22866262463E+02 -0.11250063863E+03  0.10728263380E+03  0.20083941790E+03  0.12509056166E+03 0.  0.
          5    1    3    3  502    0  0.23476226077E+02 -0.13014350332E+03  0.12004975765E+03  0.17865576217E+03  0.41800000000E+01 0.  1.
         -5    1    3    3    0  502 -0.60996361346E+00  0.17642864690E+02 -0.12767123848E+02  0.22183655728E+02  0.41800000000E+01 0.  1.
        -11    1    1    2    0    0 -0.22821845333E+02  0.30705049734E+02 -0.18207360258E+02  0.42369147632E+02  0.00000000000E+00 0.  1.
         11    1    1    2    0    0 -0.44417130640E-01  0.81795588894E+02  0.86070178574E+02  0.11873750871E+03  0.00000000000E+00 0. -1.
</event>
<event>
 7    1  0.2810263E-009  0.1414840E+03  0.7561462E-02  0.1211346E+00
         -2   -1    0    0    0  501 -0.00000000000E+00  0.00000000000E+00  0.87777614460E+02  0.87777614460E+02  0.00000000000E+00 0.  1.
          2   -1    0    0  501    0  0.00000000000E+00 -0.00000000000E+00 -0.31917860064E+03  0.31917860064E+03  0.00000000000E+00 0. -1.
         25    2    1    2    0    0 -0.21156432910E+02 -0.10916804607E+03 -0.19949412175E+03  0.26040233893E+03  0.12508483749E+03 0.  0.
          5    1    3    3  502    0  0.20966346276E+02 -0.10462664440E+03 -0.79650279844E+02  0.13322147677E+03  0.41800000000E+01 0. -1.
         -5    1    3    3    0  502 -0.42122779186E+02 -0.45414016731E+01 -0.11984384191E+03  0.12718086215E+03  0.41800000000E+01 0. -1.
        -11    1    1    2    0    0 -0.20264350551E+02  0.81047548143E+02  0.59998605569E+01  0.83757670037E+02  0.00000000000E+00 0.  1.
         11    1    1    2    0    0  0.41420783461E+02  0.28120497927E+02 -0.37906724990E+02  0.62796206140E+02  0.00000000000E+00 0. -1.
</event>
<event>
 7    1  0.2810263E-009  0.1244850E+03  0.7561462E-02  0.1235876E+00
          1   -1    0    0  501    0  0.00000000000E+00  0.00000000000E+00  0.35035148795E+03  0.35035148795E+03  0.00000000000E+00 0. -1.
         -1   -1    0    0    0  501 -0.00000000000E+00 -0.00000000000E+00 -0.72688776408E+02  0.72688776408E+02  0.00000000000E+00 0.  1.
         25    2    1    2    0    0 -0.28558967401E+02 -0.10354740878E+03  0.90480856604E+02  0.18807311969E+03  0.12508809878E+03 0.  0.
          5    1    3    3  502    0 -0.60330960119E+02 -0.60313441722E+02  0.31210346456E+01  0.85467825867E+02  0.41800000000E+01 0.  1.
         -5    1    3    3    0  502  0.31771992718E+02 -0.43233967058E+02  0.87359821958E+02  0.10260529383E+03  0.41800000000E+01 0.  1.
        -11    1    1    2    0    0  0.12380297686E+02  0.13757806133E+02 -0.74979048552E+01  0.19969165672E+02  0.00000000000E+00 0.  1.
         11    1    1    2    0    0  0.16178669715E+02  0.89789602646E+02  0.19467975980E+03  0.21499797899E+03  0.00000000000E+00 0. -1.
</event>
<event>
 7    1  0.2810263E-009  0.1291095E+03  0.7561462E-02  0.1228783E+00
          1   -1    0    0  501    0  0.00000000000E+00  0.00000000000E+00  0.16653994270E+03  0.16653994270E+03  0.00000000000E+00 0. -1.
         -1   -1    0    0    0  501 -0.00000000000E+00 -0.00000000000E+00 -0.11613850985E+03  0.11613850985E+03  0.00000000000E+00 0.  1.
         25    2    1    2    0    0 -0.78407297439E+02  0.27727972343E+02  0.39217785569E+00  0.15022046327E+03  0.12509791781E+03 0.  0.
          5    1    3    3  502    0 -0.10862947147E+03 -0.21551561108E+00  0.31537682353E+01  0.10875581443E+03  0.41800000000E+01 0. -1.
         -5    1    3    3    0  502  0.30222174031E+02  0.27943487954E+02 -0.27615903796E+01  0.41464648842E+02  0.41800000000E+01 0. -1.
        -11    1    1    2    0    0 -0.43213705275E+01  0.14587155712E+02  0.35220567931E+02  0.38365971385E+02  0.00000000000E+00 0. -1.
         11    1    1    2    0    0  0.82728667966E+02 -0.42315128054E+02  0.14788687068E+02  0.94092017892E+02  0.00000000000E+00 0.  1.
</event>
<event>
 7    1  0.3315436E-009  0.1637569E+03  0.7561462E-02  0.1184519E+00
          1   -1    0    0  501    0  0.00000000000E+00  0.00000000000E+00  0.50416182220E+03  0.50416182220E+03  0.00000000000E+00 0. -1.
         -1   -1    0    0    0  501 -0.00000000000E+00 -0.00000000000E+00 -0.83640747912E+02  0.83640747912E+02  0.00000000000E+00 0.  1.
         25    2    1    2    0    0  0.14335705541E+03 -0.39918506440E+02  0.90682716952E+02  0.21451220754E+03  0.12508956606E+03 0.  0.
          5    1    3    3  502    0  0.43850018800E+02 -0.42503580980E+02 -0.21127073941E+02  0.64754955009E+02  0.41800000000E+01 0.  1.
         -5    1    3    3    0  502  0.99507036613E+02  0.25850745400E+01  0.11180979089E+03  0.14975725253E+03  0.41800000000E+01 0.  1.
        -11    1    1    2    0    0 -0.45582707829E+02  0.50850641599E+02  0.19322649518E+03  0.20493913595E+03  0.00000000000E+00 0. -1.
         11    1    1    2    0    0 -0.97774347583E+02 -0.10932135158E+02  0.13661186216E+03  0.16835122663E+03  0.00000000000E+00 0.  1.
</event>
<event>
 7    1  0.2810263E-009  0.1149181E+03  0.7561462E-02  0.1251724E+00
         -1   -1    0    0    0  501 -0.00000000000E+00  0.00000000000E+00  0.45581093929E+02  0.45581093929E+02  0.00000000000E+00 0.  1.
          1   -1    0    0  501    0  0.00000000000E+00 -0.00000000000E+00 -0.41088125581E+03  0.41088125581E+03  0.00000000000E+00 0. -1.
         25    2    1    2    0    0  0.33020737091E+02  0.76061624897E+02 -0.23132586053E+03  0.27574318845E+03  0.12508761875E+03 0.  0.
          5    1    3    3  502    0 -0.30573611664E+02 -0.15929264045E+02 -0.32377264776E+02  0.47478909608E+02  0.41800000000E+01 0.  1.
         -5    1    3    3    0  502  0.63594348755E+02  0.91990888942E+02 -0.19894859576E+03  0.22826427884E+03  0.41800000000E+01 0.  1.
        -11    1    1    2    0    0 -0.23601828355E+02 -0.46088338007E+02 -0.98862964600E+01  0.52715463193E+02  0.00000000000E+00 0.  1.
         11    1    1    2    0    0 -0.94189087361E+01 -0.29973286890E+02 -0.12408800489E+03  0.12800369810E+03  0.00000000000E+00 0. -1.
</event>
<event>
 7    1  0.2810263E-009  0.1158117E+03  0.7561462E-02  0.1250171E+00
         -1   -1    0    0    0  501 -0.00000000000E+00  0.00000000000E+00  0.97532804909E+02  0.97532804909E+02  0.00000000000E+00 0.  1.
          1   -1    0    0  501    0  0.00000000000E+00 -0.00000000000E+00 -0.16481784824E+03  0.16481784824E+03  0.00000000000E+00 0. -1.
         25    2    1    2    0    0 -0.54244904102E+02  0.23882424123E+02 -0.11973462638E+02  0.13894530435E+03  0.12509817740E+03 0.  0.
          5    1    3    3  502    0 -0.88423818116E+02  0.44693204199E+01 -0.32498369431E+02  0.94405311560E+02  0.41800000000E+01 0.  1.
         -5    1    3    3    0  502  0.34178914014E+02  0.19413103703E+02  0.20524906793E+02  0.44539992786E+02  0.41800000000E+01 0.  1.
        -11    1    1    2    0    0  0.74451827219E+02 -0.31649892378E+01 -0.18871717350E+02  0.76871538614E+02  0.00000000000E+00 0.  1.
         11    1    1    2    0    0 -0.20206923117E+02 -0.20717434885E+02 -0.36439863344E+02  0.46533810188E+02  0.00000000000E+00 0. -1.
</event>
<event>
 7    1  0.2810263E-009  0.9393483E+02  0.7561462E-02  0.1293593E+00
         -1   -1    0    0    0  501 -0.00000000000E+00  0.00000000000E+00  0.11018566371E+03  0.11018566371E+03  0.00000000000E+00 0.  1.
          1   -1    0    0  501    0  0.00000000000E+00 -0.00000000000E+00 -0.14622119330E+03  0.14622119330E+03  0.00000000000E+00 0. -1.
         25    2    1    2    0    0 -0.29034971784E+02  0.39166261992E+02 -0.64922078126E+02  0.14913080397E+03  0.12509234509E+03 0.  0.
          5    1    3    3  502    0  0.40115627199E+02  0.13700229522E+02 -0.62052530357E+02  0.75265853866E+02  0.41800000000E+01 0.  1.
         -5    1    3    3    0  502 -0.69150598984E+02  0.25466032470E+02 -0.28695477694E+01  0.73864950105E+02  0.41800000000E+01 0.  1.
        -11    1    1    2    0    0  0.22597474405E+02  0.79160985808E+01  0.49876728777E+02  0.55326291578E+02  0.00000000000E+00 0.  1.
         11    1    1    2    0    0  0.64374973792E+01 -0.47082360572E+02 -0.20990180244E+02  0.51949761465E+02  0.00000000000E+00 0. -1.
</event>
<event>
 7    1  0.2810263E-009  0.1044365E+03  0.7561462E-02  0.1271234E+00
          1   -1    0    0  501    0  0.00000000000E+00  0.00000000000E+00  0.40291808574E+02  0.40291808574E+02  0.00000000000E+00 0. -1.
         -1   -1    0    0    0  501 -0.00000000000E+00 -0.00000000000E+00 -0.32823169387E+03  0.32823169387E+03  0.00000000000E+00 0.  1.
         25    2    1    2    0    0 -0.32786371836E+02 -0.24339479130E+02 -0.17875397110E+03  0.22196688345E+03  0.12509579826E+03 0.  0.
          5    1    3    3  502    0  0.38196483093E+02 -0.13628783852E+01 -0.12261736037E+03  0.12850415644E+03  0.41800000000E+01 0. -1.
         -5    1    3    3    0  502 -0.70982854930E+02 -0.22976600745E+02 -0.56136610723E+02  0.93462727005E+02  0.41800000000E+01 0. -1.
        -11    1    1    2    0    0  0.10042441231E+02  0.55900896078E+02 -0.79095764247E+02  0.97375051887E+02  0.00000000000E+00 0.  1.
         11    1    1    2    0    0  0.22743930606E+02 -0.31561416948E+02 -0.30090149954E+02  0.49181567110E+02  0.00000000000E+00 0. -1.
</event>
<event>
 7    1  0.2810263E-009  0.1001131E+03  0.7561462E-02  0.1280058E+00
         -2   -1    0    0    0  501 -0.00000000000E+00  0.00000000000E+00  0.19234862709E+02  0.19234862709E+02  0.00000000000E+00 0.  1.
          2   -1    0    0  501    0  0.00000000000E+00 -0.00000000000E+00 -0.68187915419E+03  0.68187915419E+03  0.00000000000E+00 0. -1.
         25    2    1    2    0    0 -0.21835373581E+02  0.32695139912E+02 -0.37108050071E+03  0.39356992601E+03  0.12510312920E+03 0.  0.
          5    1    3    3  502    0  0.32624432300E+02 -0.18854667716E+02 -0.23589789425E+03  0.23892496937E+03  0.41800000000E+01 0.  1.
         -5    1    3    3    0  502 -0.54459805881E+02  0.51549807629E+02 -0.13518260646E+03  0.15464495664E+03  0.41800000000E+01 0.  1.
        -11    1    1    2    0    0  0.50361681442E+02 -0.11465319279E+02 -0.23592619377E+03  0.24151381205E+03  0.00000000000E+00 0. -1.
         11    1    1    2    0    0 -0.28526307861E+02 -0.21229820633E+02 -0.55637597000E+02  0.66030278844E+02  0.00000000000E+00 0.  1.
</event>
<event>
 7    1  0.2810263E-009  0.1565226E+03  0.7561462E-02  0.1192680E+00
          1   -1    0    0  501    0  0.00000000000E+00  0.00000000000E+00  0.84212491976E+02  0.84212491976E+02  0.00000000000E+00 0. -1.
         -1   -1    0    0    0  501 -0.00000000000E+00 -0.00000000000E+00 -0.43030685048E+03  0.43030685048E+03  0.00000000000E+00 0.  1.
         25    2    1    2    0    0  0.14660925405E+03 -0.37965687993E+02 -0.23301893722E+03  0.30476554089E+03  0.12509413645E+03 0.  0.
          5    1    3    3  502    0  0.42392575668E+01 -0.14987346623E+02  0.12222013504E+02  0.20234670188E+02  0.41800000000E+01 0. -1.
         -5    1    3    3    0  502  0.14236999648E+03 -0.22978341371E+02 -0.24524095072E+03  0.28453087070E+03  0.41800000000E+01 0. -1.
        -11    1    1    2    0    0 -0.91987411149E+01  0.75709124898E+01 -0.57048733124E+02  0.58279443246E+02  0.00000000000E+00 0.  1.
         11    1    1    2    0    0 -0.13741051293E+03  0.30394775503E+02 -0.56026688164E+02  0.15147435832E+03  0.00000000000E+00 0. -1.
</event>
<event>
 7    1  0.2810263E-009  0.8687702E+02  0.7561462E-02  0.1310596E+00
          2   -1    0    0  501    0  0.00000000000E+00  0.00000000000E+00  0.15743811810E+04  0.15743811810E+04  0.00000000000E+00 0. -1.
         -2   -1    0    0    0  501 -0.00000000000E+00 -0.00000000000E+00 -0.12229882377E+02  0.12229882377E+02  0.00000000000E+00 0.  1.
         25    2    1    2    0    0 -0.56164495932E+02 -0.11300436651E+02  0.11560667761E+04  0.11642248782E+04  0.12508807182E+03 0.  0.
          5    1    3    3  502    0  0.82303101864E+00  0.14967275648E+02  0.15631932788E+02  0.22057344425E+02  0.41800000000E+01 0.  1.
         -5    1    3    3    0  502 -0.56987526951E+02 -0.26267712299E+02  0.11404348434E+04  0.11421675338E+04  0.41800000000E+01 0.  1.
        -11    1    1    2    0    0 -0.19125236277E+02 -0.28421192069E+00  0.16010558238E+02  0.24943805126E+02  0.00000000000E+00 0.  1.
         11    1    1    2    0    0  0.75289732209E+02  0.11584648572E+02  0.39007396420E+03  0.39744237998E+03  0.00000000000E+00 0. -1.
</event>
<event>
 7    1  0.2810263E-009  0.1694705E+03  0.7561462E-02  0.1178401E+00
         -2   -1    0    0    0  501 -0.00000000000E+00  0.00000000000E+00  0.44359373432E+02  0.44359373432E+02  0.00000000000E+00 0.  1.
          2   -1    0    0  501    0  0.00000000000E+00 -0.00000000000E+00 -0.78191355957E+03  0.78191355957E+03  0.00000000000E+00 0. -1.
         25    2    1    2    0    0 -0.10631486433E+03 -0.99594970302E+02 -0.48098561248E+03  0.51789957256E+03  0.12510315485E+03 0.  0.
          5    1    3    3  502    0 -0.13120832911E+03 -0.94093778982E+02 -0.36609741171E+03  0.40014253977E+03  0.41800000000E+01 0. -1.
         -5    1    3    3    0  502  0.24893464780E+02 -0.55011913203E+01 -0.11488820077E+03  0.11775703279E+03  0.41800000000E+01 0. -1.
        -11    1    1    2    0    0  0.76893108039E+02  0.43741944992E+02 -0.21579076094E+03  0.23321998268E+03  0.00000000000E+00 0. -1.
         11    1    1    2    0    0  0.29421756294E+02  0.55853025310E+02 -0.40777812725E+02  0.75153377770E+02  0.00000000000E+00 0.  1.
</event>
<event>
 7    1  0.2810263E-009  0.1158983E+03  0.7561462E-02  0.1250021E+00
          1   -1    0    0  501    0  0.00000000000E+00  0.00000000000E+00  0.12433090492E+04  0.12433090492E+04  0.00000000000E+00 0. -1.
         -1   -1    0    0    0  501 -0.00000000000E+00 -0.00000000000E+00 -0.12120694253E+02  0.12120694253E+02  0.00000000000E+00 0.  1.
         25    2    1    2    0    0 -0.38716068478E+02  0.38480268724E+02  0.63366766381E+03  0.64819930154E+03  0.12509181153E+03 0.  0.
          5    1    3    3  502    0 -0.71398659393E+02  0.51653123687E+02  0.30152536041E+03  0.31416688100E+03  0.41800000000E+01 0.  1.
         -5    1    3    3    0  502  0.32682590915E+02 -0.13172854963E+02  0.33214230340E+03  0.33403242053E+03  0.41800000000E+01 0.  1.
        -11    1    1    2    0    0  0.55539486302E+02  0.10302449494E+02  0.32295410696E+03  0.32785687458E+03  0.00000000000E+00 0.  1.
         11    1    1    2    0    0 -0.16823417824E+02 -0.48782718218E+02  0.27456658420E+03  0.27937356736E+03  0.00000000000E+00 0. -1.
</event>
<event>
 7    1  0.2810263E-009  0.2352168E+03  0.7561462E-02  0.1123021E+00
          1   -1    0    0  501    0  0.00000000000E+00  0.00000000000E+00  0.24999179659E+03  0.24999179659E+03  0.00000000000E+00 0. -1.
         -1   -1    0    0    0  501 -0.00000000000E+00 -0.00000000000E+00 -0.24945900443E+03  0.24945900443E+03  0.00000000000E+00 0.  1.
         25    2    1    2    0    0 -0.16476568037E+03 -0.13524336685E+03  0.56487191923E+02  0.25352887383E+03  0.12509032462E+03 0.  0.
          5    1    3    3  502    0 -0.14032792440E+03 -0.36316114355E+02  0.37621318754E+02  0.14981195731E+03  0.41800000000E+01 0.  1.
         -5    1    3    3    0  502 -0.24437755970E+02 -0.98927252499E+02  0.18865873169E+02  0.10371691653E+03  0.41800000000E+01 0.  1.
        -11    1    1    2    0    0  0.34082556793E+02  0.68917701475E+02 -0.62709088813E+02  0.99215422561E+02  0.00000000000E+00 0.  1.
         11    1    1    2    0    0  0.13068312357E+03  0.66325665379E+02  0.67546890513E+01  0.14670650462E+03  0.00000000000E+00 0. -1.
</event>
<event>
 7    1  0.2810263E-009  0.2275751E+03  0.7561462E-02  0.1128358E+00
          2   -1    0    0  501    0  0.00000000000E+00  0.00000000000E+00  0.19954864973E+04  0.19954864973E+04  0.00000000000E+00 0.  1.
         -2   -1    0    0    0  501 -0.00000000000E+00 -0.00000000000E+00 -0.30060178168E+02  0.30060178168E+02  0.00000000000E+00 0. -1.
         25    2    1    2    0    0  0.21084383771E+03  0.61607899763E+02  0.96128281873E+03  0.99396319149E+03  0.12509001253E+03 0.  0.
          5    1    3    3  502    0  0.15036658303E+03  0.34618576584E+02  0.39963466510E+03  0.42840855861E+03  0.41800000000E+01 0.  1.
         -5    1    3    3    0  502  0.60477254676E+02  0.26989323178E+02  0.56164815363E+03  0.56555463288E+03  0.41800000000E+01 0.  1.
        -11    1    1    2    0    0 -0.10972838078E+03  0.10519001110E+02  0.40726129384E+03  0.42191554652E+03  0.00000000000E+00 0. -1.
         11    1    1    2    0    0 -0.10111545693E+03 -0.72126900873E+02  0.59688220654E+03  0.60966793744E+03  0.00000000000E+00 0.  1.
</event>
<event>
 7    1  0.2810263E-009  0.1312060E+03  0.7561462E-02  0.1225677E+00
         -2   -1    0    0    0  501 -0.00000000000E+00  0.00000000000E+00  0.17694075887E+02  0.17694075887E+02  0.00000000000E+00 0. -1.
          2   -1    0    0  501    0  0.00000000000E+00 -0.00000000000E+00 -0.98888644781E+03  0.98888644781E+03  0.00000000000E+00 0.  1.
         25    2    1    2    0    0  0.18288828524E+02  0.72538362536E+02 -0.49914857543E+03  0.51999239716E+03  0.12508596031E+03 0.  0.
          5    1    3    3  502    0  0.42656209227E+02  0.99955246870E+02 -0.37974680096E+03  0.39501355521E+03  0.41800000000E+01 0.  1.
         -5    1    3    3    0  502 -0.24367380703E+02 -0.27416884334E+02 -0.11940177447E+03  0.12497884195E+03  0.41800000000E+01 0.  1.
        -11    1    1    2    0    0 -0.46919996342E+02 -0.10024703714E+02 -0.15895652763E+03  0.16603962906E+03  0.00000000000E+00 0. -1.
         11    1    1    2    0    0  0.28631167818E+02 -0.62513658822E+02 -0.31308726886E+03  0.32054849748E+03  0.00000000000E+00 0.  1.
</event>
<event>
 7    1  0.2810263E-009  0.2144714E+03  0.7561462E-02  0.1138073E+00
         -1   -1    0    0    0  501 -0.00000000000E+00  0.00000000000E+00  0.33968814925E+02  0.33968814925E+02  0.00000000000E+00 0.  1.
          1   -1    0    0  501    0  0.00000000000E+00 -0.00000000000E+00 -0.16210206633E+04  0.16210206633E+04  0.00000000000E+00 0. -1.
         25    2    1    2    0    0  0.16046443273E+03  0.12813365810E+03 -0.92555959050E+03  0.95628159539E+03  0.12508743180E+03 0.  0.
          5    1    3    3  502    0  0.75399760618E+02  0.19838145955E+02 -0.15557373535E+03  0.17406704302E+03  0.41800000000E+01 0. -1.
         -5    1    3    3    0  502  0.85064672107E+02  0.10829551215E+03 -0.76998585516E+03  0.78221455236E+03  0.41800000000E+01 0. -1.
        -11    1    1    2    0    0 -0.19883838452E+01 -0.22611685222E+02 -0.22526442549E+02  0.31979408888E+02  0.00000000000E+00 0.  1.
         11    1    1    2    0    0 -0.15847604888E+03 -0.10552197288E+03 -0.63896581536E+03  0.66672847399E+03  0.00000000000E+00 0. -1.
</event>
<event>
 7    1  0.2810263E-009  0.1030659E+03  0.7561462E-02  0.1273978E+00
         -1   -1    0    0    0  501 -0.00000000000E+00  0.00000000000E+00  0.65767118513E+03  0.65767118513E+03  0.00000000000E+00 0.  1.
          1   -1    0    0  501    0  0.00000000000E+00 -0.00000000000E+00 -0.18399452470E+02  0.18399452470E+02  0.00000000000E+00 0. -1.
         25    2    1    2    0    0 -0.39200210884E+01  0.16607219730E+02  0.33751257037E+03  0.36035122293E+03  0.12508837832E+03 0.  0.
          5    1    3    3  502    0  0.50071602677E+02  0.40914513420E+02  0.14327430614E+03  0.15724554685E+03  0.41800000000E+01 0. -1.
         -5    1    3    3    0  502 -0.53991623765E+02 -0.24307293689E+02  0.19423826424E+03  0.20310567608E+03  0.41800000000E+01 0. -1.
        -11    1    1    2    0    0  0.42030524712E+02 -0.11087470646E+02  0.23200336938E+03  0.23604037879E+03  0.00000000000E+00 0.  1.
         11    1    1    2    0    0 -0.38110503624E+02 -0.55197490841E+01  0.69755792906E+02  0.79679035890E+02  0.00000000000E+00 0. -1.
</event>
<event>
 7    1  0.2810263E-009  0.8570320E+02  0.7561462E-02  0.1313604E+00
          1   -1    0    0  501    0  0.00000000000E+00  0.00000000000E+00  0.93774120240E+03  0.93774120240E+03  0.00000000000E+00 0. -1.
         -1   -1    0    0    0  501 -0.00000000000E+00 -0.00000000000E+00 -0.16558540508E+02  0.16558540508E+02  0.00000000000E+00 0.  1.
         25    2    1    2    0    0  0.49264889140E+02 -0.36559044067E+02  0.49951275510E+03  0.51857802050E+03  0.12508628154E+03 0.  0.
          5    1    3    3  502    0  0.12516842734E+02 -0.20116199774E+02  0.46431840665E+03  0.46494127371E+03  0.41800000000E+01 0.  1.
         -5    1    3    3    0  502  0.36748046406E+02 -0.16442844294E+02  0.35194348455E+02  0.53636746790E+02  0.41800000000E+01 0.  1.
        -11    1    1    2    0    0 -0.75674817002E+00 -0.26948216221E+02  0.15530060717E+03  0.15762315062E+03  0.00000000000E+00 0.  1.
         11    1    1    2    0    0 -0.48508140970E+02  0.63507260289E+02  0.26636929962E+03  0.27809857179E+03  0.00000000000E+00 0. -1.
</event>
<event>
 7    1  0.2810263E-009  0.9892451E+02  0.7561462E-02  0.1282574E+00
          1   -1    0    0  501    0  0.00000000000E+00  0.00000000000E+00  0.43014879896E+02  0.43014879896E+02  0.00000000000E+00 0. -1.
         -1   -1    0    0    0  501 -0.00000000000E+00 -0.00000000000E+00 -0.40122504479E+03  0.40122504479E+03  0.00000000000E+00 0.  1.
         25    2    1    2    0    0 -0.33572532978E+02 -0.54393358347E+02 -0.13755735304E+03  0.19660985058E+03  0.12509058945E+03 0.  0.
          5    1    3    3  502    0 -0.21067128333E+02  0.71358516072E+01 -0.13145439541E+03  0.13338843558E+03  0.41800000000E+01 0.  1.
         -5    1    3    3    0  502 -0.12505404645E+02 -0.61529209954E+02 -0.61029576282E+01  0.63221415001E+02  0.41800000000E+01 0.  1.
        -11    1    1    2    0    0 -0.29425382817E+02  0.56954862678E+00 -0.62659069002E+02  0.69226703430E+02  0.00000000000E+00 0.  1.
         11    1    1    2    0    0  0.62997915795E+02  0.53823809720E+02 -0.15799374286E+03  0.17840337068E+03  0.00000000000E+00 0. -1.
</event>
<event>
 7    1  0.2810263E-009  0.1027268E+03  0.7561462E-02  0.1274664E+00
         -1   -1    0    0    0  501 -0.00000000000E+00  0.00000000000E+00  0.42116362507E+02  0.42116362507E+02  0.00000000000E+00 0.  1.
          1   -1    0    0  501    0  0.00000000000E+00 -0.00000000000E+00 -0.31482068541E+03  0.31482068541E+03  0.00000000000E+00 0. -1.
         25    2    1    2    0    0 -0.13955259280E+02 -0.30139073191E+02 -0.17331134913E+03  0.21630603767E+03  0.12509342589E+03 0.  0.
          5    1    3    3  502    0  0.29193912164E+02  0.23773568638E+02 -0.10350942691E+02  0.39269345396E+02  0.41800000000E+01 0. -1.
         -5    1    3    3    0  502 -0.43149171443E+02 -0.53912641830E+02 -0.16296040644E+03  0.17703669228E+03  0.41800000000E+01 0. -1.
        -11    1    1    2    0    0 -0.35882467370E+02  0.32620014700E+02 -0.59411043090E+02  0.76689561640E+02  0.00000000000E+00 0.  1.
         11    1    1    2    0    0  0.49837726649E+02 -0.24809415092E+01 -0.39981930681E+02  0.63941448602E+02  0.00000000000E+00 0. -1.
</event>
<event>
 7    1  0.2810263E-009  0.9198054E+02  0.7561462E-02  0.1298125E+00
         -3   -1    0    0    0  501 -0.00000000000E+00  0.00000000000E+00  0.14902742140E+03  0.14902742140E+03  0.00000000000E+00 0.  1.
          3   -1    0    0  501    0  0.00000000000E+00 -0.00000000000E+00 -0.10283097854E+03  0.10283097854E+03  0.00000000000E+00 0. -1.
         25    2    1    2    0    0  0.33259605904E+02  0.50395365013E+02  0.17278261763E+02  0.13997004142E+03  0.12508868841E+03 0.  0.
          5    1    3    3  502    0 -0.23011406696E+02  0.76121502852E+01 -0.41300289432E+02  0.48069283095E+02  0.41800000000E+01 0. -1.
         -5    1    3    3    0  502  0.56271012600E+02  0.42783214728E+02  0.58578551195E+02  0.91900758330E+02  0.41800000000E+01 0. -1.
        -11    1    1    2    0    0  0.10629352206E+02 -0.42690194955E+02 -0.17680255733E+02  0.47413366432E+02  0.00000000000E+00 0. -1.
         11    1    1    2    0    0 -0.43888958109E+02 -0.77051700580E+01  0.46598436831E+02  0.64474992087E+02  0.00000000000E+00 0.  1.
</event>
<event>
 7    1  0.2810263E-009  0.9443129E+02  0.7561462E-02  0.1292462E+00
         -1   -1    0    0    0  501 -0.00000000000E+00  0.00000000000E+00  0.38724692770E+02  0.38724692770E+02  0.00000000000E+00 0.  1.
          1   -1    0    0  501    0  0.00000000000E+00 -0.00000000000E+00 -0.33516515155E+03  0.33516515155E+03  0.00000000000E+00 0. -1.
         25    2    1    2    0    0  0.24636718992E+02  0.24669049809E+02 -0.18863829822E+03  0.22901445100E+03  0.12509069218E+03 0.  0.
          5    1    3    3  502    0 -0.27449044981E+02  0.50767712221E+02 -0.14495512362E+03  0.15607777208E+03  0.41800000000E+01 0. -1.
         -5    1    3    3    0  502  0.52085763973E+02 -0.26098662412E+02 -0.43683174604E+02  0.72936678920E+02  0.41800000000E+01 0. -1.
        -11    1    1    2    0    0 -0.30239892488E+02 -0.43480132887E+02 -0.22842625904E+02  0.57678060055E+02  0.00000000000E+00 0.  1.
         11    1    1    2    0    0  0.56031734963E+01  0.18811083078E+02 -0.84959534656E+02  0.87197333266E+02  0.00000000000E+00 0. -1.
</event>
<event>
 7    1  0.2810263E-009  0.1196110E+03  0.7561462E-02  0.1243740E+00
          1   -1    0    0  501    0  0.00000000000E+00  0.00000000000E+00  0.34061540608E+02  0.34061540608E+02  0.00000000000E+00 0. -1.
         -1   -1    0    0    0  501 -0.00000000000E+00 -0.00000000000E+00 -0.53132189346E+03  0.53132189346E+03  0.00000000000E+00 0.  1.
         25    2    1    2    0    0 -0.53425212553E+02  0.16481258209E+02 -0.15554157537E+03  0.20728354825E+03  0.12508957788E+03 0.  0.
          5    1    3    3  502    0 -0.83294443788E+02 -0.22245503877E+02 -0.11392165799E+03  0.14292810559E+03  0.41800000000E+01 0.  1.
         -5    1    3    3    0  502  0.29869231235E+02  0.38726762087E+02 -0.41619917385E+02  0.64355442656E+02  0.41800000000E+01 0.  1.
        -11    1    1    2    0    0  0.47238763799E+02 -0.50555027746E+02 -0.18291219333E+03  0.19556119785E+03  0.00000000000E+00 0. -1.
         11    1    1    2    0    0  0.61864487539E+01  0.34073769537E+02 -0.15880658415E+03  0.16253868798E+03  0.00000000000E+00 0.  1.
</event>
<event>
 7    1  0.2810263E-009  0.3699205E+03  0.7561462E-02  0.1054723E+00
          2   -1    0    0  501    0  0.00000000000E+00  0.00000000000E+00  0.42931103659E+03  0.42931103659E+03  0.00000000000E+00 0. -1.
         -2   -1    0    0    0  501 -0.00000000000E+00 -0.00000000000E+00 -0.38537149920E+03  0.38537149920E+03  0.00000000000E+00 0.  1.
         25    2    1    2    0    0  0.27931843595E+03  0.22682614369E+03  0.17777442915E+03  0.42038077249E+03  0.12508940039E+03 0.  0.
          5    1    3    3  502    0  0.16987478666E+02  0.50425529664E+02  0.66382709419E+02  0.85178899870E+02  0.41800000000E+01 0. -1.
         -5    1    3    3    0  502  0.26233095729E+03  0.17640061403E+03  0.11139171973E+03  0.33520187262E+03  0.41800000000E+01 0. -1.
        -11    1    1    2    0    0 -0.16195281604E+03 -0.18462819260E+03 -0.78282652934E+02  0.25776822511E+03  0.00000000000E+00 0.  1.
         11    1    1    2    0    0 -0.11736561991E+03 -0.42197951091E+02 -0.55552238820E+02  0.13653353819E+03  0.00000000000E+00 0. -1.
</event>
<event>
 7    1  0.2810263E-009  0.1644411E+03  0.7561462E-02  0.1183772E+00
         -2   -1    0    0    0  501 -0.00000000000E+00  0.00000000000E+00  0.21500333476E+02  0.21500333476E+02  0.00000000000E+00 0.  1.
          2   -1    0    0  501    0  0.00000000000E+00 -0.00000000000E+00 -0.16342348958E+04  0.16342348958E+04  0.00000000000E+00 0. -1.
         25    2    1    2    0    0 -0.14095396322E+03  0.52200001627E+02 -0.77797848042E+03  0.80217825558E+03  0.12508628151E+03 0.  0.
          5    1    3    3  502    0 -0.76736160657E+02  0.42374786081E+02 -0.67268615815E+03  0.67838646847E+03  0.41800000000E+01 0. -1.
         -5    1    3    3    0  502 -0.64217802564E+02  0.98252155469E+01 -0.10529232227E+03  0.12379178711E+03  0.41800000000E+01 0. -1.
        -11    1    1    2    0    0  0.68735693498E+02  0.22303609578E+02 -0.40935494021E+03  0.41568439186E+03  0.00000000000E+00 0. -1.
         11    1    1    2    0    0  0.72218269723E+02 -0.74503611205E+02 -0.42540114169E+03  0.43787258183E+03  0.00000000000E+00 0.  1.
</event>
<event>
 7    1  0.2810263E-009  0.1167144E+03  0.7561462E-02  0.1248618E+00
         -1   -1    0    0    0  501 -0.00000000000E+00  0.00000000000E+00  0.31194089406E+02  0.31194089406E+02  0.00000000000E+00 0.  1.
          1   -1    0    0  501    0  0.00000000000E+00 -0.00000000000E+00 -0.46639346366E+03  0.46639346366E+03  0.00000000000E+00 0. -1.
         25    2    1    2    0    0  0.34407363694E+02  0.34792906496E+02 -0.20150318480E+03  0.24216708019E+03  0.12508776209E+03 0.  0.
          5    1    3    3  502    0 -0.31354608373E+02  0.56396114876E+02 -0.10547741613E+03  0.12371980824E+03  0.41800000000E+01 0.  1.
         -5    1    3    3    0  502  0.65761972068E+02 -0.21603208380E+02 -0.96025768674E+02  0.11844727195E+03  0.41800000000E+01 0.  1.
        -11    1    1    2    0    0 -0.23579262172E+02  0.27482821076E+02 -0.11987878369E+03  0.12522863026E+03  0.00000000000E+00 0.  1.
         11    1    1    2    0    0 -0.10828101522E+02 -0.62275727572E+02 -0.11381740576E+03  0.13019184261E+03  0.00000000000E+00 0. -1.
</event>
<event>
 7    1  0.2810263E-009  0.1004645E+03  0.7561462E-02  0.1279322E+00
          2   -1    0    0  501    0  0.00000000000E+00  0.00000000000E+00  0.20928347932E+03  0.20928347932E+03  0.00000000000E+00 0. -1.
         -2   -1    0    0    0  501 -0.00000000000E+00 -0.00000000000E+00 -0.11379703444E+03  0.11379703444E+03  0.00000000000E+00 0.  1.
         25    2    1    2    0    0 -0.40742708719E+02  0.62386900708E+01  0.15560832043E+03  0.20386329012E+03  0.12508957633E+03 0.  0.
          5    1    3    3  502    0  0.28420364572E+02  0.40312589147E+01 -0.45340806618E+01  0.29359810256E+02  0.41800000000E+01 0. -1.
         -5    1    3    3    0  502 -0.69163073290E+02  0.22074311562E+01  0.16014240109E+03  0.17450347987E+03  0.41800000000E+01 0. -1.
        -11    1    1    2    0    0  0.63127292583E+02  0.21739884554E+02 -0.43748284123E+02  0.79822240090E+02  0.00000000000E+00 0. -1.
         11    1    1    2    0    0 -0.22384583864E+02 -0.27978574625E+02 -0.16373591422E+02  0.39394983550E+02  0.00000000000E+00 0.  1.
</event>
<event>
 7    1  0.2810263E-009  0.1715083E+03  0.7561462E-02  0.1176284E+00
         -1   -1    0    0    0  501 -0.00000000000E+00  0.00000000000E+00  0.14505688807E+04  0.14505688807E+04  0.00000000000E+00 0.  1.
          1   -1    0    0  501    0  0.00000000000E+00 -0.00000000000E+00 -0.21442393342E+02  0.21442393342E+02  0.00000000000E+00 0. -1.
         25    2    1    2    0    0 -0.13100671675E+02  0.13682688959E+03  0.69226620130E+03  0.71677905827E+03  0.12508596881E+03 0.  0.
          5    1    3    3  502    0 -0.15644476246E+02  0.15641923960E+03  0.66180763381E+03  0.68023418374E+03  0.41800000000E+01 0.  1.
         -5    1    3    3    0  502  0.25438045712E+01 -0.19592350015E+02  0.30458567486E+02  0.36544874526E+02  0.41800000000E+01 0.  1.
        -11    1    1    2    0    0  0.34202140499E+02 -0.81342093637E+01  0.15590448842E+03  0.15981915181E+03  0.00000000000E+00 0. -1.
         11    1    1    2    0    0 -0.21101468824E+02 -0.12869268022E+03  0.58095579762E+03  0.59541306395E+03  0.00000000000E+00 0.  1.
</event>
<event>
 7    1  0.2810263E-009  0.1083143E+03  0.7561462E-02  0.1263724E+00
         -2   -1    0    0    0  501 -0.00000000000E+00  0.00000000000E+00  0.10536191749E+04  0.10536191749E+04  0.00000000000E+00 0.  1.
          2   -1    0    0  501    0  0.00000000000E+00 -0.00000000000E+00 -0.15901131381E+02  0.15901131381E+02  0.00000000000E+00 0. -1.
         25    2    1    2    0    0  0.20159202104E+02 -0.38148398393E+02  0.81409090030E+03  0.82477455262E+03  0.12508946782E+03 0.  0.
          5    1    3    3  502    0  0.45536912189E+02  0.30948525838E+02  0.44320986494E+03  0.44663618125E+03  0.41800000000E+01 0.  1.
         -5    1    3    3    0  502 -0.25377710085E+02 -0.69096924231E+02  0.37088103536E+03  0.37813837137E+03  0.41800000000E+01 0.  1.
        -11    1    1    2    0    0  0.26509636764E+02  0.30468480558E+02  0.47352306331E+02  0.62236083294E+02  0.00000000000E+00 0. -1.
         11    1    1    2    0    0 -0.46668838868E+02  0.76799178349E+01  0.17627483685E+03  0.18250967034E+03  0.00000000000E+00 0.  1.
</event>
<event>
 7    1  0.2810263E-009  0.6954428E+02  0.7561462E-02  0.1361650E+00
          1   -1    0    0  501    0  0.00000000000E+00  0.00000000000E+00  0.21299118307E+02  0.21299118307E+02  0.00000000000E+00 0. -1.
         -1   -1    0    0    0  501 -0.00000000000E+00 -0.00000000000E+00 -0.49994115722E+03  0.49994115722E+03  0.00000000000E+00 0.  1.
         25    2    1    2    0    0  0.42474822916E+00  0.96385208975E+00 -0.27072228485E+03  0.29822714396E+03  0.12509102471E+03 0.  0.
          5    1    3    3  502    0  0.17437619675E+02  0.29330847065E+02 -0.10597319112E+02  0.35974223298E+02  0.41800000000E+01 0. -1.
         -5    1    3    3    0  502 -0.17012871446E+02 -0.28366994976E+02 -0.26012496574E+03  0.26225292067E+03  0.41800000000E+01 0. -1.
        -11    1    1    2    0    0  0.13340597270E+02 -0.33490912078E+02 -0.52867593954E+02  0.63989024198E+02  0.00000000000E+00 0.  1.
         11    1    1    2    0    0 -0.13765345499E+02  0.32527059988E+02 -0.15505216012E+03  0.15902410737E+03  0.00000000000E+00 0. -1.
</event>
<event>
 7    1  0.2810263E-009  0.8603162E+02  0.7561462E-02  0.1312757E+00
         -1   -1    0    0    0  501 -0.00000000000E+00  0.00000000000E+00  0.31235932617E+02  0.31235932617E+02  0.00000000000E+00 0.  1.
          1   -1    0    0  501    0  0.00000000000E+00 -0.00000000000E+00 -0.50735054451E+03  0.50735054451E+03  0.00000000000E+00 0. -1.
         25    2    1    2    0    0 -0.64362733380E+02  0.10528186486E+02 -0.27916389752E+03  0.31278536274E+03  0.12509515300E+03 0.  0.
          5    1    3    3  502    0 -0.12251652743E+02  0.15550409619E+02  0.73278930323E+01  0.21519494663E+02  0.41800000000E+01 0. -1.
         -5    1    3    3    0  502 -0.52111080637E+02 -0.50222231331E+01 -0.28649179055E+03  0.29126586807E+03  0.41800000000E+01 0. -1.
        -11    1    1    2    0    0  0.50785527028E+02  0.28327163090E+02 -0.16090047648E+03  0.17108641458E+03  0.00000000000E+00 0.  1.
         11    1    1    2    0    0  0.13577206351E+02 -0.38855349575E+02 -0.36050237897E+02  0.54714699810E+02  0.00000000000E+00 0. -1.
</event>
<event>
 7    1  0.2810263E-009  0.9281903E+02  0.7561462E-02  0.1296165E+00
          3   -1    0    0  501    0  0.00000000000E+00  0.00000000000E+00  0.28035703334E+03  0.28035703334E+03  0.00000000000E+00 0. -1.
         -3   -1    0    0    0  501 -0.00000000000E+00 -0.00000000000E+00 -0.54675110125E+02  0.54675110125E+02  0.00000000000E+00 0.  1.
         25    2    1    2    0    0 -0.17580546723E+02 -0.19596710727E+02  0.19893755371E+03  0.23646842902E+03  0.12509220980E+03 0.  0.
          5    1    3    3  502    0 -0.64775614719E+02 -0.30190937414E+02  0.76576098435E+02  0.10482721124E+03  0.41800000000E+01 0. -1.
         -5    1    3    3    0  502  0.47195067997E+02  0.10594226687E+02  0.12236145527E+03  0.13164121778E+03  0.41800000000E+01 0. -1.
        -11    1    1    2    0    0  0.37613606765E+02  0.24483006197E+02  0.50197388326E+02  0.67334826063E+02  0.00000000000E+00 0. -1.
         11    1    1    2    0    0 -0.20033060042E+02 -0.48862954693E+01 -0.23453018818E+02  0.31228888385E+02  0.00000000000E+00 0.  1.
</event>
<event>
 7    1  0.2810263E-009  0.8313115E+02  0.7561462E-02  0.1320393E+00
         -2   -1    0    0    0  501 -0.00000000000E+00  0.00000000000E+00  0.48310461436E+03  0.48310461436E+03  0.00000000000E+00 0.  1.
          2   -1    0    0  501    0  0.00000000000E+00 -0.00000000000E+00 -0.26482463889E+02  0.26482463889E+02  0.00000000000E+00 0. -1.
         25    2    1    2    0    0 -0.22093764129E+02 -0.24976508633E+02  0.26788267802E+03  0.29752701768E+03  0.12509690910E+03 0.  0.
          5    1    3    3  502    0  0.16474314661E+02 -0.52624825334E+02  0.50184469221E+02  0.74677497521E+02  0.41800000000E+01 0.  1.
         -5    1    3    3    0  502 -0.38568078789E+02  0.27648316701E+02  0.21769820880E+03  0.22284952016E+03  0.41800000000E+01 0.  1.
        -11    1    1    2    0    0  0.34563238754E+02 -0.92531659502E+00  0.18120364421E+02  0.39036153636E+02  0.00000000000E+00 0. -1.
         11    1    1    2    0    0 -0.12469474625E+02  0.25901825228E+02  0.17061910803E+03  0.17302390694E+03  0.00000000000E+00 0.  1.
</event>
<event>
 7    1  0.2810263E-009  0.1301285E+03  0.7561462E-02  0.1227265E+00
         -2   -1    0    0    0  501 -0.00000000000E+00  0.00000000000E+00  0.54189238463E+02  0.54189238463E+02  0.00000000000E+00 0.  1.
          2   -1    0    0  501    0  0.00000000000E+00 -0.00000000000E+00 -0.54068699526E+03  0.54068699526E+03  0.00000000000E+00 0. -1.
         25    2    1    2    0    0  0.53193871139E+02  0.99461334610E+02 -0.16772603396E+03  0.23770011278E+03  0.12508867310E+03 0.  0.
          5    1    3    3  502    0  0.63005352061E+02  0.73789008724E+02 -0.18211883653E+03  0.20639582170E+03  0.41800000000E+01 0.  1.
         -5    1    3    3    0  502 -0.98114809221E+01  0.25672325885E+02  0.14392802567E+02  0.31304291079E+02  0.41800000000E+01 0.  1.
        -11    1    1    2    0    0  0.40501880579E+01 -0.71529703144E+02 -0.26277406303E+03  0.27236576631E+03  0.00000000000E+00 0.  1.
         11    1    1    2    0    0 -0.57244059197E+02 -0.27931631466E+02 -0.55997659808E+02  0.84810354637E+02  0.00000000000E+00 0. -1.
</event>
<event>
 7    1  0.2810263E-009  0.1350416E+03  0.7561462E-02  0.1220161E+00
          2   -1    0    0  501    0  0.00000000000E+00  0.00000000000E+00  0.18093795223E+04  0.18093795223E+04  0.00000000000E+00 0. -1.
         -2   -1    0    0    0  501 -0.00000000000E+00 -0.00000000000E+00 -0.13430794788E+02  0.13430794788E+02  0.00000000000E+00 0.  1.
         25    2    1    2    0    0 -0.89764054793E+02 -0.11045054799E+02  0.13393722715E+04  0.13482391318E+04  0.12510434133E+03 0.  0.
          5    1    3    3  502    0 -0.11367607703E+03 -0.32373253211E+02  0.91013017699E+03  0.91778248485E+03  0.41800000000E+01 0.  1.
         -5    1    3    3    0  502  0.23912022237E+02  0.21328198412E+02  0.42924209449E+03  0.43045664699E+03  0.41800000000E+01 0.  1.
        -11    1    1    2    0    0  0.71531572568E+02 -0.27677728427E+02  0.37150260322E+03  0.37933758939E+03  0.00000000000E+00 0. -1.
         11    1    1    2    0    0  0.18232482225E+02  0.38722783226E+02  0.85073852762E+02  0.95233595819E+02  0.00000000000E+00 0.  1.
</event>
<event>
 7    1  0.2810263E-009  0.1129770E+03  0.7561462E-02  0.1255154E+00
         -2   -1    0    0    0  501 -0.00000000000E+00  0.00000000000E+00  0.35103448642E+03  0.35103448642E+03  0.00000000000E+00 0.  1.
          2   -1    0    0  501    0  0.00000000000E+00 -0.00000000000E+00 -0.61827650608E+02  0.61827650608E+02  0.00000000000E+00 0. -1.
         25    2    1    2    0    0 -0.50076766755E+02  0.90722436490E+02  0.16681702970E+03  0.23283777110E+03  0.12508902111E+03 0.  0.
          5    1    3    3  502    0 -0.41412842644E+02  0.16095934328E+02 -0.53498776222E+01  0.44946593067E+02  0.41800000000E+01 0.  1.
         -5    1    3    3    0  502 -0.86639241114E+01  0.74626502162E+02  0.17216690732E+03  0.18789117803E+03  0.41800000000E+01 0.  1.
        -11    1    1    2    0    0  0.15126477130E+02 -0.50893075131E+02  0.76528931313E+01  0.53642167928E+02  0.00000000000E+00 0. -1.
         11    1    1    2    0    0  0.34950289626E+02 -0.39829361359E+02  0.11473691298E+03  0.12638219800E+03  0.00000000000E+00 0.  1.
</event>
<event>
 7    1  0.2810263E-009  0.1029791E+03  0.7561462E-02  0.1274153E+00
          1   -1    0    0  501    0  0.00000000000E+00  0.00000000000E+00  0.83171662831E+02  0.83171662831E+02  0.00000000000E+00 0. -1.
         -1   -1    0    0    0  501 -0.00000000000E+00 -0.00000000000E+00 -0.24394137408E+03  0.24394137408E+03  0.00000000000E+00 0.  1.
         25    2    1    2    0    0  0.31346021395E+02  0.82510716721E+02 -0.13280365685E+03  0.20267059036E+03  0.12509182824E+03 0.  0.
          5    1    3    3  502    0 -0.24406729515E+02  0.20328345247E+02 -0.11201173367E+03  0.11650335165E+03  0.41800000000E+01 0.  1.
         -5    1    3    3    0  502  0.55752750910E+02  0.62182371474E+02 -0.20791923176E+02  0.86167238702E+02  0.41800000000E+01 0.  1.
        -11    1    1    2    0    0 -0.34983473570E+01 -0.35409537949E+02  0.28667581121E+02  0.45693588383E+02  0.00000000000E+00 0. -1.
         11    1    1    2    0    0 -0.27847674038E+02 -0.47101178772E+02 -0.56633635520E+02  0.78748858171E+02  0.00000000000E+00 0.  1.
</event>
<event>
 7    1  0.2810263E-009  0.8771202E+02  0.7561462E-02  0.1308489E+00
         -1   -1    0    0    0  501 -0.00000000000E+00  0.00000000000E+00  0.21126528683E+02  0.21126528683E+02  0.00000000000E+00 0.  1.
          1   -1    0    0  501    0  0.00000000000E+00 -0.00000000000E+00 -0.66668733011E+03  0.66668733011E+03  0.00000000000E+00 0. -1.
         25    2    1    2    0    0 -0.40606981509E+02 -0.21629301723E+02 -0.33909310082E+03  0.36434792593E+03  0.12509407048E+03 0.  0.
          5    1    3    3  502    0 -0.43198408177E+02 -0.36834847787E+02 -0.34316656232E+03  0.34785581837E+03  0.41800000000E+01 0. -1.
         -5    1    3    3    0  502  0.25914266678E+01  0.15205546064E+02  0.40734615009E+01  0.16492107563E+02  0.41800000000E+01 0. -1.
        -11    1    1    2    0    0  0.61539387751E+02  0.41042129349E+02 -0.23961738135E+03  0.25077488325E+03  0.00000000000E+00 0. -1.
         11    1    1    2    0    0 -0.20932406242E+02 -0.19412827626E+02 -0.66850319257E+02  0.72691049602E+02  0.00000000000E+00 0.  1.
</event>
<event>
 7    1  0.2810263E-009  0.8740147E+02  0.7561462E-02  0.1309269E+00
          1   -1    0    0  501    0  0.00000000000E+00  0.00000000000E+00  0.60885058569E+02  0.60885058569E+02  0.00000000000E+00 0. -1.
         -1   -1    0    0    0  501 -0.00000000000E+00 -0.00000000000E+00 -0.22075027126E+03  0.22075027126E+03  0.00000000000E+00 0.  1.
         25    2    1    2    0    0  0.10164696523E+02 -0.35767970793E+02 -0.91533475864E+02  0.15940031593E+03  0.12508962676E+03 0.  0.
          5    1    3    3  502    0 -0.17994109167E+02 -0.40576161456E+02  0.16528123565E+02  0.47548544792E+02  0.41800000000E+01 0. -1.
         -5    1    3    3    0  502  0.28158805689E+02  0.48081906634E+01 -0.10806159943E+03  0.11185177114E+03  0.41800000000E+01 0. -1.
        -11    1    1    2    0    0 -0.50212627926E+02  0.35155778773E+02 -0.40881758747E+02  0.73678728156E+02  0.00000000000E+00 0.  1.
         11    1    1    2    0    0  0.40047931403E+02  0.61219202005E+00 -0.27449978080E+02  0.48556285745E+02  0.00000000000E+00 0. -1.
</event>
<event>
 7    1  0.2810263E-009  0.1124207E+03  0.7561462E-02  0.1256152E+00
          1   -1    0    0  501    0  0.00000000000E+00  0.00000000000E+00  0.31419079497E+02  0.31419079497E+02  0.00000000000E+00 0. -1.
         -1   -1    0    0    0  501 -0.00000000000E+00 -0.00000000000E+00 -0.57815483240E+03  0.57815483240E+03  0.00000000000E+00 0.  1.
         25    2    1    2    0    0 -0.66002901205E+02  0.38620803889E+02 -0.33416550277E+03  0.36491389407E+03  0.12509043684E+03 0.  0.
          5    1    3    3  502    0 -0.94462469538E+02  0.33248969360E+02 -0.16364263209E+03  0.19189850326E+03  0.41800000000E+01 0. -1.
         -5    1    3    3    0  502  0.28459568333E+02  0.53718345285E+01 -0.17052287068E+03  0.17301539082E+03  0.41800000000E+01 0. -1.
        -11    1    1    2    0    0  0.26189467426E+02 -0.47787752000E+02 -0.40738427093E+02  0.68038054699E+02  0.00000000000E+00 0. -1.
         11    1    1    2    0    0  0.39813433779E+02  0.91669481116E+01 -0.17183182305E+03  0.17662196313E+03  0.00000000000E+00 0.  1.
</event>
<event>
 7    1  0.2810263E-009  0.1059750E+03  0.7561462E-02  0.1268210E+00
         -2   -1    0    0    0  501 -0.00000000000E+00  0.00000000000E+00  0.34271700838E+02  0.34271700838E+02  0.00000000000E+00 0.  1.
          2   -1    0    0  501    0  0.00000000000E+00 -0.00000000000E+00 -0.47396692064E+03  0.47396692064E+03  0.00000000000E+00 0. -1.
         25    2    1    2    0    0  0.49923113485E+02 -0.13220638870E+02 -0.17440670482E+03  0.22075021254E+03  0.12508339257E+03 0.  0.
          5    1    3    3  502    0 -0.29603164555E+02 -0.58275471762E+01 -0.12052600802E+03  0.12431531952E+03  0.41800000000E+01 0. -1.
         -5    1    3    3    0  502  0.79526278040E+02 -0.73930916940E+01 -0.53880696801E+02  0.96434893019E+02  0.41800000000E+01 0. -1.
        -11    1    1    2    0    0 -0.54379073813E+01  0.45958392913E+02 -0.65459749346E+02  0.80166847888E+02  0.00000000000E+00 0.  1.
         11    1    1    2    0    0 -0.44485206104E+02 -0.32737754043E+02 -0.19982876563E+03  0.20732156105E+03  0.00000000000E+00 0. -1.
</event>
<event>
 7    1  0.2810263E-009  0.1415098E+03  0.7561462E-02  0.1211312E+00
          1   -1    0    0  501    0  0.00000000000E+00  0.00000000000E+00  0.74325092301E+03  0.74325092301E+03  0.00000000000E+00 0. -1.
         -1   -1    0    0    0  501 -0.00000000000E+00 -0.00000000000E+00 -0.35038200187E+02  0.35038200187E+02  0.00000000000E+00 0.  1.
         25    2    1    2    0    0 -0.14409376038E+02 -0.11340898128E+03  0.47182865662E+03  0.50133766427E+03  0.12509174733E+03 0.  0.
          5    1    3    3  502    0  0.10234327560E+02  0.23903986539E+02  0.11958677262E+03  0.12245248311E+03  0.41800000000E+01 0. -1.
         -5    1    3    3    0  502 -0.24643703599E+02 -0.13731296782E+03  0.35224188400E+03  0.37888518116E+03  0.41800000000E+01 0. -1.
        -11    1    1    2    0    0  0.21431998847E+02  0.72324254279E+02  0.61962857995E+02  0.97619281407E+02  0.00000000000E+00 0.  1.
         11    1    1    2    0    0 -0.70226228086E+01  0.41084726998E+02  0.17442120821E+03  0.17933217753E+03  0.00000000000E+00 0. -1.
</event>
<event>
 7    1  0.2810263E-009  0.7582544E+02  0.7561462E-02  0.1341334E+00
          1   -1    0    0  501    0  0.00000000000E+00  0.00000000000E+00  0.43208567864E+03  0.43208567864E+03  0.00000000000E+00 0. -1.
         -1   -1    0    0    0  501 -0.00000000000E+00 -0.00000000000E+00 -0.32487245562E+02  0.32487245562E+02  0.00000000000E+00 0.  1.
         25    2    1    2    0    0  0.68053682845E+01 -0.42083309988E+02  0.19529437560E+03  0.23580706807E+03  0.12509101563E+03 0.  0.
          5    1    3    3  502    0  0.27335766171E+02 -0.22175208104E+02 -0.28547267084E+01  0.35561296815E+02  0.41800000000E+01 0. -1.
         -5    1    3    3    0  502 -0.20530397887E+02 -0.19908101884E+02  0.19814910231E+03  0.20024577125E+03  0.41800000000E+01 0. -1.
        -11    1    1    2    0    0  0.30898167077E+02  0.13227723479E+00  0.21986312088E+02  0.37922449093E+02  0.00000000000E+00 0.  1.
         11    1    1    2    0    0 -0.37703535362E+02  0.41951032753E+02  0.18231774539E+03  0.19084340704E+03  0.00000000000E+00 0. -1.
</event>
<event>
 7    1  0.2810263E-009  0.7522585E+02  0.7561462E-02  0.1343173E+00
         -1   -1    0    0    0  501 -0.00000000000E+00  0.00000000000E+00  0.64578970767E+02  0.64578970767E+02  0.00000000000E+00 0.  1.
          1   -1    0    0  501    0  0.00000000000E+00 -0.00000000000E+00 -0.20194313459E+03  0.20194313459E+03  0.00000000000E+00 0. -1.
         25    2    1    2    0    0 -0.26297548976E+02  0.86707036966E+01 -0.55585063866E+02  0.13966959519E+03  0.12510457350E+03 0.  0.
          5    1    3    3  502    0 -0.40506147776E+02 -0.29925687679E+02  0.19329488789E+02  0.54105418653E+02  0.41800000000E+01 0. -1.
         -5    1    3    3    0  502  0.14208598800E+02  0.38596391376E+02 -0.74914552654E+02  0.85564176537E+02  0.41800000000E+01 0. -1.
        -11    1    1    2    0    0  0.39108986254E+02 -0.17674597579E+02  0.67695858606E+00  0.42922750125E+02  0.00000000000E+00 0.  1.
         11    1    1    2    0    0 -0.12811437277E+02  0.90038938821E+01 -0.82456058541E+02  0.83929760040E+02  0.00000000000E+00 0. -1.
</event>
<event>
 7    1  0.2810263E-009  0.1483812E+03  0.7561462E-02  0.1202476E+00
         -1   -1    0    0    0  501 -0.00000000000E+00  0.00000000000E+00  0.13170182740E+03  0.13170182740E+03  0.00000000000E+00 0.  1.
          1   -1    0    0  501    0  0.00000000000E+00 -0.00000000000E+00 -0.26678607085E+03  0.26678607085E+03  0.00000000000E+00 0. -1.
         25    2    1    2    0    0 -0.58799298376E+02 -0.10693676159E+03 -0.16556111446E+03  0.24072293296E+03  0.12507685383E+03 0.  0.
          5    1    3    3  502    0 -0.43546970132E+02 -0.12801815931E+03 -0.94749880616E+02  0.16516658257E+03  0.41800000000E+01 0. -1.
         -5    1    3    3    0  502 -0.15252328243E+02  0.21081397717E+02 -0.70811233845E+02  0.75556350397E+02  0.41800000000E+01 0. -1.
        -11    1    1    2    0    0  0.67828826814E+02  0.71507634506E+02  0.55828704079E+02  0.11327372042E+03  0.00000000000E+00 0. -1.
         11    1    1    2    0    0 -0.90295284384E+01  0.35429127085E+02 -0.25351833059E+02  0.44491244861E+02  0.00000000000E+00 0.  1.
</event>
<event>
 7    1  0.2810263E-009  0.2961769E+03  0.7561462E-02  0.1087168E+00
          2   -1    0    0  501    0  0.00000000000E+00  0.00000000000E+00  0.18688432917E+04  0.18688432917E+04  0.00000000000E+00 0. -1.
         -2   -1    0    0    0  501 -0.00000000000E+00 -0.00000000000E+00 -0.48249888654E+02  0.48249888654E+02  0.00000000000E+00 0.  1.
         25    2    1    2    0    0 -0.15929386127E+03  0.23365126561E+03  0.99126111839E+03  0.10383703952E+04  0.12508806725E+03 0.  0.
          5    1    3    3  502    0 -0.33127028603E+02 -0.41115783800E+01  0.57897072328E+02  0.66961544823E+02  0.41800000000E+01 0. -1.
         -5    1    3    3    0  502 -0.12616683267E+03  0.23776284399E+03  0.93336404606E+03  0.97140885034E+03  0.41800000000E+01 0. -1.
        -11    1    1    2    0    0  0.24366377313E+02 -0.86509303989E+02  0.29108299647E+03  0.30464223419E+03  0.00000000000E+00 0. -1.
         11    1    1    2    0    0  0.13492748396E+03 -0.14714196162E+03  0.53824928815E+03  0.57408055096E+03  0.00000000000E+00 0.  1.
</event>
<event>
 7    1  0.2810263E-009  0.1840264E+03  0.7561462E-02  0.1163962E+00
         -1   -1    0    0    0  501 -0.00000000000E+00  0.00000000000E+00  0.95819417301E+02  0.95819417301E+02  0.00000000000E+00 0.  1.
          1   -1    0    0  501    0  0.00000000000E+00 -0.00000000000E+00 -0.37048426961E+03  0.37048426961E+03  0.00000000000E+00 0. -1.
         25    2    1    2    0    0  0.96652126880E+02  0.11969407867E+03 -0.14366787964E+03  0.24486738395E+03  0.12510503580E+03 0.  0.
          5    1    3    3  502    0  0.80249227855E+02  0.35746960240E+01 -0.67098224649E+02  0.10474903901E+03  0.41800000000E+01 0. -1.
         -5    1    3    3    0  502  0.16402899025E+02  0.11611938264E+03 -0.76569654993E+02  0.14011834493E+03  0.41800000000E+01 0. -1.
        -11    1    1    2    0    0 -0.10532697985E+03 -0.87513521001E+02 -0.74636048507E+02  0.15595809943E+03  0.00000000000E+00 0.  1.
         11    1    1    2    0    0  0.86748529671E+01 -0.32180557664E+02 -0.56360924156E+02  0.65478203529E+02  0.00000000000E+00 0. -1.
</event>
<event>
 7    1  0.2810263E-009  0.1177548E+03  0.7561462E-02  0.1246848E+00
          1   -1    0    0  501    0  0.00000000000E+00  0.00000000000E+00  0.10280106064E+03  0.10280106064E+03  0.00000000000E+00 0. -1.
         -1   -1    0    0    0  501 -0.00000000000E+00 -0.00000000000E+00 -0.14225516979E+03  0.14225516979E+03  0.00000000000E+00 0.  1.
         25    2    1    2    0    0  0.83258941511E+02  0.11048403963E+02 -0.30405108596E+02  0.15371362376E+03  0.12509711799E+03 0.  0.
          5    1    3    3  502    0 -0.55282188439E+01 -0.44331231228E+02 -0.77393261783E+00  0.44876392876E+02  0.41800000000E+01 0.  1.
         -5    1    3    3    0  502  0.88787160355E+02  0.55379635191E+02 -0.29631175978E+02  0.10883723089E+03  0.41800000000E+01 0.  1.
        -11    1    1    2    0    0 -0.22652878786E+02 -0.11283009615E+02 -0.16602529475E+02  0.30267196901E+02  0.00000000000E+00 0.  1.
         11    1    1    2    0    0 -0.60606062724E+02  0.23460565202E+00  0.75535289240E+01  0.61075409765E+02  0.00000000000E+00 0. -1.
</event>
<event>
 7    1  0.2810263E-009  0.8431460E+02  0.7561462E-02  0.1317235E+00
          2   -1    0    0  501    0  0.00000000000E+00  0.00000000000E+00  0.54199614995E+02  0.54199614995E+02  0.00000000000E+00 0. -1.
         -2   -1    0    0    0  501 -0.00000000000E+00 -0.00000000000E+00 -0.26649005342E+03  0.26649005342E+03  0.00000000000E+00 0.  1.
         25    2    1    2    0    0  0.49668573388E+01 -0.40910426223E+02 -0.14083585135E+03  0.19283286065E+03  0.12510572519E+03 0.  0.
          5    1    3    3  502    0 -0.33467032265E+01  0.20375106432E+02 -0.12775428492E+03  0.12947963199E+03  0.41800000000E+01 0. -1.
         -5    1    3    3    0  502  0.83135605653E+01 -0.61285532655E+02 -0.13081566436E+02  0.63353228667E+02  0.41800000000E+01 0. -1.
        -11    1    1    2    0    0  0.12348172194E+02  0.59149833491E+02 -0.97273667355E+01  0.61202955992E+02  0.00000000000E+00 0. -1.
         11    1    1    2    0    0 -0.17315029533E+02 -0.18239407268E+02 -0.61727220335E+02  0.66653851768E+02  0.00000000000E+00 0.  1.
</event>
<event>
 7    1  0.2810263E-009  0.1160393E+03  0.7561462E-02  0.1249778E+00
          4   -1    0    0  501    0  0.00000000000E+00  0.00000000000E+00  0.21611398019E+03  0.21611398019E+03  0.00000000000E+00 0.  1.
         -4   -1    0    0    0  501 -0.00000000000E+00 -0.00000000000E+00 -0.10421215395E+03  0.10421215395E+03  0.00000000000E+00 0. -1.
         25    2    1    2    0    0  0.41986195490E+02 -0.86892992665E+02  0.98510128312E+02  0.18618620986E+03  0.12509127298E+03 0.  0.
          5    1    3    3  502    0  0.31554255737E+01 -0.25449750986E+02 -0.29258607880E+02  0.39130359964E+02  0.41800000000E+01 0. -1.
         -5    1    3    3    0  502  0.38830769916E+02 -0.61443241679E+02  0.12776873619E+03  0.14705584990E+03  0.41800000000E+01 0. -1.
        -11    1    1    2    0    0 -0.62151649037E+02  0.22967028718E+02  0.31828383402E+01  0.66335830032E+02  0.00000000000E+00 0. -1.
         11    1    1    2    0    0  0.20165453547E+02  0.63925963947E+02  0.10208859583E+02  0.67804094252E+02  0.00000000000E+00 0.  1.
</event>
<event>
 7    1  0.2810263E-009  0.1440316E+03  0.7561462E-02  0.1208005E+00
          1   -1    0    0  501    0  0.00000000000E+00  0.00000000000E+00  0.18449821882E+03  0.18449821882E+03  0.00000000000E+00 0. -1.
         -1   -1    0    0    0  501 -0.00000000000E+00 -0.00000000000E+00 -0.14006963080E+03  0.14006963080E+03  0.00000000000E+00 0.  1.
         25    2    1    2    0    0 -0.50020581908E+02 -0.80380535676E+02 -0.46834943097E+02  0.16371773409E+03  0.12508755106E+03 0.  0.
          5    1    3    3  502    0 -0.89870593828E+02 -0.73519836371E+02 -0.36252302082E+02  0.12171109966E+03  0.41800000000E+01 0.  1.
         -5    1    3    3    0  502  0.39850011920E+02 -0.68606993052E+01 -0.10582641015E+02  0.42006634427E+02  0.41800000000E+01 0.  1.
        -11    1    1    2    0    0  0.73070460868E+02  0.36547856958E+02  0.67213661140E+02  0.10579562535E+03  0.00000000000E+00 0. -1.
         11    1    1    2    0    0 -0.23049878960E+02  0.43832678718E+02  0.24049869976E+02  0.55054490186E+02  0.00000000000E+00 0.  1.
</event>
<event>
 7    1  0.2810263E-009  0.9622818E+02  0.7561462E-02  0.1288434E+00
         -2   -1    0    0    0  501 -0.00000000000E+00  0.00000000000E+00  0.33649971243E+02  0.33649971243E+02  0.00000000000E+00 0.  1.
          2   -1    0    0  501    0  0.00000000000E+00 -0.00000000000E+00 -0.36620318732E+03  0.36620318732E+03  0.00000000000E+00 0. -1.
         25    2    1    2    0    0  0.65207575467E+01 -0.15887648326E+02 -0.16388882905E+03  0.20688760136E+03  0.12509194083E+03 0.  0.
          5    1    3    3  502    0 -0.17996340899E+02  0.37285526884E+02 -0.13537622265E+03  0.14162723205E+03  0.41800000000E+01 0. -1.
         -5    1    3    3    0  502  0.24517098446E+02 -0.53173175210E+02 -0.28512606398E+02  0.65260369304E+02  0.41800000000E+01 0. -1.
        -11    1    1    2    0    0  0.42012054623E+02  0.10552602555E+02 -0.61730488440E+02  0.75412355469E+02  0.00000000000E+00 0.  1.
         11    1    1    2    0    0 -0.48532812170E+02  0.53350457715E+01 -0.10693389859E+03  0.11755320174E+03  0.00000000000E+00 0. -1.
</event>
<event>
 7    1  0.2810263E-009  0.3018206E+03  0.7561462E-02  0.1084334E+00
         -2   -1    0    0    0  501 -0.00000000000E+00  0.00000000000E+00  0.27608518285E+02  0.27608518285E+02  0.00000000000E+00 0.  1.
          2   -1    0    0  501    0  0.00000000000E+00 -0.00000000000E+00 -0.37499600020E+04  0.37499600020E+04  0.00000000000E+00 0. -1.
         25    2    1    2    0    0 -0.28985434863E+03  0.74339964046E+02 -0.21530525524E+04  0.21773432370E+04  0.12508519021E+03 0.  0.
          5    1    3    3  502    0 -0.37504233882E+02 -0.69331800444E+01 -0.97782967684E+02  0.10504102872E+03  0.41800000000E+01 0. -1.
         -5    1    3    3    0  502 -0.25235011475E+03  0.81273144091E+02 -0.20552695847E+04  0.20723022083E+04  0.41800000000E+01 0. -1.
        -11    1    1    2    0    0  0.20856213451E+03 -0.64103215354E+02 -0.13171083860E+04  0.13350587577E+04  0.00000000000E+00 0.  1.
         11    1    1    2    0    0  0.81292214121E+02 -0.10236748693E+02 -0.25219054542E+03  0.26516652560E+03  0.00000000000E+00 0. -1.
</event>
<event>
 7    1  0.2810263E-009  0.9916601E+02  0.7561462E-02  0.1282060E+00
          1   -1    0    0  501    0  0.00000000000E+00  0.00000000000E+00  0.52493034373E+03  0.52493034373E+03  0.00000000000E+00 0. -1.
         -1   -1    0    0    0  501 -0.00000000000E+00 -0.00000000000E+00 -0.22864235951E+02  0.22864235951E+02  0.00000000000E+00 0.  1.
         25    2    1    2    0    0 -0.13221109247E+01  0.61111532380E+01  0.24875435804E+03  0.27850608264E+03  0.12509121974E+03 0.  0.
          5    1    3    3  502    0  0.31937074034E+02  0.47912435398E+02  0.64244579722E+02  0.86373703101E+02  0.41800000000E+01 0. -1.
         -5    1    3    3    0  502 -0.33259184959E+02 -0.41801282161E+02  0.18450977832E+03  0.19213237954E+03  0.41800000000E+01 0. -1.
        -11    1    1    2    0    0 -0.37292546562E+02 -0.24117131490E+02  0.87962814619E+02  0.98538453490E+02  0.00000000000E+00 0.  1.
         11    1    1    2    0    0  0.38614657487E+02  0.18005978252E+02  0.16534893512E+03  0.17075004354E+03  0.00000000000E+00 0. -1.
</event>
<event>
 7    1  0.2810263E-009  0.1069393E+03  0.7561462E-02  0.1266345E+00
         -1   -1    0    0    0  501 -0.00000000000E+00  0.00000000000E+00  0.25256339091E+02  0.25256339091E+02  0.00000000000E+00 0.  1.
          1   -1    0    0  501    0  0.00000000000E+00 -0.00000000000E+00 -0.55939182447E+03  0.55939182447E+03  0.00000000000E+00 0. -1.
         25    2    1    2    0    0  0.22866896844E+02  0.22630169679E+02 -0.21106368835E+03  0.24744706759E+03  0.12508857329E+03 0.  0.
          5    1    3    3  502    0  0.63932893965E+02  0.36512089068E+02 -0.17830280544E+03  0.19295053876E+03  0.41800000000E+01 0.  1.
         -5    1    3    3    0  502 -0.41065997121E+02 -0.13881919390E+02 -0.32760882907E+02  0.54496528828E+02  0.41800000000E+01 0.  1.
        -11    1    1    2    0    0  0.28291854917E+02 -0.33946459588E+02 -0.14674183854E+03  0.15325129151E+03  0.00000000000E+00 0. -1.
         11    1    1    2    0    0 -0.51158751762E+02  0.11316289909E+02 -0.17632995850E+03  0.18394980446E+03  0.00000000000E+00 0.  1.
</event>
<event>
 7    1  0.2810263E-009  0.2626798E+03  0.7561462E-02  0.1105544E+00
         -1   -1    0    0    0  501 -0.00000000000E+00  0.00000000000E+00  0.10617074188E+03  0.10617074188E+03  0.00000000000E+00 0.  1.
          1   -1    0    0  501    0  0.00000000000E+00 -0.00000000000E+00 -0.82487837356E+03  0.82487837356E+03  0.00000000000E+00 0. -1.
         25    2    1    2    0    0  0.23342488392E+03  0.98805342125E+02 -0.53438816808E+03  0.60453899743E+03  0.12508802167E+03 0.  0.
          5    1    3    3  502    0  0.90702810217E+02  0.18234875686E+02 -0.32874677692E+03  0.34154271506E+03  0.41800000000E+01 0. -1.
         -5    1    3    3    0  502  0.14272207371E+03  0.80570466438E+02 -0.20564139116E+03  0.26299628238E+03  0.41800000000E+01 0. -1.
        -11    1    1    2    0    0 -0.67295115952E+02 -0.75345222460E+02 -0.80854929606E+02  0.12939495670E+03  0.00000000000E+00 0. -1.
         11    1    1    2    0    0 -0.16612976797E+03 -0.23460119665E+02 -0.10346453400E+03  0.19711516130E+03  0.00000000000E+00 0.  1.
</event>
<event>
 7    1  0.2810263E-009  0.1225010E+03  0.7561462E-02  0.1239027E+00
         -2   -1    0    0    0  501 -0.00000000000E+00  0.00000000000E+00  0.40318665549E+02  0.40318665549E+02  0.00000000000E+00 0. -1.
          2   -1    0    0  501    0  0.00000000000E+00 -0.00000000000E+00 -0.93265239183E+03  0.93265239183E+03  0.00000000000E+00 0.  1.
         25    2    1    2    0    0  0.80727696794E+02 -0.34671927084E+02 -0.80694493296E+03  0.82129576934E+03  0.12509001700E+03 0.  0.
          5    1    3    3  502    0 -0.28603181321E+02 -0.28479274145E+02 -0.29306247879E+03  0.29585858093E+03  0.41800000000E+01 0. -1.
         -5    1    3    3    0  502  0.10933087812E+03 -0.61926529382E+01 -0.51388245417E+03  0.52543718841E+03  0.41800000000E+01 0. -1.
        -11    1    1    2    0    0 -0.43125809513E+02 -0.81508145007E+00 -0.89964128967E+02  0.99769956925E+02  0.00000000000E+00 0.  1.
         11    1    1    2    0    0 -0.37601887281E+02  0.35487008534E+02  0.45753356430E+01  0.51905331114E+02  0.00000000000E+00 0. -1.
</event>
<event>
 7    1  0.2810263E-009  0.1976511E+03  0.7561462E-02  0.1151736E+00
          3   -1    0    0  501    0  0.00000000000E+00  0.00000000000E+00  0.14744191594E+04  0.14744191594E+04  0.00000000000E+00 0. -1.
         -3   -1    0    0    0  501 -0.00000000000E+00 -0.00000000000E+00 -0.34924399408E+02  0.34924399408E+02  0.00000000000E+00 0.  1.
         25    2    1    2    0    0  0.17854157622E+03 -0.43680376187E+02  0.99836469405E+03  0.10228217471E+04  0.12508874562E+03 0.  0.
          5    1    3    3  502    0  0.19166228706E+03 -0.38089316605E+02  0.78599411364E+03  0.80993175478E+03  0.41800000000E+01 0.  1.
         -5    1    3    3    0  502 -0.13120710845E+02 -0.55910595815E+01  0.21237058041E+03  0.21288999230E+03  0.41800000000E+01 0.  1.
        -11    1    1    2    0    0 -0.72499872939E+02  0.72572278732E+01  0.28586704604E+03  0.29500655407E+03  0.00000000000E+00 0. -1.
         11    1    1    2    0    0 -0.10604170328E+03  0.36423148314E+02  0.15526301992E+03  0.19151525767E+03  0.00000000000E+00 0.  1.
</event>
<event>
 7    1  0.2810263E-009  0.8294015E+02  0.7561462E-02  0.1320909E+00
          1   -1    0    0  501    0  0.00000000000E+00  0.00000000000E+00  0.12755213369E+03  0.12755213369E+03  0.00000000000E+00 0. -1.
         -1   -1    0    0    0  501 -0.00000000000E+00 -0.00000000000E+00 -0.11413776025E+03  0.11413776025E+03  0.00000000000E+00 0.  1.
         25    2    1    2    0    0 -0.41304075229E+02 -0.19790971849E+02  0.35598662095E+02  0.13788476188E+03  0.12508890286E+03 0.  0.
          5    1    3    3  502    0 -0.11961431921E+02  0.22396479411E+02  0.70882813108E+02  0.75409042811E+02  0.41800000000E+01 0. -1.
         -5    1    3    3    0  502 -0.29342643309E+02 -0.42187451260E+02 -0.35284151013E+02  0.62475719066E+02  0.41800000000E+01 0. -1.
        -11    1    1    2    0    0  0.56057157472E+02 -0.84858127059E+01  0.11028203334E+02  0.57758420944E+02  0.00000000000E+00 0. -1.
         11    1    1    2    0    0 -0.14753082243E+02  0.28276784555E+02 -0.33212491994E+02  0.46046711119E+02  0.00000000000E+00 0.  1.
</event>
<event>
 7    1  0.2810263E-009  0.1243500E+03  0.7561462E-02  0.1236089E+00
          1   -1    0    0  501    0  0.00000000000E+00  0.00000000000E+00  0.14162669113E+03  0.14162669113E+03  0.00000000000E+00 0. -1.
         -1   -1    0    0    0  501 -0.00000000000E+00 -0.00000000000E+00 -0.15076557763E+03  0.15076557763E+03  0.00000000000E+00 0.  1.
         25    2    1    2    0    0  0.88174697919E+02  0.31782584038E+02 -0.25862919430E+02  0.15843560478E+03  0.12509212708E+03 0.  0.
          5    1    3    3  502    0 -0.31390190715E+02  0.38011899258E+01 -0.14527333219E+02  0.35047238528E+02  0.41800000000E+01 0. -1.
         -5    1    3    3    0  502  0.11956488863E+03  0.27981394112E+02 -0.11335586210E+02  0.12338836625E+03  0.41800000000E+01 0. -1.
        -11    1    1    2    0    0 -0.64068637748E+02 -0.20074719888E+02  0.55302441091E+02  0.86983588752E+02  0.00000000000E+00 0. -1.
         11    1    1    2    0    0 -0.24106060171E+02 -0.11707864150E+02 -0.38578408162E+02  0.46973075226E+02  0.00000000000E+00 0.  1.
</event>
<event>
 7    1  0.2810263E-009  0.1817461E+03  0.7561462E-02  0.1166124E+00
         -2   -1    0    0    0  501 -0.00000000000E+00  0.00000000000E+00  0.19931498352E+03  0.19931498352E+03  0.00000000000E+00 0.  1.
          2   -1    0    0  501    0  0.00000000000E+00 -0.00000000000E+00 -0.21963766485E+03  0.21963766485E+03  0.00000000000E+00 0. -1.
         25    2    1    2    0    0  0.14543162868E+03 -0.10693093413E+03 -0.35645618162E+02  0.22249089567E+03  0.12508799010E+03 0.  0.
          5    1    3    3  502    0  0.13463823086E+03 -0.10225022267E+03  0.15518047294E+02  0.16982592098E+03  0.41800000000E+01 0.  1.
         -5    1    3    3    0  502  0.10793397818E+02 -0.46807114656E+01 -0.51163665456E+02  0.52664974691E+02  0.41800000000E+01 0.  1.
        -11    1    1    2    0    0 -0.40733797407E+02  0.18046667633E+02  0.36378419279E+02  0.57517943749E+02  0.00000000000E+00 0.  1.
         11    1    1    2    0    0 -0.10469783127E+03  0.88884266501E+02 -0.21055482441E+02  0.13894380895E+03  0.00000000000E+00 0. -1.
</event>
<event>
 7    1  0.2810263E-009  0.1100133E+03  0.7561462E-02  0.1260545E+00
          1   -1    0    0  501    0  0.00000000000E+00  0.00000000000E+00  0.13922926578E+03  0.13922926578E+03  0.00000000000E+00 0. -1.
         -1   -1    0    0    0  501 -0.00000000000E+00 -0.00000000000E+00 -0.14488829642E+03  0.14488829642E+03  0.00000000000E+00 0.  1.
         25    2    1    2    0    0  0.66167306741E+02 -0.31869569576E+01  0.63110890160E+02  0.15497903623E+03  0.12508896049E+03 0.  0.
          5    1    3    3  502    0  0.28612982875E+02 -0.48080052725E+02 -0.14244694468E+02  0.57885904843E+02  0.41800000000E+01 0. -1.
         -5    1    3    3    0  502  0.37554323866E+02  0.44893095767E+02  0.77355584628E+02  0.97093131383E+02  0.41800000000E+01 0. -1.
        -11    1    1    2    0    0 -0.83999371628E+02 -0.76962347154E+01 -0.67805794328E+02  0.10822546931E+03  0.00000000000E+00 0.  1.
         11    1    1    2    0    0  0.17832064887E+02  0.10883191673E+02 -0.96412647756E+00  0.20913056663E+02  0.00000000000E+00 0. -1.
</event>
<event>
 7    1  0.2810263E-009  0.1030655E+03  0.7561462E-02  0.1273979E+00
          2   -1    0    0  501    0  0.00000000000E+00  0.00000000000E+00  0.45398971893E+03  0.45398971893E+03  0.00000000000E+00 0. -1.
         -2   -1    0    0    0  501 -0.00000000000E+00 -0.00000000000E+00 -0.43070820731E+02  0.43070820731E+02  0.00000000000E+00 0.  1.
         25    2    1    2    0    0 -0.84550845137E+02 -0.11612730145E+02  0.26533338195E+03  0.30550618609E+03  0.12509406559E+03 0.  0.
          5    1    3    3  502    0 -0.69257217812E+02 -0.13574981640E+02  0.43312578511E+02  0.82911363533E+02  0.41800000000E+01 0. -1.
         -5    1    3    3    0  502 -0.15293627326E+02  0.19622514946E+01  0.22202080344E+03  0.22259482256E+03  0.41800000000E+01 0. -1.
        -11    1    1    2    0    0 -0.14248585864E+02 -0.11121854711E+02  0.46085778020E+02  0.49503704781E+02  0.00000000000E+00 0. -1.
         11    1    1    2    0    0  0.98799431001E+02  0.22734584856E+02  0.99499738221E+02  0.14205064879E+03  0.00000000000E+00 0.  1.
</event>
<event>
 7    1  0.2810263E-009  0.1206779E+03  0.7561462E-02  0.1241983E+00
          2   -1    0    0  501    0  0.00000000000E+00  0.00000000000E+00  0.22637632434E+03  0.22637632434E+03  0.00000000000E+00 0. -1.
         -2   -1    0    0    0  501 -0.00000000000E+00 -0.00000000000E+00 -0.92238350822E+02  0.92238350822E+02  0.00000000000E+00 0.  1.
         25    2    1    2    0    0  0.58360623858E+02 -0.45042897643E+02  0.84521251403E+01  0.14544591298E+03  0.12509296598E+03 0.  0.
          5    1    3    3  502    0 -0.10739234856E+02 -0.69517528866E+02  0.13880243919E+02  0.71820272599E+02  0.41800000000E+01 0.  1.
         -5    1    3    3    0  502  0.69099858714E+02  0.24474631222E+02 -0.54281187787E+01  0.73625640379E+02  0.41800000000E+01 0.  1.
        -11    1    1    2    0    0 -0.62415514713E+01  0.44913530769E+02  0.10216512292E+02  0.46481817244E+02  0.00000000000E+00 0.  1.
         11    1    1    2    0    0 -0.52119072387E+02  0.12936687409E+00  0.11546933609E+03  0.12668694494E+03  0.00000000000E+00 0. -1.
</event>
<event>
 7    1  0.3393241E-009  0.1400197E+03  0.7561462E-02  0.1213303E+00
          2   -1    0    0  501    0  0.00000000000E+00  0.00000000000E+00  0.54376376049E+03  0.54376376049E+03  0.00000000000E+00 0.  1.
         -2   -1    0    0    0  501 -0.00000000000E+00 -0.00000000000E+00 -0.38992355570E+02  0.38992355570E+02  0.00000000000E+00 0. -1.
         25    2    1    2    0    0  0.73613367788E+02  0.62069225948E+02  0.29110865285E+03  0.33115413275E+03  0.12508914879E+03 0.  0.
          5    1    3    3  502    0 -0.27665403779E+02  0.33197604255E+02  0.14248390804E+03  0.14895164298E+03  0.41800000000E+01 0. -1.
         -5    1    3    3    0  502  0.10127877157E+03  0.28871621693E+02  0.14862474481E+03  0.18220248977E+03  0.41800000000E+01 0. -1.
        -11    1    1    2    0    0 -0.69018004888E+02 -0.30181361969E-01  0.13187663999E+03  0.14884533612E+03  0.00000000000E+00 0. -1.
         11    1    1    2    0    0 -0.45953628997E+01 -0.62039044586E+02  0.81786112082E+02  0.10275664720E+03  0.00000000000E+00 0.  1.
</event>
<event>
 7    1  0.2810263E-009  0.2281219E+03  0.7561462E-02  0.1127969E+00
          2   -1    0    0  501    0  0.00000000000E+00  0.00000000000E+00  0.11170383632E+04  0.11170383632E+04  0.00000000000E+00 0. -1.
         -2   -1    0    0    0  501 -0.00000000000E+00 -0.00000000000E+00 -0.54202427830E+02  0.54202427830E+02  0.00000000000E+00 0.  1.
         25    2    1    2    0    0  0.20719673023E+03 -0.39354343265E+02  0.69871517146E+03  0.74049263058E+03  0.12508875151E+03 0.  0.
          5    1    3    3  502    0  0.20903453786E+03 -0.64707053154E+02  0.63958266990E+03  0.67599253309E+03  0.41800000000E+01 0.  1.
         -5    1    3    3    0  502 -0.18378076327E+01  0.25352709889E+02  0.59132501557E+02  0.64500097488E+02  0.41800000000E+01 0.  1.
        -11    1    1    2    0    0 -0.16398871782E+03  0.23833573041E+02  0.34146662932E+03  0.37955210145E+03  0.00000000000E+00 0. -1.
         11    1    1    2    0    0 -0.43208012408E+02  0.15520770224E+02  0.22654134609E+02  0.51196059023E+02  0.00000000000E+00 0.  1.
</event>
<event>
 7    1  0.2810263E-009  0.1020484E+03  0.7561462E-02  0.1276047E+00
          1   -1    0    0  501    0  0.00000000000E+00  0.00000000000E+00  0.10494465684E+04  0.10494465684E+04  0.00000000000E+00 0. -1.
         -1   -1    0    0    0  501 -0.00000000000E+00 -0.00000000000E+00 -0.17564357754E+02  0.17564357754E+02  0.00000000000E+00 0.  1.
         25    2    1    2    0    0 -0.18646020296E+02 -0.31493173327E+01  0.87923998031E+03  0.88829503479E+03  0.12509010190E+03 0.  0.
          5    1    3    3  502    0 -0.28388501732E+02  0.50314521814E+02  0.65376240810E+03  0.65632325631E+03  0.41800000000E+01 0. -1.
         -5    1    3    3    0  502  0.97424814364E+01 -0.53463839147E+02  0.22547757221E+03  0.23197177848E+03  0.41800000000E+01 0. -1.
        -11    1    1    2    0    0  0.50155008615E+02  0.22201318163E+02  0.76422958099E+02  0.94068549164E+02  0.00000000000E+00 0.  1.
         11    1    1    2    0    0 -0.31508988319E+02 -0.19052000830E+02  0.76219272242E+02  0.84647342201E+02  0.00000000000E+00 0. -1.
</event>
<event>
 7    1  0.2810263E-009  0.1026144E+03  0.7561462E-02  0.1274892E+00
         -2   -1    0    0    0  501 -0.00000000000E+00  0.00000000000E+00  0.49105061367E+02  0.49105061367E+02  0.00000000000E+00 0.  1.
          2   -1    0    0  501    0  0.00000000000E+00 -0.00000000000E+00 -0.34416097878E+03  0.34416097878E+03  0.00000000000E+00 0. -1.
         25    2    1    2    0    0 -0.45365497649E+02  0.58413263842E+02 -0.17650911386E+03  0.22863317265E+03  0.12509005791E+03 0.  0.
          5    1    3    3  502    0 -0.56088894213E+02 -0.24691022677E+01 -0.15184187245E+03  0.16194285149E+03  0.41800000000E+01 0. -1.
         -5    1    3    3    0  502  0.10723396564E+02  0.60882366109E+02 -0.24667241410E+02  0.66690321155E+02  0.41800000000E+01 0. -1.
        -11    1    1    2    0    0  0.42044133657E+02 -0.16883879654E+02 -0.73658592141E+01  0.45902401344E+02  0.00000000000E+00 0.  1.
         11    1    1    2    0    0  0.33213639913E+01 -0.41529384188E+02 -0.11118094434E+03  0.11873046616E+03  0.00000000000E+00 0. -1.
</event>
<event>
 7    1  0.2810263E-009  0.1732215E+03  0.7561462E-02  0.1174529E+00
         -1   -1    0    0    0  501 -0.00000000000E+00  0.00000000000E+00  0.72605449223E+02  0.72605449223E+02  0.00000000000E+00 0.  1.
          1   -1    0    0  501    0  0.00000000000E+00 -0.00000000000E+00 -0.59620212859E+03  0.59620212859E+03  0.00000000000E+00 0. -1.
         25    2    1    2    0    0  0.13871090528E+03  0.46404833083E+02 -0.11839169647E+03  0.22596179597E+03  0.12509202880E+03 0.  0.
          5    1    3    3  502    0  0.75586351599E+02 -0.37046018936E+02 -0.74238378714E+02  0.11231435056E+03  0.41800000000E+01 0. -1.
         -5    1    3    3    0  502  0.63124553684E+02  0.83450852020E+02 -0.44153317752E+02  0.11364744541E+03  0.41800000000E+01 0. -1.
        -11    1    1    2    0    0 -0.95018337628E+02 -0.59155323720E+02 -0.17179787057E+03  0.20504230086E+03  0.00000000000E+00 0.  1.
         11    1    1    2    0    0 -0.43692567655E+02  0.12750490637E+02 -0.23340711234E+03  0.23780348099E+03  0.00000000000E+00 0. -1.
</event>
<event>
 7    1  0.2810263E-009  0.1606875E+03  0.7561462E-02  0.1187923E+00
          2   -1    0    0  501    0  0.00000000000E+00  0.00000000000E+00  0.14581126811E+04  0.14581126811E+04  0.00000000000E+00 0. -1.
         -2   -1    0    0    0  501 -0.00000000000E+00 -0.00000000000E+00 -0.23716472984E+02  0.23716472984E+02  0.00000000000E+00 0.  1.
         25    2    1    2    0    0  0.10805505947E+03  0.92440820313E+02  0.58830934887E+03  0.61804223865E+03  0.12508843933E+03 0.  0.
          5    1    3    3  502    0  0.23193674100E+02  0.63464656310E+02  0.43617354405E+03  0.44139612827E+03  0.41800000000E+01 0.  1.
         -5    1    3    3    0  502  0.84861385366E+02  0.28976164003E+02  0.15213580482E+03  0.17664611038E+03  0.41800000000E+01 0.  1.
        -11    1    1    2    0    0  0.40407703902E+01 -0.39907016071E+02  0.10441250495E+03  0.11185199572E+03  0.00000000000E+00 0.  1.
         11    1    1    2    0    0 -0.11209582986E+03 -0.52533804242E+02  0.74167435433E+03  0.75193491975E+03  0.00000000000E+00 0. -1.
</event>
<event>
 7    1  0.2810263E-009  0.6933426E+02  0.7561462E-02  0.1362372E+00
          2   -1    0    0  501    0  0.00000000000E+00  0.00000000000E+00  0.28009936408E+03  0.28009936408E+03  0.00000000000E+00 0. -1.
         -2   -1    0    0    0  501 -0.00000000000E+00 -0.00000000000E+00 -0.62823567727E+02  0.62823567727E+02  0.00000000000E+00 0.  1.
         25    2    1    2    0    0 -0.18435260075E+02  0.34350346141E+02  0.20616150973E+03  0.24427512410E+03  0.12509181854E+03 0.  0.
          5    1    3    3  502    0 -0.14724756232E+02 -0.15440308087E+02  0.19056374913E+03  0.19179999073E+03  0.41800000000E+01 0.  1.
         -5    1    3    3    0  502 -0.37105038429E+01  0.49790654228E+02  0.15597760604E+02  0.52475133379E+02  0.41800000000E+01 0.  1.
        -11    1    1    2    0    0  0.31614290752E+02 -0.41231155405E+02  0.40392912335E+02  0.65810781204E+02  0.00000000000E+00 0. -1.
         11    1    1    2    0    0 -0.13179030677E+02  0.68808092643E+01 -0.29278625713E+02  0.32837026500E+02  0.00000000000E+00 0.  1.
</event>
<event>
 7    1  0.2810263E-009  0.9705347E+02  0.7561462E-02  0.1286617E+00
          2   -1    0    0  501    0  0.00000000000E+00  0.00000000000E+00  0.86865436374E+02  0.86865436374E+02  0.00000000000E+00 0. -1.
         -2   -1    0    0    0  501 -0.00000000000E+00 -0.00000000000E+00 -0.14015278666E+03  0.14015278666E+03  0.00000000000E+00 0.  1.
         25    2    1    2    0    0 -0.19303669033E+02 -0.55151915978E+01 -0.19548427987E+02  0.12819331866E+03  0.12509331291E+03 0.  0.
          5    1    3    3  502    0 -0.63268745634E+01  0.59623188391E+02 -0.76529323128E+01  0.60588725920E+02  0.41800000000E+01 0. -1.
         -5    1    3    3    0  502 -0.12976794470E+02 -0.65138379988E+02 -0.11895495674E+02  0.67604592740E+02  0.41800000000E+01 0. -1.
        -11    1    1    2    0    0  0.43156343546E+02  0.61511245336E+01 -0.52667295022E+02  0.68367757651E+02  0.00000000000E+00 0.  1.
         11    1    1    2    0    0 -0.23852674513E+02 -0.63593293584E+00  0.18928372727E+02  0.30457146718E+02  0.00000000000E+00 0. -1.
</event>
<event>
 7    1  0.2810263E-009  0.1797931E+03  0.7561462E-02  0.1168003E+00
          2   -1    0    0  501    0  0.00000000000E+00  0.00000000000E+00  0.26167478326E+03  0.26167478326E+03  0.00000000000E+00 0.  1.
         -2   -1    0    0    0  501 -0.00000000000E+00 -0.00000000000E+00 -0.16648504523E+03  0.16648504523E+03  0.00000000000E+00 0. -1.
         25    2    1    2    0    0  0.53815752599E+02 -0.15264346732E+03 -0.27435713083E+02  0.20638694153E+03  0.12508672166E+03 0.  0.
          5    1    3    3  502    0  0.41708077365E+02 -0.47491710195E+01 -0.39050834887E+02  0.57485288973E+02  0.41800000000E+01 0. -1.
         -5    1    3    3    0  502  0.12107675234E+02 -0.14789429630E+03  0.11615121805E+02  0.14890165255E+03  0.41800000000E+01 0. -1.
        -11    1    1    2    0    0 -0.40269899299E+02  0.44705504021E+02  0.32362295691E+01  0.60255456692E+02  0.00000000000E+00 0. -1.
         11    1    1    2    0    0 -0.13545853300E+02  0.10793796330E+03  0.11938922154E+03  0.16151743028E+03  0.00000000000E+00 0.  1.
</event>
<event>
 7    1  0.2810263E-009  0.9333823E+02  0.7561462E-02  0.1294963E+00
          2   -1    0    0  501    0  0.00000000000E+00  0.00000000000E+00  0.47412614523E+03  0.47412614523E+03  0.00000000000E+00 0. -1.
         -2   -1    0    0    0  501 -0.00000000000E+00 -0.00000000000E+00 -0.34912133708E+02  0.34912133708E+02  0.00000000000E+00 0.  1.
         25    2    1    2    0    0 -0.31331808297E+02  0.50458349018E+02  0.17822149487E+03  0.22569498363E+03  0.12509035615E+03 0.  0.
          5    1    3    3  502    0  0.11226679437E+02  0.22844507272E+02 -0.12237581257E+02  0.28550667921E+02  0.41800000000E+01 0.  1.
         -5    1    3    3    0  502 -0.42558487734E+02  0.27613841746E+02  0.19045907613E+03  0.19714431571E+03  0.41800000000E+01 0.  1.
        -11    1    1    2    0    0 -0.27096867302E+02  0.70458043286E+01  0.57360857255E+02  0.63829080530E+02  0.00000000000E+00 0.  1.
         11    1    1    2    0    0  0.58428675599E+02 -0.57504153346E+02  0.20363165939E+03  0.21951421478E+03  0.00000000000E+00 0. -1.
</event>
