<event>
 7    1  0.2522928E-009  0.1292951E+03  0.7561462E-02  0.1228505E+00
          2   -1    0    0  501    0  0.00000000000E+00  0.00000000000E+00  0.78767620031E+03  0.78767620031E+03  0.00000000000E+00 0. -1.
         -2   -1    0    0    0  501 -0.00000000000E+00 -0.00000000000E+00 -0.22331554351E+02  0.22331554351E+02  0.00000000000E+00 0.  1.
         25    2    1    2    0    0  0.42221768619E+02 -0.56705172638E+02  0.35808092997E+03  0.38583083908E+03  0.12508129210E+03 0.  0.
          5    1    3    3  502    0 -0.76030604615E+01 -0.83045944642E+02  0.25434094726E+03  0.26769614361E+03  0.41800000000E+01 0.  1.
         -5    1    3    3    0  502  0.49824829081E+02  0.26340772004E+02  0.10373998270E+03  0.11813469547E+03  0.41800000000E+01 0.  1.
        -11    1    1    2    0    0 -0.71473064477E+02  0.25701861299E+02  0.25875050155E+03  0.26966795633E+03  0.00000000000E+00 0. -1.
         11    1    1    2    0    0  0.29251295857E+02  0.31003311339E+02  0.14851321444E+03  0.15450895925E+03  0.00000000000E+00 0.  1.
</event>
<event>
 7    1  0.2522928E-009  0.1542945E+03  0.7561462E-02  0.1195293E+00
         -1   -1    0    0    0  501 -0.00000000000E+00  0.00000000000E+00  0.45418504630E+03  0.45418504630E+03  0.00000000000E+00 0.  1.
          1   -1    0    0  501    0  0.00000000000E+00 -0.00000000000E+00 -0.65433347981E+02  0.65433347981E+02  0.00000000000E+00 0. -1.
         25    2    1    2    0    0 -0.80096540309E+02 -0.10099449425E+03  0.15135517107E+03  0.23488741224E+03  0.12509342500E+03 0.  0.
          5    1    3    3  502    0 -0.93528158755E+01  0.29412303937E+02  0.28526669651E+02  0.42235081024E+02  0.41800000000E+01 0. -1.
         -5    1    3    3    0  502 -0.70743724434E+02 -0.13040679819E+03  0.12282850142E+03  0.19265233121E+03  0.41800000000E+01 0. -1.
        -11    1    1    2    0    0  0.52084973085E+02  0.61256173948E+02  0.21805319431E+03  0.23240559119E+03  0.00000000000E+00 0.  1.
         11    1    1    2    0    0  0.28011567224E+02  0.39738320300E+02  0.19343332931E+02  0.52325390849E+02  0.00000000000E+00 0. -1.
</event>
<event>
 7    1  0.2522928E-009  0.2788240E+03  0.7561462E-02  0.1096333E+00
          1   -1    0    0  501    0  0.00000000000E+00  0.00000000000E+00  0.55757606068E+02  0.55757606068E+02  0.00000000000E+00 0. -1.
         -1   -1    0    0    0  501 -0.00000000000E+00 -0.00000000000E+00 -0.16565960390E+04  0.16565960390E+04  0.00000000000E+00 0.  1.
         25    2    1    2    0    0 -0.21791992816E+03  0.16139516428E+03 -0.57985012256E+03  0.65223509731E+03  0.12508782272E+03 0.  0.
          5    1    3    3  502    0 -0.45815044896E+02  0.58754911785E+02 -0.62234045635E+02  0.97168445669E+02  0.41800000000E+01 0.  1.
         -5    1    3    3    0  502 -0.17210488326E+03  0.10264025250E+03 -0.51761607693E+03  0.55506665164E+03  0.41800000000E+01 0.  1.
        -11    1    1    2    0    0  0.12812444087E+03 -0.14098798775E+03 -0.75404612163E+03  0.77773969847E+03  0.00000000000E+00 0.  1.
         11    1    1    2    0    0  0.89795487287E+02 -0.20407176531E+02 -0.26694218876E+03  0.28237884930E+03  0.00000000000E+00 0. -1.
</event>
<event>
 7    1  0.2522928E-009  0.1045846E+03  0.7561462E-02  0.1270940E+00
          2   -1    0    0  501    0  0.00000000000E+00  0.00000000000E+00  0.31099048917E+03  0.31099048917E+03  0.00000000000E+00 0.  1.
         -2   -1    0    0    0  501 -0.00000000000E+00 -0.00000000000E+00 -0.52774506469E+02  0.52774506469E+02  0.00000000000E+00 0. -1.
         25    2    1    2    0    0 -0.33471111528E+02  0.45174992978E+02  0.89642877478E+02  0.16384403231E+03  0.12509167095E+03 0.  0.
          5    1    3    3  502    0 -0.77989766435E+02  0.32060691252E+02  0.79896461329E+02  0.11623772419E+03  0.41800000000E+01 0.  1.
         -5    1    3    3    0  502  0.44518654907E+02  0.13114301726E+02  0.97464161491E+01  0.47606308114E+02  0.41800000000E+01 0.  1.
        -11    1    1    2    0    0 -0.14749021224E+02 -0.16114681609E+02 -0.36527359554E+00  0.21848341246E+02  0.00000000000E+00 0. -1.
         11    1    1    2    0    0  0.48220132751E+02 -0.29060311370E+02  0.16893837881E+03  0.17807262208E+03  0.00000000000E+00 0.  1.
</event>
<event>
 7    1  0.2522928E-009  0.1504064E+03  0.7561462E-02  0.1199974E+00
          1   -1    0    0  501    0  0.00000000000E+00  0.00000000000E+00  0.70103708408E+03  0.70103708408E+03  0.00000000000E+00 0. -1.
         -1   -1    0    0    0  501 -0.00000000000E+00 -0.00000000000E+00 -0.33108017669E+02  0.33108017669E+02  0.00000000000E+00 0.  1.
         25    2    1    2    0    0 -0.10504451709E+03 -0.15574370553E+02  0.37982302677E+03  0.41374517043E+03  0.12507047132E+03 0.  0.
          5    1    3    3  502    0 -0.13223298083E+03 -0.45652311635E+01  0.28183839248E+03  0.31137879573E+03  0.41800000000E+01 0.  1.
         -5    1    3    3    0  502  0.27188463744E+02 -0.11009139390E+02  0.97984634296E+02  0.10236637470E+03  0.41800000000E+01 0.  1.
        -11    1    1    2    0    0  0.10077218579E+03  0.44073263848E+02  0.24490333284E+03  0.26846811440E+03  0.00000000000E+00 0.  1.
         11    1    1    2    0    0  0.42723313041E+01 -0.28498893295E+02  0.43202706796E+02  0.51931816917E+02  0.00000000000E+00 0. -1.
</event>
<event>
 7    1  0.2522928E-009  0.3711087E+03  0.7561462E-02  0.1054270E+00
         -2   -1    0    0    0  501 -0.00000000000E+00  0.00000000000E+00  0.26994548257E+03  0.26994548257E+03  0.00000000000E+00 0.  1.
          2   -1    0    0  501    0  0.00000000000E+00 -0.00000000000E+00 -0.52078643501E+03  0.52078643501E+03  0.00000000000E+00 0. -1.
         25    2    1    2    0    0 -0.30820055082E+03 -0.18182009143E+03 -0.10169978549E+03  0.39247356382E+03  0.12508607740E+03 0.  0.
          5    1    3    3  502    0 -0.17975621852E+03 -0.16415381784E+03 -0.98715077982E+02  0.26271831499E+03  0.41800000000E+01 0. -1.
         -5    1    3    3    0  502 -0.12844433229E+03 -0.17666273588E+02 -0.29847075031E+01  0.12975524883E+03  0.41800000000E+01 0. -1.
        -11    1    1    2    0    0  0.18258409116E+03  0.15739447664E+03 -0.10435608350E+03  0.26267882249E+03  0.00000000000E+00 0.  1.
         11    1    1    2    0    0  0.12561645966E+03  0.24425614789E+02 -0.44785083459E+02  0.13557953126E+03  0.00000000000E+00 0. -1.
</event>
<event>
 7    1  0.2522928E-009  0.1018427E+03  0.7561462E-02  0.1276468E+00
         -2   -1    0    0    0  501 -0.00000000000E+00  0.00000000000E+00  0.62889471128E+02  0.62889471128E+02  0.00000000000E+00 0.  1.
          2   -1    0    0  501    0  0.00000000000E+00 -0.00000000000E+00 -0.21244592863E+03  0.21244592863E+03  0.00000000000E+00 0. -1.
         25    2    1    2    0    0  0.35123716312E+02 -0.54211764257E+01 -0.11143115954E+03  0.17124803140E+03  0.12508365337E+03 0.  0.
          5    1    3    3  502    0 -0.37321897875E+01  0.56332954890E+02 -0.54838780605E+02  0.78816846584E+02  0.41800000000E+01 0. -1.
         -5    1    3    3    0  502  0.38855906099E+02 -0.61754131316E+02 -0.56592378937E+02  0.92431184819E+02  0.41800000000E+01 0. -1.
        -11    1    1    2    0    0  0.18683303941E+02 -0.46471411668E+01  0.17519229933E+02  0.26030466470E+02  0.00000000000E+00 0.  1.
         11    1    1    2    0    0 -0.53807020253E+02  0.10068317592E+02 -0.55644527899E+02  0.78056901890E+02  0.00000000000E+00 0. -1.
</event>
<event>
 7    1  0.2522928E-009  0.2110291E+03  0.7561462E-02  0.1140754E+00
         -1   -1    0    0    0  501 -0.00000000000E+00  0.00000000000E+00  0.84693978291E+02  0.84693978291E+02  0.00000000000E+00 0.  1.
          1   -1    0    0  501    0  0.00000000000E+00 -0.00000000000E+00 -0.64341974145E+03  0.64341974145E+03  0.00000000000E+00 0. -1.
         25    2    1    2    0    0  0.18948591799E+03  0.10842395380E+02 -0.40914992826E+03  0.46805361255E+03  0.12509216514E+03 0.  0.
          5    1    3    3  502    0 -0.10384027323E+02  0.12982971602E+02 -0.61931009448E+01  0.18226696749E+02  0.41800000000E+01 0.  1.
         -5    1    3    3    0  502  0.19986994531E+03 -0.21405762218E+01 -0.40295682731E+03  0.44982691580E+03  0.41800000000E+01 0.  1.
        -11    1    1    2    0    0 -0.12425298740E+03 -0.44001203413E+02 -0.12807927076E+03  0.18379121409E+03  0.00000000000E+00 0.  1.
         11    1    1    2    0    0 -0.65232930588E+02  0.33158808033E+02 -0.21496564139E+02  0.76268893089E+02  0.00000000000E+00 0. -1.
</event>
<event>
 7    1  0.2522928E-009  0.1735998E+03  0.7561462E-02  0.1174145E+00
          1   -1    0    0  501    0  0.00000000000E+00  0.00000000000E+00  0.81143652413E+03  0.81143652413E+03  0.00000000000E+00 0. -1.
         -1   -1    0    0    0  501 -0.00000000000E+00 -0.00000000000E+00 -0.52728282881E+02  0.52728282881E+02  0.00000000000E+00 0.  1.
         25    2    1    2    0    0  0.11339875833E+02  0.15072784936E+03  0.51794006563E+03  0.55385621430E+03  0.12508923682E+03 0.  0.
          5    1    3    3  502    0  0.59968716770E+02  0.72366600490E+02  0.17473282436E+03  0.19844950029E+03  0.41800000000E+01 0.  1.
         -5    1    3    3    0  502 -0.48628840937E+02  0.78361248874E+02  0.34320724127E+03  0.35540671400E+03  0.41800000000E+01 0.  1.
        -11    1    1    2    0    0 -0.27698651374E+02 -0.38722081586E+02  0.38816885630E+01  0.47766959254E+02  0.00000000000E+00 0.  1.
         11    1    1    2    0    0  0.16358775540E+02 -0.11200576778E+03  0.23688648705E+03  0.26254163346E+03  0.00000000000E+00 0. -1.
</event>
<event>
 7    1  0.2522928E-009  0.5404424E+02  0.7561462E-02  0.1424674E+00
          1   -1    0    0  501    0  0.00000000000E+00  0.00000000000E+00  0.39234754232E+02  0.39234754232E+02  0.00000000000E+00 0. -1.
         -1   -1    0    0    0  501 -0.00000000000E+00 -0.00000000000E+00 -0.33096574445E+03  0.33096574445E+03  0.00000000000E+00 0.  1.
         25    2    1    2    0    0  0.33345660285E+02 -0.81797654155E+01 -0.18264356480E+03  0.22401956253E+03  0.12508897238E+03 0.  0.
          5    1    3    3  502    0  0.11983803379E+02 -0.62991062627E+01  0.17595984765E+02  0.22591621522E+02  0.41800000000E+01 0. -1.
         -5    1    3    3    0  502  0.21361856906E+02 -0.18806591528E+01 -0.20023954956E+03  0.20142794101E+03  0.41800000000E+01 0. -1.
        -11    1    1    2    0    0 -0.52403367568E+02  0.39652460765E+01 -0.11445040588E+03  0.12593939620E+03  0.00000000000E+00 0.  1.
         11    1    1    2    0    0  0.19057707282E+02  0.42145193390E+01  0.53629804627E+01  0.20241539950E+02  0.00000000000E+00 0. -1.
</event>
<event>
 7    1  0.2522928E-009  0.1028670E+03  0.7561462E-02  0.1274380E+00
         -3   -1    0    0    0  501 -0.00000000000E+00  0.00000000000E+00  0.26701563160E+03  0.26701563160E+03  0.00000000000E+00 0.  1.
          3   -1    0    0  501    0  0.00000000000E+00 -0.00000000000E+00 -0.52210332614E+02  0.52210332614E+02  0.00000000000E+00 0. -1.
         25    2    1    2    0    0  0.52567273742E+01 -0.11863006731E+02  0.18651958685E+03  0.22495755985E+03  0.12509189959E+03 0.  0.
          5    1    3    3  502    0  0.39310838980E+02 -0.53668224949E+02  0.13353093549E+03  0.14924343726E+03  0.41800000000E+01 0.  1.
         -5    1    3    3    0  502 -0.34054111606E+02  0.41805218218E+02  0.52988651352E+02  0.75714122590E+02  0.41800000000E+01 0.  1.
        -11    1    1    2    0    0 -0.17991551805E+02 -0.33420497863E+02  0.28104333378E+02  0.47227949018E+02  0.00000000000E+00 0.  1.
         11    1    1    2    0    0  0.12734824431E+02  0.45283504594E+02  0.18137876739E+00  0.47040455353E+02  0.00000000000E+00 0. -1.
</event>
<event>
 7    1  0.2522928E-009  0.1101528E+03  0.7561462E-02  0.1260287E+00
          2   -1    0    0  501    0  0.00000000000E+00  0.00000000000E+00  0.55184088859E+03  0.55184088859E+03  0.00000000000E+00 0. -1.
         -2   -1    0    0    0  501 -0.00000000000E+00 -0.00000000000E+00 -0.34537614440E+02  0.34537614440E+02  0.00000000000E+00 0.  1.
         25    2    1    2    0    0 -0.52984163135E+02  0.31473656202E+02  0.15838411121E+03  0.21102419714E+03  0.12509105690E+03 0.  0.
          5    1    3    3  502    0  0.28318872219E+02  0.15603043402E+02  0.11059214980E+03  0.11529748256E+03  0.41800000000E+01 0. -1.
         -5    1    3    3    0  502 -0.81303035354E+02  0.15870612799E+02  0.47791961402E+02  0.95726714573E+02  0.41800000000E+01 0. -1.
        -11    1    1    2    0    0 -0.48125754865E+01  0.24102673226E+02  0.44121815062E+02  0.50505784855E+02  0.00000000000E+00 0.  1.
         11    1    1    2    0    0  0.57796738621E+02 -0.55576329427E+02  0.31479734788E+03  0.32484852104E+03  0.00000000000E+00 0. -1.
</event>
<event>
 7    1  0.2522928E-009  0.1036951E+03  0.7561462E-02  0.1272712E+00
          2   -1    0    0  501    0  0.00000000000E+00  0.00000000000E+00  0.73880404077E+02  0.73880404077E+02  0.00000000000E+00 0.  1.
         -2   -1    0    0    0  501 -0.00000000000E+00 -0.00000000000E+00 -0.22392175933E+03  0.22392175933E+03  0.00000000000E+00 0. -1.
         25    2    1    2    0    0 -0.23646962335E+02  0.17924338242E+02 -0.15603323328E+03  0.20216903027E+03  0.12508191790E+03 0.  0.
          5    1    3    3  502    0  0.47250633807E+02 -0.13118661986E+02 -0.77663361437E+02  0.91944503898E+02  0.41800000000E+01 0. -1.
         -5    1    3    3    0  502 -0.70897596142E+02  0.31043000228E+02 -0.78369871838E+02  0.11022452637E+03  0.41800000000E+01 0. -1.
        -11    1    1    2    0    0  0.14612910064E+02  0.29216431018E+02 -0.22638133846E+02  0.39744459815E+02  0.00000000000E+00 0.  1.
         11    1    1    2    0    0  0.90340522715E+01 -0.47140769260E+02  0.28630011865E+02  0.55888673327E+02  0.00000000000E+00 0. -1.
</event>
<event>
 7    1  0.2522928E-009  0.1160617E+03  0.7561462E-02  0.1249739E+00
         -1   -1    0    0    0  501 -0.00000000000E+00  0.00000000000E+00  0.18644733697E+03  0.18644733697E+03  0.00000000000E+00 0.  1.
          1   -1    0    0  501    0  0.00000000000E+00 -0.00000000000E+00 -0.73357200636E+02  0.73357200636E+02  0.00000000000E+00 0. -1.
         25    2    1    2    0    0 -0.32872069273E+02  0.27673494604E+02  0.77371001509E+02  0.15323285410E+03  0.12509052905E+03 0.  0.
          5    1    3    3  502    0 -0.97259217003E+01 -0.49877567307E+02  0.25447029678E+02  0.56985866606E+02  0.41800000000E+01 0. -1.
         -5    1    3    3    0  502 -0.23146147573E+02  0.77551061910E+02  0.51923971831E+02  0.96246987494E+02  0.41800000000E+01 0. -1.
        -11    1    1    2    0    0  0.61801843779E+02 -0.33920790406E+02  0.28945791002E+02  0.76209886058E+02  0.00000000000E+00 0. -1.
         11    1    1    2    0    0 -0.28929774505E+02  0.62472958025E+01  0.67733438232E+01  0.30361797449E+02  0.00000000000E+00 0.  1.
</event>
<event>
 7    1  0.2522928E-009  0.1709268E+03  0.7561462E-02  0.1176885E+00
         -2   -1    0    0    0  501 -0.00000000000E+00  0.00000000000E+00  0.30184343834E+03  0.30184343834E+03  0.00000000000E+00 0.  1.
          2   -1    0    0  501    0  0.00000000000E+00 -0.00000000000E+00 -0.11344845002E+03  0.11344845002E+03  0.00000000000E+00 0. -1.
         25    2    1    2    0    0  0.93454839635E+02  0.10323729089E+03  0.43642672425E+02  0.19220793855E+03  0.12508982175E+03 0.  0.
          5    1    3    3  502    0  0.19338121290E+02 -0.20082861468E+02  0.39091333778E+02  0.48196359160E+02  0.41800000000E+01 0.  1.
         -5    1    3    3    0  502  0.74116718345E+02  0.12332015235E+03  0.45513386469E+01  0.14401157939E+03  0.41800000000E+01 0.  1.
        -11    1    1    2    0    0 -0.11164065544E+03 -0.69815154464E+02  0.11079153079E+03  0.17208298880E+03  0.00000000000E+00 0.  1.
         11    1    1    2    0    0  0.18185815806E+02 -0.33422136422E+02  0.33960785102E+02  0.51000961013E+02  0.00000000000E+00 0. -1.
</event>
<event>
 7    1  0.2522928E-009  0.1566592E+03  0.7561462E-02  0.1192521E+00
         -1   -1    0    0    0  501 -0.00000000000E+00  0.00000000000E+00  0.56271751391E+03  0.56271751391E+03  0.00000000000E+00 0.  1.
          1   -1    0    0  501    0  0.00000000000E+00 -0.00000000000E+00 -0.54514592501E+02  0.54514592501E+02  0.00000000000E+00 0. -1.
         25    2    1    2    0    0  0.13289343108E+03  0.32662130753E+02  0.28523354580E+03  0.34019928451E+03  0.12509955523E+03 0.  0.
          5    1    3    3  502    0  0.10060460176E+03  0.62116391068E+02  0.11722930677E+03  0.16655303870E+03  0.41800000000E+01 0. -1.
         -5    1    3    3    0  502  0.32288829317E+02 -0.29454260315E+02  0.16800423904E+03  0.17364624581E+03  0.41800000000E+01 0. -1.
        -11    1    1    2    0    0 -0.10020362297E+03  0.61107114172E+01  0.19448522736E+03  0.21886665007E+03  0.00000000000E+00 0.  1.
         11    1    1    2    0    0 -0.32689808111E+02 -0.38772842170E+02  0.28484148245E+02  0.58166171832E+02  0.00000000000E+00 0. -1.
</event>
<event>
 7    1  0.2522928E-009  0.1211961E+03  0.7561462E-02  0.1241137E+00
          1   -1    0    0  501    0  0.00000000000E+00  0.00000000000E+00  0.29344439253E+03  0.29344439253E+03  0.00000000000E+00 0. -1.
         -1   -1    0    0    0  501 -0.00000000000E+00 -0.00000000000E+00 -0.78235174682E+02  0.78235174682E+02  0.00000000000E+00 0.  1.
         25    2    1    2    0    0 -0.89983592789E+02 -0.38966970771E+01  0.18189882640E+03  0.23841767840E+03  0.12507427836E+03 0.  0.
          5    1    3    3  502    0  0.30447357306E+02  0.51525151221E+01  0.54801477830E+02  0.63041766721E+02  0.41800000000E+01 0. -1.
         -5    1    3    3    0  502 -0.12043095009E+03 -0.90492121992E+01  0.12709734857E+03  0.17537591168E+03  0.41800000000E+01 0. -1.
        -11    1    1    2    0    0  0.73907428080E+02  0.27233422104E+00  0.64429430611E+02  0.98048628854E+02  0.00000000000E+00 0. -1.
         11    1    1    2    0    0  0.16076164708E+02  0.36243628561E+01 -0.31119039170E+02  0.35213259955E+02  0.00000000000E+00 0.  1.
</event>
<event>
 7    1  0.2522928E-009  0.1462326E+03  0.7561462E-02  0.1205180E+00
          1   -1    0    0  501    0  0.00000000000E+00  0.00000000000E+00  0.61892472618E+02  0.61892472618E+02  0.00000000000E+00 0. -1.
         -1   -1    0    0    0  501 -0.00000000000E+00 -0.00000000000E+00 -0.36251343950E+03  0.36251343950E+03  0.00000000000E+00 0.  1.
         25    2    1    2    0    0 -0.61115350096E+01  0.96141427345E+02 -0.12322230929E+03  0.20027990923E+03  0.12509108530E+03 0.  0.
          5    1    3    3  502    0 -0.22543289979E+02  0.12244699865E+03 -0.84676944560E+02  0.15062909659E+03  0.41800000000E+01 0. -1.
         -5    1    3    3    0  502  0.16431754970E+02 -0.26305571302E+02 -0.38545364728E+02  0.49650812631E+02  0.41800000000E+01 0. -1.
        -11    1    1    2    0    0  0.50162117717E+02 -0.34706707445E+02 -0.70964796275E+02  0.93577753264E+02  0.00000000000E+00 0. -1.
         11    1    1    2    0    0 -0.44050582707E+02 -0.61434719900E+02 -0.10643386132E+03  0.13054824963E+03  0.00000000000E+00 0.  1.
</event>
<event>
 7    1  0.2522928E-009  0.1229064E+03  0.7561462E-02  0.1238378E+00
         -2   -1    0    0    0  501 -0.00000000000E+00  0.00000000000E+00  0.15389859648E+03  0.15389859648E+03  0.00000000000E+00 0. -1.
          2   -1    0    0  501    0  0.00000000000E+00 -0.00000000000E+00 -0.11561482035E+03  0.11561482035E+03  0.00000000000E+00 0.  1.
         25    2    1    2    0    0  0.22280759616E+02 -0.74064871389E+02 -0.24244950197E+01  0.14709814913E+03  0.12509975970E+03 0.  0.
          5    1    3    3  502    0 -0.13055793429E+02 -0.92334254549E+02  0.27308321377E+02  0.97258856264E+02  0.41800000000E+01 0.  1.
         -5    1    3    3    0  502  0.35336553044E+02  0.18269383160E+02 -0.29732816397E+02  0.49839292862E+02  0.41800000000E+01 0.  1.
        -11    1    1    2    0    0 -0.26851175407E+02 -0.97212853179E+01  0.22974019925E+02  0.36650983622E+02  0.00000000000E+00 0.  1.
         11    1    1    2    0    0  0.45704157915E+01  0.83786156707E+02  0.17734251226E+02  0.85764284074E+02  0.00000000000E+00 0. -1.
</event>
<event>
 7    1  0.2522928E-009  0.1211890E+03  0.7561462E-02  0.1241148E+00
         -1   -1    0    0    0  501 -0.00000000000E+00  0.00000000000E+00  0.26851483183E+02  0.26851483183E+02  0.00000000000E+00 0.  1.
          1   -1    0    0  501    0  0.00000000000E+00 -0.00000000000E+00 -0.60268684219E+03  0.60268684219E+03  0.00000000000E+00 0. -1.
         25    2    1    2    0    0  0.11350296238E+02  0.10846612645E+02 -0.32313578936E+03  0.34685797102E+03  0.12508891024E+03 0.  0.
          5    1    3    3  502    0 -0.54420264227E+02 -0.74361924224E+01 -0.11006477998E+03  0.12307960964E+03  0.41800000000E+01 0.  1.
         -5    1    3    3    0  502  0.65770560465E+02  0.18282805068E+02 -0.21307100938E+03  0.22377836138E+03  0.41800000000E+01 0.  1.
        -11    1    1    2    0    0 -0.44245653438E+02 -0.50656305866E+02 -0.92535248058E+02  0.11439629061E+03  0.00000000000E+00 0.  1.
         11    1    1    2    0    0  0.32895357200E+02  0.39809693221E+02 -0.16016432159E+03  0.16828406375E+03  0.00000000000E+00 0. -1.
</event>
<event>
 7    1  0.2522928E-009  0.1019972E+03  0.7561462E-02  0.1276151E+00
          1   -1    0    0  501    0  0.00000000000E+00  0.00000000000E+00  0.49969149762E+03  0.49969149762E+03  0.00000000000E+00 0. -1.
         -1   -1    0    0    0  501 -0.00000000000E+00 -0.00000000000E+00 -0.25029642053E+02  0.25029642053E+02  0.00000000000E+00 0.  1.
         25    2    1    2    0    0  0.14110817059E+02  0.28329653505E+02  0.23925651281E+03  0.27183223152E+03  0.12508956290E+03 0.  0.
          5    1    3    3  502    0 -0.28711849658E+02 -0.30971713129E+02  0.35586021326E+02  0.55384606514E+02  0.41800000000E+01 0. -1.
         -5    1    3    3    0  502  0.42822666717E+02  0.59301366634E+02  0.20367049148E+03  0.21644762500E+03  0.41800000000E+01 0. -1.
        -11    1    1    2    0    0 -0.35558210391E+02 -0.47628004340E+02  0.11975396109E+03  0.13369302271E+03  0.00000000000E+00 0.  1.
         11    1    1    2    0    0  0.21447393332E+02  0.19298350835E+02  0.11565138166E+03  0.11919588544E+03  0.00000000000E+00 0. -1.
</event>
<event>
 7    1  0.2522928E-009  0.1607516E+03  0.7561462E-02  0.1187851E+00
          1   -1    0    0  501    0  0.00000000000E+00  0.00000000000E+00  0.90937060049E+03  0.90937060049E+03  0.00000000000E+00 0. -1.
         -1   -1    0    0    0  501 -0.00000000000E+00 -0.00000000000E+00 -0.36310783176E+02  0.36310783176E+02  0.00000000000E+00 0.  1.
         25    2    1    2    0    0  0.73064440316E+01 -0.11947989040E+03  0.67199095406E+03  0.69393436954E+03  0.12507693055E+03 0.  0.
          5    1    3    3  502    0  0.65398137751E+02 -0.68428228897E+02  0.40515727185E+03  0.41608800303E+03  0.41800000000E+01 0.  1.
         -5    1    3    3    0  502 -0.58091693720E+02 -0.51051661499E+02  0.26683368221E+03  0.27784636651E+03  0.41800000000E+01 0.  1.
        -11    1    1    2    0    0 -0.28292896483E+02  0.30013443656E+00  0.23067906865E+02  0.36506251509E+02  0.00000000000E+00 0.  1.
         11    1    1    2    0    0  0.20986452452E+02  0.11917975596E+03  0.17800095638E+03  0.21524076261E+03  0.00000000000E+00 0. -1.
</event>
<event>
 7    1  0.2522928E-009  0.2161972E+03  0.7561462E-02  0.1136750E+00
          1   -1    0    0  501    0  0.00000000000E+00  0.00000000000E+00  0.26439460540E+03  0.26439460540E+03  0.00000000000E+00 0. -1.
         -1   -1    0    0    0  501 -0.00000000000E+00 -0.00000000000E+00 -0.18844707750E+03  0.18844707750E+03  0.00000000000E+00 0.  1.
         25    2    1    2    0    0  0.16309364963E+02  0.19354014066E+03  0.28869550824E+02  0.23281975387E+03  0.12509118831E+03 0.  0.
          5    1    3    3  502    0 -0.24254605453E+01  0.20107284103E+03  0.45635733303E+02  0.20624321277E+03  0.41800000000E+01 0. -1.
         -5    1    3    3    0  502  0.18734825508E+02 -0.75327003734E+01 -0.16766182479E+02  0.26576541097E+02  0.41800000000E+01 0. -1.
        -11    1    1    2    0    0 -0.33242877164E+02 -0.25878387365E+02  0.27648859645E+02  0.50390864791E+02  0.00000000000E+00 0. -1.
         11    1    1    2    0    0  0.16933512201E+02 -0.16766175329E+03  0.19429117432E+02  0.16963106425E+03  0.00000000000E+00 0.  1.
</event>
<event>
 7    1  0.2522928E-009  0.8614694E+02  0.7561462E-02  0.1312460E+00
         -1   -1    0    0    0  501 -0.00000000000E+00  0.00000000000E+00  0.11017716034E+03  0.11017716034E+03  0.00000000000E+00 0.  1.
          1   -1    0    0  501    0  0.00000000000E+00 -0.00000000000E+00 -0.11696990013E+03  0.11696990013E+03  0.00000000000E+00 0. -1.
         25    2    1    2    0    0 -0.21192479898E+01  0.24673908873E+02 -0.31904206105E+02  0.13145479972E+03  0.12509673462E+03 0.  0.
          5    1    3    3  502    0  0.47689604458E+02 -0.23160638209E+02 -0.32390625292E+02  0.62268278781E+02  0.41800000000E+01 0. -1.
         -5    1    3    3    0  502 -0.49808852447E+02  0.47834547082E+02  0.48641918749E+00  0.69186520943E+02  0.41800000000E+01 0. -1.
        -11    1    1    2    0    0 -0.12047700160E+02 -0.31846516492E+02 -0.25570045813E+02  0.42581391883E+02  0.00000000000E+00 0. -1.
         11    1    1    2    0    0  0.14166948150E+02  0.71726076186E+01  0.50681512126E+02  0.53110868862E+02  0.00000000000E+00 0.  1.
</event>
<event>
 7    1  0.2522928E-009  0.1909650E+03  0.7561462E-02  0.1157594E+00
         -1   -1    0    0    0  501 -0.00000000000E+00  0.00000000000E+00  0.57464558567E+02  0.57464558567E+02  0.00000000000E+00 0.  1.
          1   -1    0    0  501    0  0.00000000000E+00 -0.00000000000E+00 -0.12046490245E+04  0.12046490245E+04  0.00000000000E+00 0. -1.
         25    2    1    2    0    0 -0.14763496739E+03  0.84499482542E+02 -0.99950990494E+03  0.10215690068E+04  0.12508772671E+03 0.  0.
          5    1    3    3  502    0  0.13551458614E+02 -0.32316625884E+01 -0.18500271712E+02  0.23533340755E+02  0.41800000000E+01 0.  1.
         -5    1    3    3    0  502 -0.16118642600E+03  0.87731145131E+02 -0.98100963323E+03  0.99803566602E+03  0.41800000000E+01 0.  1.
        -11    1    1    2    0    0  0.39791386722E+02  0.93338747068E+01 -0.99991766515E+01  0.42076825070E+02  0.00000000000E+00 0.  1.
         11    1    1    2    0    0  0.10784358067E+03 -0.93833357249E+02 -0.13767538434E+03  0.19846775123E+03  0.00000000000E+00 0. -1.
</event>
<event>
 7    1  0.2522928E-009  0.1352804E+03  0.7561462E-02  0.1219824E+00
          1   -1    0    0  501    0  0.00000000000E+00  0.00000000000E+00  0.18042806738E+03  0.18042806738E+03  0.00000000000E+00 0. -1.
         -1   -1    0    0    0  501 -0.00000000000E+00 -0.00000000000E+00 -0.24721050059E+03  0.24721050059E+03  0.00000000000E+00 0.  1.
         25    2    1    2    0    0 -0.10000532817E+03 -0.57833242735E+02  0.10605000820E+03  0.20059947976E+03  0.12509115642E+03 0.  0.
          5    1    3    3  502    0 -0.55541297892E+02 -0.59243952946E+02 -0.44199667436E+01  0.81435190417E+02  0.41800000000E+01 0.  1.
         -5    1    3    3    0  502 -0.44464030282E+02  0.14107102113E+01  0.11046997494E+03  0.11916428935E+03  0.41800000000E+01 0.  1.
        -11    1    1    2    0    0 -0.12057348826E+02  0.25054723906E+02 -0.52277086931E+02  0.59211592351E+02  0.00000000000E+00 0.  1.
         11    1    1    2    0    0  0.11206267700E+03  0.32778518829E+02 -0.12055535448E+03  0.16782749586E+03  0.00000000000E+00 0. -1.
</event>
<event>
 7    1  0.2522928E-009  0.1085128E+03  0.7561462E-02  0.1263349E+00
         -1   -1    0    0    0  501 -0.00000000000E+00  0.00000000000E+00  0.44837702392E+03  0.44837702392E+03  0.00000000000E+00 0.  1.
          1   -1    0    0  501    0  0.00000000000E+00 -0.00000000000E+00 -0.51752775257E+02  0.51752775257E+02  0.00000000000E+00 0. -1.
         25    2    1    2    0    0 -0.70599736145E+02 -0.12719594408E+02  0.78557298644E+02  0.16421242073E+03  0.12509340161E+03 0.  0.
          5    1    3    3  502    0 -0.92716289427E+02  0.20391169856E+02  0.79902548586E+02  0.12415313046E+03  0.41800000000E+01 0.  1.
         -5    1    3    3    0  502  0.22116553282E+02 -0.33110764264E+02 -0.13452499423E+01  0.40059290266E+02  0.41800000000E+01 0.  1.
        -11    1    1    2    0    0  0.57429784067E+02  0.26195633897E+02  0.30829645948E+03  0.31469206895E+03  0.00000000000E+00 0.  1.
         11    1    1    2    0    0  0.13169952078E+02 -0.13476039489E+02  0.97704905480E+01  0.21225309505E+02  0.00000000000E+00 0. -1.
</event>
<event>
 7    1  0.2522928E-009  0.8716585E+02  0.7561462E-02  0.1309864E+00
          2   -1    0    0  501    0  0.00000000000E+00  0.00000000000E+00  0.66879246838E+03  0.66879246838E+03  0.00000000000E+00 0. -1.
         -2   -1    0    0    0  501 -0.00000000000E+00 -0.00000000000E+00 -0.19220156071E+02  0.19220156071E+02  0.00000000000E+00 0.  1.
         25    2    1    2    0    0  0.82539169957E+01  0.56487934213E+01  0.26818425458E+03  0.29609095812E+03  0.12508806923E+03 0.  0.
          5    1    3    3  502    0  0.32442585352E+02 -0.30206653379E+02  0.24045833371E+03  0.24454579511E+03  0.41800000000E+01 0. -1.
         -5    1    3    3    0  502 -0.24188668357E+02  0.35855446801E+02  0.27725920870E+02  0.51545163015E+02  0.41800000000E+01 0. -1.
        -11    1    1    2    0    0 -0.22991787377E+02 -0.41582424559E+02  0.15151827700E+03  0.15879391860E+03  0.00000000000E+00 0.  1.
         11    1    1    2    0    0  0.14737870381E+02  0.35933631138E+02  0.22986978073E+03  0.23312774773E+03  0.00000000000E+00 0. -1.
</event>
<event>
 7    1  0.2522928E-009  0.1264299E+03  0.7561462E-02  0.1232851E+00
         -2   -1    0    0    0  501 -0.00000000000E+00  0.00000000000E+00  0.76068963723E+02  0.76068963723E+02  0.00000000000E+00 0.  1.
          2   -1    0    0  501    0  0.00000000000E+00 -0.00000000000E+00 -0.36070496203E+03  0.36070496203E+03  0.00000000000E+00 0. -1.
         25    2    1    2    0    0 -0.68794625286E+02  0.30796037759E+02 -0.22790296496E+02  0.14780956945E+03  0.12508866774E+03 0.  0.
          5    1    3    3  502    0 -0.47066308683E+02  0.71371759787E+02 -0.44809714697E+02  0.96615466874E+02  0.41800000000E+01 0.  1.
         -5    1    3    3    0  502 -0.21728316604E+02 -0.40575722027E+02  0.22019418201E+02  0.51194102574E+02  0.41800000000E+01 0.  1.
        -11    1    1    2    0    0  0.53320095721E+02  0.28016860831E+02 -0.11035622249E+03  0.12572379624E+03  0.00000000000E+00 0.  1.
         11    1    1    2    0    0  0.15474529565E+02 -0.58812898591E+02 -0.15148947932E+03  0.16324056006E+03  0.00000000000E+00 0. -1.
</event>
<event>
 7    1  0.2522928E-009  0.1107240E+03  0.7561462E-02  0.1259235E+00
         -2   -1    0    0    0  501 -0.00000000000E+00  0.00000000000E+00  0.18632678997E+02  0.18632678997E+02  0.00000000000E+00 0.  1.
          2   -1    0    0  501    0  0.00000000000E+00 -0.00000000000E+00 -0.80916781380E+03  0.80916781380E+03  0.00000000000E+00 0. -1.
         25    2    1    2    0    0 -0.21300133883E+02 -0.44671805668E+02 -0.52674067392E+03  0.54364725497E+03  0.12508930551E+03 0.  0.
          5    1    3    3  502    0  0.14284475418E+02 -0.71222754412E+02 -0.44140620697E+03  0.44736298343E+03  0.41800000000E+01 0.  1.
         -5    1    3    3    0  502 -0.35584609301E+02  0.26550948745E+02 -0.85334466949E+02  0.96284271549E+02  0.41800000000E+01 0.  1.
        -11    1    1    2    0    0 -0.33294761782E+02 -0.39820036047E+00 -0.10825762039E+03  0.11326258030E+03  0.00000000000E+00 0.  1.
         11    1    1    2    0    0  0.54594895664E+02  0.45070006028E+02 -0.15553684050E+03  0.17089065752E+03  0.00000000000E+00 0. -1.
</event>
<event>
 6    1  0.2522928E-009  0.1719007E+03  0.7561462E-02  0.1175880E+00
          1   -1    0    0  501    0  0.00000000000E+00  0.00000000000E+00  0.11833234989E+04  0.11833234989E+04  0.00000000000E+00 0. -1.
         -1   -1    0    0    0  501 -0.00000000000E+00 -0.00000000000E+00 -0.69903910792E+02  0.69903910792E+02  0.00000000000E+00 0.  1.
          5    1    1    2  502    0  0.16709486856E+03  0.16555299257E+02  0.98165086137E+03  0.99591699406E+03  0.41800000000E+01 0. -1.
         -5    1    1    2    0  502 -0.20899065758E+02  0.54429067791E+01  0.68307637634E+02  0.71762120529E+02  0.41800000000E+01 0. -1.
        -11    1    1    2    0    0 -0.48481810441E+02 -0.27919219576E+02  0.67377452389E+02  0.87576765502E+02  0.00000000000E+00 0. -1.
         11    1    1    2    0    0 -0.97713992364E+02  0.59210135401E+01 -0.39163633116E+01  0.97971529572E+02  0.00000000000E+00 0.  1.
</event>
<event>
 7    1  0.2522928E-009  0.1571890E+03  0.7561462E-02  0.1191907E+00
         -1   -1    0    0    0  501 -0.00000000000E+00  0.00000000000E+00  0.18375831140E+03  0.18375831140E+03  0.00000000000E+00 0.  1.
          1   -1    0    0  501    0  0.00000000000E+00 -0.00000000000E+00 -0.17214967464E+03  0.17214967464E+03  0.00000000000E+00 0. -1.
         25    2    1    2    0    0  0.11177658764E+03  0.78519764005E+02 -0.24741560165E+02  0.18686172719E+03  0.12508317794E+03 0.  0.
          5    1    3    3  502    0  0.90336356604E+01 -0.24636203424E+02  0.21354590579E+02  0.34088708265E+02  0.41800000000E+01 0. -1.
         -5    1    3    3    0  502  0.10274295198E+03  0.10315596743E+03 -0.46096150744E+02  0.15277301892E+03  0.41800000000E+01 0. -1.
        -11    1    1    2    0    0 -0.32017448035E+02 -0.45942327091E+02 -0.26940675380E+02  0.62141889150E+02  0.00000000000E+00 0. -1.
         11    1    1    2    0    0 -0.79759139602E+02 -0.32577436914E+02  0.63290872303E+02  0.10690436971E+03  0.00000000000E+00 0.  1.
</event>
<event>
 7    1  0.2522928E-009  0.1271782E+03  0.7561462E-02  0.1231704E+00
          2   -1    0    0  501    0  0.00000000000E+00  0.00000000000E+00  0.61787896607E+02  0.61787896607E+02  0.00000000000E+00 0. -1.
         -2   -1    0    0    0  501 -0.00000000000E+00 -0.00000000000E+00 -0.47249514561E+03  0.47249514561E+03  0.00000000000E+00 0.  1.
         25    2    1    2    0    0 -0.98830474961E+02  0.26715230292E+02 -0.88365842782E+02  0.18421932238E+03  0.12508824987E+03 0.  0.
          5    1    3    3  502    0 -0.94982917330E+02  0.62530870947E+02 -0.93901449162E+02  0.14753582264E+03  0.41800000000E+01 0. -1.
         -5    1    3    3    0  502 -0.38475576304E+01 -0.35815640654E+02  0.55356063803E+01  0.36683499740E+02  0.41800000000E+01 0. -1.
        -11    1    1    2    0    0  0.22493714974E+02 -0.15076529808E+02 -0.10896913573E+02  0.29189239281E+02  0.00000000000E+00 0. -1.
         11    1    1    2    0    0  0.76336759986E+02 -0.11638700484E+02 -0.31144449265E+03  0.32087448056E+03  0.00000000000E+00 0.  1.
</event>
<event>
 7    1  0.2522928E-009  0.1043896E+03  0.7561462E-02  0.1271327E+00
          2   -1    0    0  501    0  0.00000000000E+00  0.00000000000E+00  0.45714823649E+03  0.45714823649E+03  0.00000000000E+00 0. -1.
         -2   -1    0    0    0  501 -0.00000000000E+00 -0.00000000000E+00 -0.35620784345E+02  0.35620784345E+02  0.00000000000E+00 0.  1.
         25    2    1    2    0    0  0.12905469788E+02  0.54485472531E+02  0.20391057892E+03  0.24568855823E+03  0.12509246813E+03 0.  0.
          5    1    3    3  502    0 -0.10677604117E+02 -0.36636548770E+02  0.33426716702E+02  0.50902511971E+02  0.41800000000E+01 0. -1.
         -5    1    3    3    0  502  0.23583073904E+02  0.91122021300E+02  0.17048386222E+03  0.19478604626E+03  0.41800000000E+01 0. -1.
        -11    1    1    2    0    0 -0.15664269762E+02  0.51382554623E+01 -0.44960044181E+01  0.17087570690E+02  0.00000000000E+00 0.  1.
         11    1    1    2    0    0  0.27587999740E+01 -0.59623727993E+02  0.22211287765E+03  0.22999289192E+03  0.00000000000E+00 0. -1.
</event>
<event>
 7    1  0.2522928E-009  0.2109471E+03  0.7561462E-02  0.1140818E+00
         -1   -1    0    0    0  501 -0.00000000000E+00  0.00000000000E+00  0.10738314437E+04  0.10738314437E+04  0.00000000000E+00 0.  1.
          1   -1    0    0  501    0  0.00000000000E+00 -0.00000000000E+00 -0.63653680372E+02  0.63653680372E+02  0.00000000000E+00 0. -1.
         25    2    1    2    0    0 -0.43585452765E+02  0.19333603541E+03  0.23258959774E+03  0.33018695236E+03  0.12508792209E+03 0.  0.
          5    1    3    3  502    0 -0.42158309193E+02  0.14707203171E+02  0.12223803457E+02  0.46481379391E+02  0.41800000000E+01 0. -1.
         -5    1    3    3    0  502 -0.14271435721E+01  0.17862883224E+03  0.22036579428E+03  0.28370557297E+03  0.41800000000E+01 0. -1.
        -11    1    1    2    0    0  0.19316381352E+02 -0.10469812214E+03  0.57591398521E+03  0.58567203939E+03  0.00000000000E+00 0.  1.
         11    1    1    2    0    0  0.24269071413E+02 -0.88637913262E+02  0.20167418041E+03  0.22162613234E+03  0.00000000000E+00 0. -1.
</event>
<event>
 7    1  0.2522928E-009  0.1979098E+03  0.7561462E-02  0.1151515E+00
          2   -1    0    0  501    0  0.00000000000E+00  0.00000000000E+00  0.75116196722E+03  0.75116196722E+03  0.00000000000E+00 0. -1.
         -2   -1    0    0    0  501 -0.00000000000E+00 -0.00000000000E+00 -0.65014657990E+02  0.65014657990E+02  0.00000000000E+00 0.  1.
         25    2    1    2    0    0  0.18033646493E+03  0.54528611648E+02  0.41949154068E+03  0.47656536183E+03  0.12508709494E+03 0.  0.
          5    1    3    3  502    0  0.82923147386E+02  0.68994582346E+02  0.12069437344E+03  0.16192932083E+03  0.41800000000E+01 0.  1.
         -5    1    3    3    0  502  0.97413317547E+02 -0.14465970697E+02  0.29879716724E+03  0.31463604100E+03  0.41800000000E+01 0.  1.
        -11    1    1    2    0    0 -0.31221298912E+02 -0.23292002838E+01  0.19821867909E+01  0.31370746631E+02  0.00000000000E+00 0.  1.
         11    1    1    2    0    0 -0.14911516602E+03 -0.52199411364E+02  0.26467358176E+03  0.30824051675E+03  0.00000000000E+00 0. -1.
</event>
<event>
 7    1  0.2522928E-009  0.1037957E+03  0.7561462E-02  0.1272511E+00
         -3   -1    0    0    0  501 -0.00000000000E+00  0.00000000000E+00  0.16092782371E+03  0.16092782371E+03  0.00000000000E+00 0.  1.
          3   -1    0    0  501    0  0.00000000000E+00 -0.00000000000E+00 -0.11576510540E+03  0.11576510540E+03  0.00000000000E+00 0. -1.
         25    2    1    2    0    0 -0.49405088488E+01  0.82367776668E+02  0.30237250248E+02  0.15287042050E+03  0.12508483082E+03 0.  0.
          5    1    3    3  502    0 -0.14077554576E+02  0.18135498107E+02  0.71940896027E+02  0.75630937820E+02  0.41800000000E+01 0. -1.
         -5    1    3    3    0  502  0.91370457275E+01  0.64232278561E+02 -0.41703645779E+02  0.77239482683E+02  0.41800000000E+01 0. -1.
        -11    1    1    2    0    0  0.35633331003E+02 -0.49665468607E+01  0.18551175932E+02  0.40478969781E+02  0.00000000000E+00 0.  1.
         11    1    1    2    0    0 -0.30692822154E+02 -0.77401229808E+02 -0.36257078728E+01  0.83343538832E+02  0.00000000000E+00 0. -1.
</event>
<event>
 7    1  0.2522928E-009  0.2485815E+03  0.7561462E-02  0.1114205E+00
         -2   -1    0    0    0  501 -0.00000000000E+00  0.00000000000E+00  0.48983097246E+02  0.48983097246E+02  0.00000000000E+00 0.  1.
          2   -1    0    0  501    0  0.00000000000E+00 -0.00000000000E+00 -0.17266886954E+04  0.17266886954E+04  0.00000000000E+00 0. -1.
         25    2    1    2    0    0 -0.21478295614E+03 -0.92218188173E+02 -0.12362021933E+04  0.12643097745E+04  0.12508969114E+03 0.  0.
          5    1    3    3  502    0 -0.20736556641E+02  0.17869986749E+02 -0.32524831231E+03  0.32642499639E+03  0.41800000000E+01 0.  1.
         -5    1    3    3    0  502 -0.19404639950E+03 -0.11008817492E+03 -0.91095388098E+03  0.93788477815E+03  0.41800000000E+01 0.  1.
        -11    1    1    2    0    0  0.12707593094E+03  0.94874286933E+02 -0.35172783268E+03  0.38582624434E+03  0.00000000000E+00 0.  1.
         11    1    1    2    0    0  0.87707025192E+02 -0.26560987595E+01 -0.89775572146E+02  0.12553577372E+03  0.00000000000E+00 0. -1.
</event>
<event>
 7    1  0.2522928E-009  0.1706726E+03  0.7561462E-02  0.1177148E+00
          3   -1    0    0  501    0  0.00000000000E+00  0.00000000000E+00  0.35163572112E+03  0.35163572112E+03  0.00000000000E+00 0. -1.
         -3   -1    0    0    0  501 -0.00000000000E+00 -0.00000000000E+00 -0.98076224419E+02  0.98076224419E+02  0.00000000000E+00 0.  1.
         25    2    1    2    0    0  0.10195743688E+03  0.10900615807E+03  0.14137014677E+03  0.24064634002E+03  0.12508989221E+03 0.  0.
          5    1    3    3  502    0  0.32138314626E+02  0.11350200880E+03  0.57356595903E+02  0.13123577546E+03  0.41800000000E+01 0. -1.
         -5    1    3    3    0  502  0.69819122257E+02 -0.44958507303E+01  0.84013550867E+02  0.10941056455E+03  0.41800000000E+01 0. -1.
        -11    1    1    2    0    0 -0.97865121782E+02 -0.87345966008E+02  0.45523480012E+02  0.13884987242E+03  0.00000000000E+00 0.  1.
         11    1    1    2    0    0 -0.40923151014E+01 -0.21660192059E+02  0.66665869923E+02  0.70215733105E+02  0.00000000000E+00 0. -1.
</event>
<event>
 7    1  0.2522928E-009  0.9753662E+02  0.7561462E-02  0.1285563E+00
         -2   -1    0    0    0  501 -0.00000000000E+00  0.00000000000E+00  0.31460158784E+02  0.31460158784E+02  0.00000000000E+00 0.  1.
          2   -1    0    0  501    0  0.00000000000E+00 -0.00000000000E+00 -0.37407941917E+03  0.37407941917E+03  0.00000000000E+00 0. -1.
         25    2    1    2    0    0 -0.24198077138E+02 -0.16139200334E+02 -0.19198802634E+03  0.23098367570E+03  0.12509210789E+03 0.  0.
          5    1    3    3  502    0  0.46845748368E+02  0.86623603062E+01 -0.10814681614E+03  0.11824874996E+03  0.41800000000E+01 0. -1.
         -5    1    3    3    0  502 -0.71043825506E+02 -0.24801560640E+02 -0.83841210201E+02  0.11273492574E+03  0.41800000000E+01 0. -1.
        -11    1    1    2    0    0  0.14752250821E+02  0.41914149171E+02 -0.37505477400E+02  0.58147103454E+02  0.00000000000E+00 0.  1.
         11    1    1    2    0    0  0.94458263170E+01 -0.25774948838E+02 -0.11312575664E+03  0.11640879880E+03  0.00000000000E+00 0. -1.
</event>
<event>
 6    1  0.2522928E-009  0.9169816E+02  0.7561462E-02  0.1298791E+00
         -2   -1    0    0    0  501 -0.00000000000E+00  0.00000000000E+00  0.46295844977E+02  0.46295844977E+02  0.00000000000E+00 0.  1.
          2   -1    0    0  501    0  0.00000000000E+00 -0.00000000000E+00 -0.41571483250E+03  0.41571483250E+03  0.00000000000E+00 0. -1.
          5    1    1    2  502    0  0.59072916944E+02 -0.22953949300E+02 -0.25326623071E+02  0.68376922576E+02  0.41800000000E+01 0.  1.
         -5    1    1    2    0  502  0.17216636526E+02 -0.11723906290E+02 -0.20968429190E+03  0.21075776907E+03  0.41800000000E+01 0.  1.
        -11    1    1    2    0    0 -0.55713571052E+02  0.48486950541E+02 -0.37466635210E+02  0.82817480800E+02  0.00000000000E+00 0.  1.
         11    1    1    2    0    0 -0.20575982418E+02 -0.13809094952E+02 -0.96941437344E+02  0.10005850504E+03  0.00000000000E+00 0. -1.
</event>
<event>
 7    1  0.2522928E-009  0.1352721E+03  0.7561462E-02  0.1219836E+00
          2   -1    0    0  501    0  0.00000000000E+00  0.00000000000E+00  0.12523519395E+03  0.12523519395E+03  0.00000000000E+00 0. -1.
         -2   -1    0    0    0  501 -0.00000000000E+00 -0.00000000000E+00 -0.26812969481E+03  0.26812969481E+03  0.00000000000E+00 0.  1.
         25    2    1    2    0    0  0.84139119992E+02 -0.63892644231E+02  0.38624301232E+02  0.16822765306E+03  0.12508814935E+03 0.  0.
          5    1    3    3  502    0  0.45294632674E+02 -0.82461594635E+02  0.67807627485E+02  0.11604682281E+03  0.41800000000E+01 0. -1.
         -5    1    3    3    0  502  0.38844487318E+02  0.18568950403E+02 -0.29183326254E+02  0.52180830248E+02  0.41800000000E+01 0. -1.
        -11    1    1    2    0    0 -0.23075837509E+02 -0.19183398160E+02 -0.44047797376E+02  0.53298269160E+02  0.00000000000E+00 0. -1.
         11    1    1    2    0    0 -0.61063282483E+02  0.83076042391E+02 -0.13747100471E+03  0.17183896654E+03  0.00000000000E+00 0.  1.
</event>
<event>
 7    1  0.2522928E-009  0.7391391E+02  0.7561462E-02  0.1347268E+00
         -4   -1    0    0    0  501 -0.00000000000E+00  0.00000000000E+00  0.28176434074E+03  0.28176434074E+03  0.00000000000E+00 0. -1.
          4   -1    0    0  501    0  0.00000000000E+00 -0.00000000000E+00 -0.43285784717E+02  0.43285784717E+02  0.00000000000E+00 0.  1.
         25    2    1    2    0    0 -0.85986167035E+01  0.18223079769E+02  0.12505273437E+03  0.17802177557E+03  0.12509016492E+03 0.  0.
          5    1    3    3  502    0  0.21584824198E+02  0.11308167714E+02  0.14085401759E+03  0.14300736333E+03  0.41800000000E+01 0.  1.
         -5    1    3    3    0  502 -0.30183440902E+02  0.69149120543E+01 -0.15801283229E+02  0.35014412248E+02  0.41800000000E+01 0.  1.
        -11    1    1    2    0    0 -0.28015244660E+02  0.23342978153E+02  0.31809900651E+02  0.48390271148E+02  0.00000000000E+00 0. -1.
         11    1    1    2    0    0  0.36613861363E+02 -0.41566057921E+02  0.81615921008E+02  0.98638078738E+02  0.00000000000E+00 0.  1.
</event>
<event>
 7    1  0.2522928E-009  0.1207964E+03  0.7561462E-02  0.1241789E+00
          1   -1    0    0  501    0  0.00000000000E+00  0.00000000000E+00  0.19288640660E+03  0.19288640660E+03  0.00000000000E+00 0. -1.
         -1   -1    0    0    0  501 -0.00000000000E+00 -0.00000000000E+00 -0.16312047048E+03  0.16312047048E+03  0.00000000000E+00 0.  1.
         25    2    1    2    0    0 -0.84598511107E+02  0.32219169854E+02  0.12222069020E+03  0.19693099390E+03  0.12509570838E+03 0.  0.
          5    1    3    3  502    0 -0.56965541314E+02  0.77926398835E+02  0.55717154905E+02  0.11153237325E+03  0.41800000000E+01 0.  1.
         -5    1    3    3    0  502 -0.27632969793E+02 -0.45707228981E+02  0.66503535299E+02  0.85398620645E+02  0.41800000000E+01 0.  1.
        -11    1    1    2    0    0  0.59167119766E+02 -0.16202095864E+02 -0.10877108884E+03  0.12487756299E+03  0.00000000000E+00 0.  1.
         11    1    1    2    0    0  0.25431391341E+02 -0.16017073990E+02  0.16316334745E+02  0.34198320196E+02  0.00000000000E+00 0. -1.
</event>
<event>
 7    1  0.2522928E-009  0.1424628E+03  0.7561462E-02  0.1210053E+00
          1   -1    0    0  501    0  0.00000000000E+00  0.00000000000E+00  0.72196258651E+02  0.72196258651E+02  0.00000000000E+00 0. -1.
         -1   -1    0    0    0  501 -0.00000000000E+00 -0.00000000000E+00 -0.34678751345E+03  0.34678751345E+03  0.00000000000E+00 0.  1.
         25    2    1    2    0    0  0.10124797348E+03  0.43575466992E+02 -0.19059473794E+03  0.25322693590E+03  0.12509018139E+03 0.  0.
          5    1    3    3  502    0  0.11285669091E+03  0.70433306298E+02 -0.13123550512E+03  0.18691632760E+03  0.41800000000E+01 0. -1.
         -5    1    3    3    0  502 -0.11608717432E+02 -0.26857839306E+02 -0.59359232818E+02  0.66310608302E+02  0.41800000000E+01 0. -1.
        -11    1    1    2    0    0 -0.36267469434E+02 -0.44344501559E+02 -0.82893309376E+02  0.10076241808E+03  0.00000000000E+00 0.  1.
         11    1    1    2    0    0 -0.64980504046E+02  0.76903456658E+00 -0.11032074863E+01  0.64994418122E+02  0.00000000000E+00 0. -1.
</event>
<event>
 7    1  0.2522928E-009  0.1239602E+03  0.7561462E-02  0.1236703E+00
         -4   -1    0    0    0  501 -0.00000000000E+00  0.00000000000E+00  0.13266205332E+03  0.13266205332E+03  0.00000000000E+00 0.  1.
          4   -1    0    0  501    0  0.00000000000E+00 -0.00000000000E+00 -0.17543427305E+03  0.17543427305E+03  0.00000000000E+00 0. -1.
         25    2    1    2    0    0  0.61691198184E+02 -0.60607682532E+02  0.40014615383E+02  0.15725808435E+03  0.12509932268E+03 0.  0.
          5    1    3    3  502    0  0.68420780039E+02 -0.27076004459E+01  0.64251608737E+02  0.93991892558E+02  0.41800000000E+01 0. -1.
         -5    1    3    3    0  502 -0.67295818552E+01 -0.57900082086E+02 -0.24236993355E+02  0.63266191796E+02  0.41800000000E+01 0. -1.
        -11    1    1    2    0    0 -0.42901099888E+02  0.81915484125E+02 -0.80035334706E+02  0.12229597586E+03  0.00000000000E+00 0. -1.
         11    1    1    2    0    0 -0.18790098296E+02 -0.21307801593E+02 -0.27515004065E+01  0.28542266154E+02  0.00000000000E+00 0.  1.
</event>
<event>
 7    1  0.2522928E-009  0.1050961E+03  0.7561462E-02  0.1269930E+00
         -1   -1    0    0    0  501 -0.00000000000E+00  0.00000000000E+00  0.14348505207E+03  0.14348505207E+03  0.00000000000E+00 0.  1.
          1   -1    0    0  501    0  0.00000000000E+00 -0.00000000000E+00 -0.12750241092E+03  0.12750241092E+03  0.00000000000E+00 0. -1.
         25    2    1    2    0    0 -0.38982285149E+01  0.72397282409E+02  0.39977606825E+02  0.15000588944E+03  0.12508794960E+03 0.  0.
          5    1    3    3  502    0  0.45290330260E+02  0.67293893691E+01 -0.18083094993E+02  0.49406167843E+02  0.41800000000E+01 0.  1.
         -5    1    3    3    0  502 -0.49188558775E+02  0.65667893040E+02  0.58060701817E+02  0.10059972160E+03  0.41800000000E+01 0.  1.
        -11    1    1    2    0    0  0.21265716580E+02 -0.39796527275E+02 -0.56132465224E+02  0.72019774624E+02  0.00000000000E+00 0. -1.
         11    1    1    2    0    0 -0.17367488065E+02 -0.32600755134E+02  0.32137499545E+02  0.48961798926E+02  0.00000000000E+00 0.  1.
</event>
<event>
 7    1  0.2522928E-009  0.5065653E+02  0.7561462E-02  0.1441832E+00
         -1   -1    0    0    0  501 -0.00000000000E+00  0.00000000000E+00  0.51609862966E+02  0.51609862966E+02  0.00000000000E+00 0.  1.
          1   -1    0    0  501    0  0.00000000000E+00 -0.00000000000E+00 -0.22752958471E+03  0.22752958471E+03  0.00000000000E+00 0. -1.
         25    2    1    2    0    0  0.68317124241E+01 -0.30934890623E+02 -0.10086210992E+03  0.16378101526E+03  0.12508963182E+03 0.  0.
          5    1    3    3  502    0 -0.15206817992E+02 -0.41491466063E+02 -0.12286290242E+03  0.13063519533E+03  0.41800000000E+01 0.  1.
         -5    1    3    3    0  502  0.22038530416E+02  0.10556575440E+02  0.22000792498E+02  0.33145819924E+02  0.41800000000E+01 0.  1.
        -11    1    1    2    0    0 -0.67077289313E+01  0.18169774054E+02 -0.92072204183E+02  0.94087326988E+02  0.00000000000E+00 0. -1.
         11    1    1    2    0    0 -0.12398349278E+00  0.12765116569E+02  0.17014592361E+02  0.21271105428E+02  0.00000000000E+00 0.  1.
</event>
<event>
 7    1  0.2522928E-009  0.1897950E+03  0.7561462E-02  0.1158646E+00
         -1   -1    0    0    0  501 -0.00000000000E+00  0.00000000000E+00  0.81095884931E+02  0.81095884931E+02  0.00000000000E+00 0.  1.
          1   -1    0    0  501    0  0.00000000000E+00 -0.00000000000E+00 -0.93870158363E+03  0.93870158363E+03  0.00000000000E+00 0. -1.
         25    2    1    2    0    0 -0.11231571755E+03  0.13051738519E+03 -0.94101856412E+02  0.23270619494E+03  0.12508959004E+03 0.  0.
          5    1    3    3  502    0 -0.10802459461E+03  0.37946867624E+02 -0.25617701424E+02  0.11740109382E+03  0.41800000000E+01 0. -1.
         -5    1    3    3    0  502 -0.42911229354E+01  0.92570517570E+02 -0.68484154988E+02  0.11530510112E+03  0.41800000000E+01 0. -1.
        -11    1    1    2    0    0  0.84818887824E+02 -0.10158449394E+03 -0.69760567121E+03  0.71004741084E+03  0.00000000000E+00 0. -1.
         11    1    1    2    0    0  0.27496829725E+02 -0.28932891249E+02 -0.65898171084E+02  0.77043862787E+02  0.00000000000E+00 0.  1.
</event>
<event>
 7    1  0.2522928E-009  0.1204776E+03  0.7561462E-02  0.1242311E+00
          2   -1    0    0  501    0  0.00000000000E+00  0.00000000000E+00  0.37451735609E+03  0.37451735609E+03  0.00000000000E+00 0. -1.
         -2   -1    0    0    0  501 -0.00000000000E+00 -0.00000000000E+00 -0.59422194867E+02  0.59422194867E+02  0.00000000000E+00 0.  1.
         25    2    1    2    0    0  0.30374632754E+02  0.46483726310E+02  0.29598103409E+03  0.32609114785E+03  0.12508920433E+03 0.  0.
          5    1    3    3  502    0  0.58389694929E+02  0.74795152561E+02  0.23094817375E+03  0.24971624432E+03  0.41800000000E+01 0. -1.
         -5    1    3    3    0  502 -0.28015062175E+02 -0.28311426251E+02  0.65032860343E+02  0.76374903532E+02  0.41800000000E+01 0. -1.
        -11    1    1    2    0    0  0.31884568490E+02 -0.85076383497E+01  0.28003794488E+01  0.33118691749E+02  0.00000000000E+00 0.  1.
         11    1    1    2    0    0 -0.62259201243E+02 -0.37976087960E+02  0.16313747688E+02  0.74729711359E+02  0.00000000000E+00 0. -1.
</event>
<event>
 7    1  0.2522928E-009  0.2889166E+03  0.7561462E-02  0.1090916E+00
          1   -1    0    0  501    0  0.00000000000E+00  0.00000000000E+00  0.79736172647E+03  0.79736172647E+03  0.00000000000E+00 0. -1.
         -1   -1    0    0    0  501 -0.00000000000E+00 -0.00000000000E+00 -0.11865720152E+03  0.11865720152E+03  0.00000000000E+00 0.  1.
         25    2    1    2    0    0 -0.17146482729E+03 -0.22328609917E+03  0.26140026262E+03  0.40402322729E+03  0.12509117400E+03 0.  0.
          5    1    3    3  502    0 -0.16998169380E+03 -0.19644186169E+03  0.27076133061E+03  0.37524971926E+03  0.41800000000E+01 0. -1.
         -5    1    3    3    0  502 -0.14831334903E+01 -0.26844237480E+02 -0.93610679839E+01  0.28773508035E+02  0.41800000000E+01 0. -1.
        -11    1    1    2    0    0  0.74996514634E+02  0.43277299691E+02  0.17387946184E+03  0.19424589860E+03  0.00000000000E+00 0. -1.
         11    1    1    2    0    0  0.96468312661E+02  0.18000879948E+03  0.24342480049E+03  0.31774980209E+03  0.00000000000E+00 0.  1.
</event>
<event>
 7    1  0.2522928E-009  0.1409385E+03  0.7561462E-02  0.1212072E+00
          1   -1    0    0  501    0  0.00000000000E+00  0.00000000000E+00  0.25791879558E+03  0.25791879558E+03  0.00000000000E+00 0. -1.
         -1   -1    0    0    0  501 -0.00000000000E+00 -0.00000000000E+00 -0.93962447694E+02  0.93962447694E+02  0.00000000000E+00 0.  1.
         25    2    1    2    0    0 -0.34513238539E+02  0.10365842675E+03  0.11132752914E+03  0.19994340186E+03  0.12508921669E+03 0.  0.
          5    1    3    3  502    0  0.40780327295E+02  0.41135384510E+01  0.27568759385E+02  0.49572827102E+02  0.41800000000E+01 0. -1.
         -5    1    3    3    0  502 -0.75293565834E+02  0.99544888295E+02  0.83758769757E+02  0.15037057476E+03  0.41800000000E+01 0. -1.
        -11    1    1    2    0    0  0.22190234929E+02 -0.16206541915E+02 -0.22869156579E+02  0.35749920974E+02  0.00000000000E+00 0.  1.
         11    1    1    2    0    0  0.12323003611E+02 -0.87451884831E+02  0.75497975326E+02  0.11618792044E+03  0.00000000000E+00 0. -1.
</event>
<event>
 7    1  0.2522928E-009  0.1207868E+03  0.7561462E-02  0.1241805E+00
         -2   -1    0    0    0  501 -0.00000000000E+00  0.00000000000E+00  0.36890029951E+02  0.36890029951E+02  0.00000000000E+00 0.  1.
          2   -1    0    0  501    0  0.00000000000E+00 -0.00000000000E+00 -0.50358600645E+03  0.50358600645E+03  0.00000000000E+00 0. -1.
         25    2    1    2    0    0  0.17089360617E+02  0.73673828770E+02 -0.22468048062E+03  0.26804875261E+03  0.12509570781E+03 0.  0.
          5    1    3    3  502    0 -0.33595841689E+02  0.62773268836E+02 -0.19617499644E+03  0.20873731216E+03  0.41800000000E+01 0. -1.
         -5    1    3    3    0  502  0.50685202307E+02  0.10900559934E+02 -0.28505484176E+02  0.59311440447E+02  0.41800000000E+01 0. -1.
        -11    1    1    2    0    0  0.39608106264E+00 -0.92526611679E+02 -0.14455456827E+03  0.17163144804E+03  0.00000000000E+00 0.  1.
         11    1    1    2    0    0 -0.17485441680E+02  0.18852782909E+02 -0.97460927610E+02  0.10079583575E+03  0.00000000000E+00 0. -1.
</event>
<event>
 7    1  0.2522928E-009  0.1517972E+03  0.7561462E-02  0.1198282E+00
         -2   -1    0    0    0  501 -0.00000000000E+00  0.00000000000E+00  0.45295069784E+02  0.45295069784E+02  0.00000000000E+00 0.  1.
          2   -1    0    0  501    0  0.00000000000E+00 -0.00000000000E+00 -0.72695651768E+03  0.72695651768E+03  0.00000000000E+00 0. -1.
         25    2    1    2    0    0 -0.12093548288E+03  0.12607404025E+02 -0.52799059822E+03  0.55606241168E+03  0.12508795396E+03 0.  0.
          5    1    3    3  502    0  0.22894743920E+02 -0.13383833967E+02 -0.59329712828E+02  0.65121298629E+02  0.41800000000E+01 0. -1.
         -5    1    3    3    0  502 -0.14383022680E+03  0.25991237992E+02 -0.46866088539E+03  0.49094111305E+03  0.41800000000E+01 0. -1.
        -11    1    1    2    0    0  0.42176313911E+01 -0.13148755903E+02 -0.73025127969E+02  0.74319227063E+02  0.00000000000E+00 0. -1.
         11    1    1    2    0    0  0.11671785149E+03  0.54135187849E+00 -0.80645721711E+02  0.14186994872E+03  0.00000000000E+00 0.  1.
</event>
<event>
 7    1  0.2522928E-009  0.8925021E+02  0.7561462E-02  0.1304678E+00
         -1   -1    0    0    0  501 -0.00000000000E+00  0.00000000000E+00  0.96441261209E+02  0.96441261209E+02  0.00000000000E+00 0.  1.
          1   -1    0    0  501    0  0.00000000000E+00 -0.00000000000E+00 -0.13933745903E+03  0.13933745903E+03  0.00000000000E+00 0. -1.
         25    2    1    2    0    0 -0.19757505459E+02  0.28507991997E+02 -0.13302487838E+01  0.12981046730E+03  0.12508366492E+03 0.  0.
          5    1    3    3  502    0  0.27931564574E+02  0.21433168428E+02  0.48678429001E+02  0.60221382070E+02  0.41800000000E+01 0. -1.
         -5    1    3    3    0  502 -0.47689070033E+02  0.70748235691E+01 -0.50008677785E+02  0.69589085228E+02  0.41800000000E+01 0. -1.
        -11    1    1    2    0    0 -0.34181892547E+02 -0.12170065000E+01 -0.31597908201E+01  0.34349194473E+02  0.00000000000E+00 0.  1.
         11    1    1    2    0    0  0.53939398005E+02 -0.27290985497E+02 -0.38406158213E+02  0.71619058464E+02  0.00000000000E+00 0. -1.
</event>
<event>
 7    1  0.2522928E-009  0.1753605E+03  0.7561462E-02  0.1172370E+00
         -1   -1    0    0    0  501 -0.00000000000E+00  0.00000000000E+00  0.37030438866E+03  0.37030438866E+03  0.00000000000E+00 0.  1.
          1   -1    0    0  501    0  0.00000000000E+00 -0.00000000000E+00 -0.10803526349E+03  0.10803526349E+03  0.00000000000E+00 0. -1.
         25    2    1    2    0    0 -0.16309022317E+03  0.34070120942E+02  0.11213916174E+03  0.23661143623E+03  0.12510230264E+03 0.  0.
          5    1    3    3  502    0 -0.86800082649E+02 -0.42837679310E+01  0.12275697581E+03  0.15046379141E+03  0.41800000000E+01 0.  1.
         -5    1    3    3    0  502 -0.76290140525E+02  0.38353888873E+02 -0.10617814073E+02  0.86147644824E+02  0.41800000000E+01 0.  1.
        -11    1    1    2    0    0  0.49046492144E+02 -0.41062169051E+02  0.16793955781E+02  0.66133932814E+02  0.00000000000E+00 0. -1.
         11    1    1    2    0    0  0.11404373103E+03  0.69920481087E+01  0.13333600764E+03  0.17559428310E+03  0.00000000000E+00 0.  1.
</event>
<event>
 7    1  0.2522928E-009  0.9917335E+02  0.7561462E-02  0.1282044E+00
         -1   -1    0    0    0  501 -0.00000000000E+00  0.00000000000E+00  0.20674648052E+02  0.20674648052E+02  0.00000000000E+00 0.  1.
          1   -1    0    0  501    0  0.00000000000E+00 -0.00000000000E+00 -0.66953914464E+03  0.66953914464E+03  0.00000000000E+00 0. -1.
         25    2    1    2    0    0 -0.36149532674E+02  0.40455846937E+02 -0.44413493107E+03  0.46459242685E+03  0.12508725686E+03 0.  0.
          5    1    3    3  502    0  0.39820370389E+02 -0.47954729528E+01 -0.76821993348E+02  0.86762604392E+02  0.41800000000E+01 0.  1.
         -5    1    3    3    0  502 -0.75969903063E+02  0.45251319890E+02 -0.36731293772E+03  0.37782982246E+03  0.41800000000E+01 0.  1.
        -11    1    1    2    0    0  0.46057091382E+02 -0.36738388408E+02 -0.20663452697E+03  0.21486924532E+03  0.00000000000E+00 0. -1.
         11    1    1    2    0    0 -0.99075587075E+01 -0.37174585286E+01  0.19049614526E+01  0.10752120516E+02  0.00000000000E+00 0.  1.
</event>
<event>
 7    1  0.2522928E-009  0.2183364E+03  0.7561462E-02  0.1135129E+00
         -1   -1    0    0    0  501 -0.00000000000E+00  0.00000000000E+00  0.94097190152E+03  0.94097190152E+03  0.00000000000E+00 0.  1.
          1   -1    0    0  501    0  0.00000000000E+00 -0.00000000000E+00 -0.57272273823E+02  0.57272273823E+02  0.00000000000E+00 0. -1.
         25    2    1    2    0    0  0.12677290516E+02 -0.20426795591E+03  0.48350384300E+03  0.53973124986E+03  0.12509094443E+03 0.  0.
          5    1    3    3  502    0 -0.39420939621E+02 -0.15532054332E+03  0.39222026181E+03  0.42371297813E+03  0.41800000000E+01 0.  1.
         -5    1    3    3    0  502  0.52098230136E+02 -0.48947412591E+02  0.91283581186E+02  0.11601827174E+03  0.41800000000E+01 0.  1.
        -11    1    1    2    0    0  0.34941822905E+00  0.33652555116E+02  0.16060410230E+03  0.16409233448E+03  0.00000000000E+00 0.  1.
         11    1    1    2    0    0 -0.13026708745E+02  0.17061540080E+03  0.23959168240E+03  0.29442059100E+03  0.00000000000E+00 0. -1.
</event>
<event>
 7    1  0.2522928E-009  0.1083212E+03  0.7561462E-02  0.1263711E+00
         -2   -1    0    0    0  501 -0.00000000000E+00  0.00000000000E+00  0.35728524319E+02  0.35728524319E+02  0.00000000000E+00 0.  1.
          2   -1    0    0  501    0  0.00000000000E+00 -0.00000000000E+00 -0.46132406766E+03  0.46132406766E+03  0.00000000000E+00 0. -1.
         25    2    1    2    0    0 -0.38247768436E+01 -0.65064425297E+02 -0.19233241247E+03  0.23851094665E+03  0.12509079273E+03 0.  0.
          5    1    3    3  502    0 -0.50542603979E+02 -0.74362274293E+02 -0.10007934289E+03  0.13460181993E+03  0.41800000000E+01 0. -1.
         -5    1    3    3    0  502  0.46717827135E+02  0.92978489953E+01 -0.92253069586E+02  0.10390912672E+03  0.41800000000E+01 0. -1.
        -11    1    1    2    0    0  0.21182180736E+02  0.15353817403E+02 -0.82224725681E+01  0.27423230020E+02  0.00000000000E+00 0.  1.
         11    1    1    2    0    0 -0.17357403893E+02  0.49710607894E+02 -0.22504065830E+03  0.23111841531E+03  0.00000000000E+00 0. -1.
</event>
<event>
 7    1  0.2522928E-009  0.1106054E+03  0.7561462E-02  0.1259453E+00
          2   -1    0    0  501    0  0.00000000000E+00  0.00000000000E+00  0.24958169181E+03  0.24958169181E+03  0.00000000000E+00 0. -1.
         -2   -1    0    0    0  501 -0.00000000000E+00 -0.00000000000E+00 -0.53441166239E+02  0.53441166239E+02  0.00000000000E+00 0.  1.
         25    2    1    2    0    0 -0.25403797770E+02  0.60182204364E+01  0.15225247961E+03  0.19877033171E+03  0.12508898954E+03 0.  0.
          5    1    3    3  502    0 -0.76277247185E+02  0.17574761465E+01  0.86395487987E+02  0.11533845805E+03  0.41800000000E+01 0.  1.
         -5    1    3    3    0  502  0.50873449415E+02  0.42607442898E+01  0.65856991625E+02  0.83431873664E+02  0.41800000000E+01 0.  1.
        -11    1    1    2    0    0  0.20166509867E+02 -0.47584507959E+02  0.16716230539E+02  0.54317638768E+02  0.00000000000E+00 0.  1.
         11    1    1    2    0    0  0.52372879034E+01  0.41566287522E+02  0.27171815416E+02  0.49934887563E+02  0.00000000000E+00 0. -1.
</event>
<event>
 7    1  0.2522928E-009  0.6486559E+02  0.7561462E-02  0.1378478E+00
          4   -1    0    0  501    0  0.00000000000E+00  0.00000000000E+00  0.20603448080E+03  0.20603448080E+03  0.00000000000E+00 0.  1.
         -4   -1    0    0    0  501 -0.00000000000E+00 -0.00000000000E+00 -0.72348498344E+02  0.72348498344E+02  0.00000000000E+00 0. -1.
         25    2    1    2    0    0  0.79716002053E+01 -0.16983458271E+02  0.13952023682E+03  0.18832217866E+03  0.12508941694E+03 0.  0.
          5    1    3    3  502    0 -0.14594716419E+02 -0.40842513504E+02  0.14788983989E+03  0.15417520488E+03  0.41800000000E+01 0.  1.
         -5    1    3    3    0  502  0.22566316624E+02  0.23859055233E+02 -0.83696030775E+01  0.34146973779E+02  0.41800000000E+01 0.  1.
        -11    1    1    2    0    0 -0.21041512481E+02 -0.98294946040E+01 -0.39039454109E+02  0.45425138292E+02  0.00000000000E+00 0. -1.
         11    1    1    2    0    0  0.13069912276E+02  0.26812952875E+02  0.33205199746E+02  0.44635662188E+02  0.00000000000E+00 0.  1.
</event>
<event>
 7    1  0.2522928E-009  0.9784197E+02  0.7561462E-02  0.1284901E+00
         -1   -1    0    0    0  501 -0.00000000000E+00  0.00000000000E+00  0.57668502492E+02  0.57668502492E+02  0.00000000000E+00 0.  1.
          1   -1    0    0  501    0  0.00000000000E+00 -0.00000000000E+00 -0.29936300503E+03  0.29936300503E+03  0.00000000000E+00 0. -1.
         25    2    1    2    0    0  0.14646912142E+02  0.71928202269E+02 -0.13538938906E+03  0.19840947368E+03  0.12509130369E+03 0.  0.
          5    1    3    3  502    0  0.26746192696E+02 -0.12145567627E+02  0.88532960749E+01  0.30963315199E+02  0.41800000000E+01 0. -1.
         -5    1    3    3    0  502 -0.12099280554E+02  0.84073769897E+02 -0.14424268514E+03  0.16744615848E+03  0.41800000000E+01 0. -1.
        -11    1    1    2    0    0 -0.15970996866E+02 -0.96120647441E+01 -0.93049070788E+02  0.94897808742E+02  0.00000000000E+00 0. -1.
         11    1    1    2    0    0  0.13240847238E+01 -0.62316137525E+02 -0.13256042683E+02  0.63724225095E+02  0.00000000000E+00 0.  1.
</event>
<event>
 7    1  0.2522928E-009  0.4377892E+03  0.7561462E-02  0.1031427E+00
          2   -1    0    0  501    0  0.00000000000E+00  0.00000000000E+00  0.15871838133E+04  0.15871838133E+04  0.00000000000E+00 0. -1.
         -2   -1    0    0    0  501 -0.00000000000E+00 -0.00000000000E+00 -0.12571719554E+03  0.12571719554E+03  0.00000000000E+00 0.  1.
         25    2    1    2    0    0  0.42805212996E+03  0.39185182240E+02  0.63886655855E+03  0.78010159760E+03  0.12507565105E+03 0.  0.
          5    1    3    3  502    0  0.26076375218E+03 -0.33716976074E+02  0.41429051428E+03  0.49070222289E+03  0.41800000000E+01 0. -1.
         -5    1    3    3    0  502  0.16728837778E+03  0.72902158314E+02  0.22457604427E+03  0.28939937472E+03  0.41800000000E+01 0. -1.
        -11    1    1    2    0    0 -0.37665869838E+03 -0.29795020999E+02  0.77466528868E+03  0.86189664567E+03  0.00000000000E+00 0. -1.
         11    1    1    2    0    0 -0.51393431581E+02 -0.93901612414E+01  0.47934770504E+02  0.70902765539E+02  0.00000000000E+00 0.  1.
</event>
<event>
 7    1  0.2522928E-009  0.1119745E+03  0.7561462E-02  0.1256957E+00
          2   -1    0    0  501    0  0.00000000000E+00  0.00000000000E+00  0.54171626436E+02  0.54171626436E+02  0.00000000000E+00 0. -1.
         -2   -1    0    0    0  501 -0.00000000000E+00 -0.00000000000E+00 -0.28446177671E+03  0.28446177671E+03  0.00000000000E+00 0.  1.
         25    2    1    2    0    0  0.21560209536E+02 -0.40177891002E+02 -0.18207603545E+03  0.22556021229E+03  0.12508645459E+03 0.  0.
          5    1    3    3  502    0 -0.10650338837E+02 -0.80519569741E+02 -0.10945764085E+03  0.13636450553E+03  0.41800000000E+01 0. -1.
         -5    1    3    3    0  502  0.32210548373E+02  0.40341678739E+02 -0.72618394598E+02  0.89195706758E+02  0.41800000000E+01 0. -1.
        -11    1    1    2    0    0  0.29945015170E+02  0.14144638328E+02 -0.44189809475E+02  0.55222404768E+02  0.00000000000E+00 0.  1.
         11    1    1    2    0    0 -0.51505224706E+02  0.26033252674E+02 -0.40243053438E+01  0.57850786082E+02  0.00000000000E+00 0. -1.
</event>
<event>
 7    1  0.2522928E-009  0.7639263E+02  0.7561462E-02  0.1339612E+00
         -2   -1    0    0    0  501 -0.00000000000E+00  0.00000000000E+00  0.20385381790E+02  0.20385381790E+02  0.00000000000E+00 0. -1.
          2   -1    0    0  501    0  0.00000000000E+00 -0.00000000000E+00 -0.74348676180E+03  0.74348676180E+03  0.00000000000E+00 0.  1.
         25    2    1    2    0    0  0.12517764985E+02  0.57495155616E+02 -0.40300066894E+03  0.42605014619E+03  0.12508717177E+03 0.  0.
          5    1    3    3  502    0  0.69492861678E+01  0.15693274303E+02 -0.37464386705E+03  0.37506008980E+03  0.41800000000E+01 0. -1.
         -5    1    3    3    0  502  0.55684788171E+01  0.41801881313E+02 -0.28356801884E+02  0.50990056390E+02  0.41800000000E+01 0. -1.
        -11    1    1    2    0    0 -0.77878724145E+01 -0.74595168725E+02 -0.30628808688E+03  0.31533709315E+03  0.00000000000E+00 0.  1.
         11    1    1    2    0    0 -0.47298925704E+01  0.17100013109E+02 -0.13812624191E+02  0.22484904249E+02  0.00000000000E+00 0. -1.
</event>
<event>
 7    1  0.2522928E-009  0.9550873E+02  0.7561462E-02  0.1290034E+00
          1   -1    0    0  501    0  0.00000000000E+00  0.00000000000E+00  0.25996031218E+03  0.25996031218E+03  0.00000000000E+00 0. -1.
         -1   -1    0    0    0  501 -0.00000000000E+00 -0.00000000000E+00 -0.66514931331E+02  0.66514931331E+02  0.00000000000E+00 0.  1.
         25    2    1    2    0    0  0.23913454696E+02  0.29880070435E+01  0.19418929057E+03  0.23224984669E+03  0.12509887776E+03 0.  0.
          5    1    3    3  502    0  0.36192721632E+02  0.48551782222E+02  0.44562852978E+02  0.75302781633E+02  0.41800000000E+01 0.  1.
         -5    1    3    3    0  502 -0.12279266937E+02 -0.45563775179E+02  0.14962643759E+03  0.15694706506E+03  0.41800000000E+01 0.  1.
        -11    1    1    2    0    0  0.64530856911E+00  0.36464412439E+02  0.21889572981E+02  0.42534964476E+02  0.00000000000E+00 0.  1.
         11    1    1    2    0    0 -0.24558763265E+02 -0.39452419482E+02 -0.22633482705E+02  0.51690432339E+02  0.00000000000E+00 0. -1.
</event>
<event>
 7    1  0.2522928E-009  0.1572415E+03  0.7561462E-02  0.1191847E+00
         -1   -1    0    0    0  501 -0.00000000000E+00  0.00000000000E+00  0.15265659098E+03  0.15265659098E+03  0.00000000000E+00 0.  1.
          1   -1    0    0  501    0  0.00000000000E+00 -0.00000000000E+00 -0.21368618061E+03  0.21368618061E+03  0.00000000000E+00 0. -1.
         25    2    1    2    0    0  0.38470779289E+02  0.12675802706E+03  0.23974992716E+02  0.18376756905E+03  0.12509244932E+03 0.  0.
          5    1    3    3  502    0 -0.37174745310E+02  0.43448257590E+02 -0.22974195220E+02  0.61765676734E+02  0.41800000000E+01 0. -1.
         -5    1    3    3    0  502  0.75645524599E+02  0.83309769466E+02  0.46949187936E+02  0.12200189231E+03  0.41800000000E+01 0. -1.
        -11    1    1    2    0    0 -0.13198170943E+01 -0.96822688147E+02 -0.92930594181E+02  0.13421054427E+03  0.00000000000E+00 0. -1.
         11    1    1    2    0    0 -0.37150962194E+02 -0.29935338908E+02  0.79260118346E+01  0.48364658286E+02  0.00000000000E+00 0.  1.
</event>
<event>
 7    1  0.2522928E-009  0.1661935E+03  0.7561462E-02  0.1181877E+00
          1   -1    0    0  501    0  0.00000000000E+00  0.00000000000E+00  0.12178301927E+04  0.12178301927E+04  0.00000000000E+00 0. -1.
         -1   -1    0    0    0  501 -0.00000000000E+00 -0.00000000000E+00 -0.35307055875E+02  0.35307055875E+02  0.00000000000E+00 0.  1.
         25    2    1    2    0    0  0.79031829508E+02  0.13518357638E+03  0.86127872516E+03  0.88429183116E+03  0.12510144223E+03 0.  0.
          5    1    3    3  502    0  0.65898351637E+01  0.19947068020E+02  0.46071364337E+03  0.46121128026E+03  0.41800000000E+01 0.  1.
         -5    1    3    3    0  502  0.72441994345E+02  0.11523650836E+03  0.40056508179E+03  0.42308055091E+03  0.41800000000E+01 0.  1.
        -11    1    1    2    0    0 -0.61512917505E+02 -0.30518372973E+02  0.17633628157E+03  0.18923449555E+03  0.00000000000E+00 0. -1.
         11    1    1    2    0    0 -0.17518912003E+02 -0.10466520341E+03  0.14490813005E+03  0.17961092182E+03  0.00000000000E+00 0.  1.
</event>
<event>
 7    1  0.2522928E-009  0.1379049E+03  0.7561462E-02  0.1216176E+00
          2   -1    0    0  501    0  0.00000000000E+00  0.00000000000E+00  0.56774158710E+03  0.56774158710E+03  0.00000000000E+00 0. -1.
         -2   -1    0    0    0  501 -0.00000000000E+00 -0.00000000000E+00 -0.39103357587E+02  0.39103357587E+02  0.00000000000E+00 0.  1.
         25    2    1    2    0    0  0.10148643819E+03  0.17535169792E+02  0.27878937687E+03  0.32245524035E+03  0.12508751359E+03 0.  0.
          5    1    3    3  502    0 -0.28744500242E+02 -0.55942763631E+01  0.46365209446E+02  0.54997702399E+02  0.41800000000E+01 0.  1.
         -5    1    3    3    0  502  0.13023093843E+03  0.23129446155E+02  0.23242416742E+03  0.26745753795E+03  0.41800000000E+01 0.  1.
        -11    1    1    2    0    0 -0.79468092946E+02 -0.33964369548E+02  0.10055763536E+03  0.13259183317E+03  0.00000000000E+00 0.  1.
         11    1    1    2    0    0 -0.22018345243E+02  0.16429199756E+02  0.14929121729E+03  0.15179787117E+03  0.00000000000E+00 0. -1.
</event>
<event>
 7    1  0.2522928E-009  0.9323662E+02  0.7561462E-02  0.1295198E+00
         -1   -1    0    0    0  501 -0.00000000000E+00  0.00000000000E+00  0.38610612954E+03  0.38610612954E+03  0.00000000000E+00 0.  1.
          1   -1    0    0  501    0  0.00000000000E+00 -0.00000000000E+00 -0.48259799386E+02  0.48259799386E+02  0.00000000000E+00 0. -1.
         25    2    1    2    0    0  0.31383723094E+02  0.23152151295E+02  0.68420279598E+02  0.14781637532E+03  0.12508951182E+03 0.  0.
          5    1    3    3  502    0  0.26302409862E+02  0.59774179781E+02 -0.48721802552E+01  0.65619965509E+02  0.41800000000E+01 0.  1.
         -5    1    3    3    0  502  0.50813132324E+01 -0.36622028486E+02  0.73292459853E+02  0.82196409812E+02  0.41800000000E+01 0.  1.
        -11    1    1    2    0    0 -0.20292850964E+02  0.26258461064E+02  0.41868539411E+02  0.53425473045E+02  0.00000000000E+00 0. -1.
         11    1    1    2    0    0 -0.11090872130E+02 -0.49410612359E+02  0.22755751115E+03  0.23312408056E+03  0.00000000000E+00 0.  1.
</event>
<event>
 7    1  0.2522928E-009  0.1045021E+03  0.7561462E-02  0.1271104E+00
         -1   -1    0    0    0  501 -0.00000000000E+00  0.00000000000E+00  0.33746323229E+02  0.33746323229E+02  0.00000000000E+00 0.  1.
          1   -1    0    0  501    0  0.00000000000E+00 -0.00000000000E+00 -0.41297912321E+03  0.41297912321E+03  0.00000000000E+00 0. -1.
         25    2    1    2    0    0 -0.90928431370E+01  0.43259459422E+02 -0.18700659600E+03  0.22928815770E+03  0.12509009428E+03 0.  0.
          5    1    3    3  502    0 -0.58276795893E+02  0.24387697665E+02 -0.44742974219E+02  0.77526452769E+02  0.41800000000E+01 0. -1.
         -5    1    3    3    0  502  0.49183952756E+02  0.18871761758E+02 -0.14226362179E+03  0.15176170493E+03  0.41800000000E+01 0. -1.
        -11    1    1    2    0    0  0.44972916678E+02 -0.15811592145E+02 -0.14246391740E+03  0.15022828442E+03  0.00000000000E+00 0. -1.
         11    1    1    2    0    0 -0.35880073541E+02 -0.27447867277E+02 -0.49762286580E+02  0.67209004315E+02  0.00000000000E+00 0.  1.
</event>
<event>
 7    1  0.2522928E-009  0.9777186E+02  0.7561462E-02  0.1285052E+00
          2   -1    0    0  501    0  0.00000000000E+00  0.00000000000E+00  0.17112413727E+03  0.17112413727E+03  0.00000000000E+00 0. -1.
         -2   -1    0    0    0  501 -0.00000000000E+00 -0.00000000000E+00 -0.12276423317E+03  0.12276423317E+03  0.00000000000E+00 0.  1.
         25    2    1    2    0    0  0.11371632102E+02  0.10890023010E+02  0.10740757068E+03  0.16564170105E+03  0.12511147138E+03 0.  0.
          5    1    3    3  502    0 -0.35300834695E+02  0.90192981979E+01  0.11263457585E+03  0.11845470335E+03  0.41800000000E+01 0. -1.
         -5    1    3    3    0  502  0.46672466798E+02  0.18707248122E+01 -0.52270051722E+01  0.47186997694E+02  0.41800000000E+01 0. -1.
        -11    1    1    2    0    0 -0.19305745893E+02  0.48424216693E+02 -0.16004968830E+02  0.54532335491E+02  0.00000000000E+00 0. -1.
         11    1    1    2    0    0  0.79341137907E+01 -0.59314239703E+02 -0.43042697743E+02  0.73714333899E+02  0.00000000000E+00 0.  1.
</event>
<event>
 7    1  0.2522928E-009  0.9191029E+02  0.7561462E-02  0.1298290E+00
          2   -1    0    0  501    0  0.00000000000E+00  0.00000000000E+00  0.10387309051E+04  0.10387309051E+04  0.00000000000E+00 0. -1.
         -2   -1    0    0    0  501 -0.00000000000E+00 -0.00000000000E+00 -0.18507572102E+02  0.18507572102E+02  0.00000000000E+00 0.  1.
         25    2    1    2    0    0  0.30689644858E+02  0.62735889671E+01  0.88868325125E+03  0.89799014447E+03  0.12508863374E+03 0.  0.
          5    1    3    3  502    0  0.14613933172E+02  0.47770114893E+02  0.15411212967E+03  0.16206039563E+03  0.41800000000E+01 0. -1.
         -5    1    3    3    0  502  0.16075711687E+02 -0.41496525926E+02  0.73457112157E+03  0.73592974884E+03  0.41800000000E+01 0. -1.
        -11    1    1    2    0    0 -0.54605115382E+02  0.15381556426E+02  0.73537151289E+02  0.92876388408E+02  0.00000000000E+00 0.  1.
         11    1    1    2    0    0  0.23915470524E+02 -0.21655145393E+02  0.58002930490E+02  0.66371944358E+02  0.00000000000E+00 0. -1.
</event>
<event>
 7    1  0.2522928E-009  0.1776891E+03  0.7561462E-02  0.1170058E+00
          3   -1    0    0  501    0  0.00000000000E+00  0.00000000000E+00  0.74398531441E+02  0.74398531441E+02  0.00000000000E+00 0. -1.
         -3   -1    0    0    0  501 -0.00000000000E+00 -0.00000000000E+00 -0.45248226785E+03  0.45248226785E+03  0.00000000000E+00 0.  1.
         25    2    1    2    0    0 -0.39879451661E+01 -0.14738179730E+03 -0.21169322450E+03  0.28670416047E+03  0.12509179209E+03 0.  0.
          5    1    3    3  502    0 -0.34535139174E+02  0.21749461312E+00 -0.77107094492E+02  0.84591368133E+02  0.41800000000E+01 0. -1.
         -5    1    3    3    0  502  0.30547194008E+02 -0.14759929191E+03 -0.13458613001E+03  0.20211279233E+03  0.41800000000E+01 0. -1.
        -11    1    1    2    0    0 -0.39248942282E+02  0.87945269202E+02 -0.70474094750E+02  0.11933753758E+03  0.00000000000E+00 0. -1.
         11    1    1    2    0    0  0.43236887448E+02  0.59436528096E+02 -0.95916417156E+02  0.12083910124E+03  0.00000000000E+00 0.  1.
</event>
<event>
 7    1  0.2522928E-009  0.6115995E+02  0.7561462E-02  0.1393027E+00
         -1   -1    0    0    0  501 -0.00000000000E+00  0.00000000000E+00  0.33932402471E+02  0.33932402471E+02  0.00000000000E+00 0.  1.
          1   -1    0    0  501    0  0.00000000000E+00 -0.00000000000E+00 -0.51425641680E+03  0.51425641680E+03  0.00000000000E+00 0. -1.
         25    2    1    2    0    0 -0.32445811002E+02  0.15899956134E+02 -0.39863574491E+03  0.41936283456E+03  0.12509672513E+03 0.  0.
          5    1    3    3  502    0  0.43402259456E+01  0.35111642842E+01  0.81393560453E+01  0.10718551802E+02  0.41800000000E+01 0. -1.
         -5    1    3    3    0  502 -0.36786036948E+02  0.12388791850E+02 -0.40677510095E+03  0.40864428276E+03  0.41800000000E+01 0. -1.
        -11    1    1    2    0    0  0.53203826825E+02 -0.67871130972E+01 -0.11213455673E+02  0.54794650114E+02  0.00000000000E+00 0.  1.
         11    1    1    2    0    0 -0.20758015823E+02 -0.91128430367E+01 -0.70474813748E+02  0.74031334595E+02  0.00000000000E+00 0. -1.
</event>
<event>
 7    1  0.2522928E-009  0.1695796E+03  0.7561462E-02  0.1178287E+00
         -1   -1    0    0    0  501 -0.00000000000E+00  0.00000000000E+00  0.26063596962E+03  0.26063596962E+03  0.00000000000E+00 0.  1.
          1   -1    0    0  501    0  0.00000000000E+00 -0.00000000000E+00 -0.14371038300E+03  0.14371038300E+03  0.00000000000E+00 0. -1.
         25    2    1    2    0    0  0.13288960855E+03  0.50347607291E+02  0.14675385321E+03  0.23953969661E+03  0.12509213883E+03 0.  0.
          5    1    3    3  502    0  0.15202598004E+03  0.42182900299E+02  0.96500751387E+02  0.18498962972E+03  0.41800000000E+01 0.  1.
         -5    1    3    3    0  502 -0.19136371494E+02  0.81647069918E+01  0.50253101827E+02  0.54550066888E+02  0.41800000000E+01 0.  1.
        -11    1    1    2    0    0 -0.12442291946E+03 -0.16846112245E+02 -0.12581683870E+02  0.12618697696E+03  0.00000000000E+00 0.  1.
         11    1    1    2    0    0 -0.84666890860E+01 -0.33501495046E+02 -0.17246582718E+02  0.38619679049E+02  0.00000000000E+00 0. -1.
</event>
<event>
 7    1  0.2522928E-009  0.1002212E+03  0.7561462E-02  0.1279832E+00
         -4   -1    0    0    0  501 -0.00000000000E+00  0.00000000000E+00  0.65979593038E+02  0.65979593038E+02  0.00000000000E+00 0.  1.
          4   -1    0    0  501    0  0.00000000000E+00 -0.00000000000E+00 -0.28162632183E+03  0.28162632183E+03  0.00000000000E+00 0. -1.
         25    2    1    2    0    0  0.15511808788E+02 -0.35852044285E+02 -0.21181166741E+03  0.24905904997E+03  0.12506095565E+03 0.  0.
          5    1    3    3  502    0 -0.42763898212E+02 -0.42161745069E+02 -0.15913419534E+03  0.17013973158E+03  0.41800000000E+01 0.  1.
         -5    1    3    3    0  502  0.58275707000E+02  0.63097007839E+01 -0.52677472071E+02  0.78919318384E+02  0.41800000000E+01 0.  1.
        -11    1    1    2    0    0 -0.20634460237E+02 -0.18000997156E+02  0.25145660836E+02  0.37176889418E+02  0.00000000000E+00 0.  1.
         11    1    1    2    0    0  0.51226514491E+01  0.53853041441E+02 -0.28980722219E+02  0.61369975482E+02  0.00000000000E+00 0. -1.
</event>
<event>
 7    1  0.2522928E-009  0.2292638E+03  0.7561462E-02  0.1127159E+00
         -1   -1    0    0    0  501 -0.00000000000E+00  0.00000000000E+00  0.38545381025E+02  0.38545381025E+02  0.00000000000E+00 0.  1.
          1   -1    0    0  501    0  0.00000000000E+00 -0.00000000000E+00 -0.15129604743E+04  0.15129604743E+04  0.00000000000E+00 0. -1.
         25    2    1    2    0    0 -0.11975702743E+03 -0.16900758903E+03 -0.95443483635E+03  0.98463123336E+03  0.12508996000E+03 0.  0.
          5    1    3    3  502    0 -0.84014992236E+02 -0.17748490287E+03 -0.87831948789E+03  0.90001222485E+03  0.41800000000E+01 0.  1.
         -5    1    3    3    0  502 -0.35742035192E+02  0.84773138446E+01 -0.76115348463E+02  0.84619008510E+02  0.41800000000E+01 0.  1.
        -11    1    1    2    0    0  0.63425837765E+02  0.21048278768E+02 -0.17398658574E+03  0.18637918058E+03  0.00000000000E+00 0. -1.
         11    1    1    2    0    0  0.56331189662E+02  0.14795931026E+03 -0.34599367120E+03  0.38049544141E+03  0.00000000000E+00 0.  1.
</event>
<event>
 7    1  0.2522928E-009  0.1440297E+03  0.7561462E-02  0.1208007E+00
          2   -1    0    0  501    0  0.00000000000E+00  0.00000000000E+00  0.12774766355E+04  0.12774766355E+04  0.00000000000E+00 0.  1.
         -2   -1    0    0    0  501 -0.00000000000E+00 -0.00000000000E+00 -0.17949902389E+02  0.17949902389E+02  0.00000000000E+00 0. -1.
         25    2    1    2    0    0 -0.25981794014E+02  0.93726558158E+02  0.85898127313E+03  0.87347371842E+03  0.12509111820E+03 0.  0.
          5    1    3    3  502    0  0.49432781287E+02  0.31715208137E+02  0.38989868226E+03  0.39431955204E+03  0.41800000000E+01 0.  1.
         -5    1    3    3    0  502 -0.75414575301E+02  0.62011350022E+02  0.46908259087E+03  0.47915416638E+03  0.41800000000E+01 0.  1.
        -11    1    1    2    0    0  0.58207165883E+02 -0.47636865184E+02  0.20017001983E+03  0.21383494084E+03  0.00000000000E+00 0.  1.
         11    1    1    2    0    0 -0.32225371869E+02 -0.46089692974E+02  0.20037544012E+03  0.20811787861E+03  0.00000000000E+00 0. -1.
</event>
<event>
 7    1  0.2522928E-009  0.9974891E+02  0.7561462E-02  0.1280825E+00
          2   -1    0    0  501    0  0.00000000000E+00  0.00000000000E+00  0.14630727864E+04  0.14630727864E+04  0.00000000000E+00 0. -1.
         -2   -1    0    0    0  501 -0.00000000000E+00 -0.00000000000E+00 -0.13459634087E+02  0.13459634087E+02  0.00000000000E+00 0.  1.
         25    2    1    2    0    0  0.44304123640E+02 -0.23435893766E+02  0.11921436009E+04  0.11997357382E+04  0.12508948704E+03 0.  0.
          5    1    3    3  502    0  0.46982328363E+02 -0.52167724378E+02  0.11157893198E+04  0.11180036177E+04  0.41800000000E+01 0.  1.
         -5    1    3    3    0  502 -0.26782047227E+01  0.28731830612E+02  0.76354281155E+02  0.81732120501E+02  0.41800000000E+01 0.  1.
        -11    1    1    2    0    0 -0.61088738792E+02 -0.10655573060E+02  0.18248573134E+03  0.19273405871E+03  0.00000000000E+00 0. -1.
         11    1    1    2    0    0  0.16784615152E+02  0.34091466826E+02  0.74983820060E+02  0.84062623602E+02  0.00000000000E+00 0.  1.
</event>
<event>
 7    1  0.2522928E-009  0.7883279E+02  0.7561462E-02  0.1332397E+00
          3   -1    0    0  501    0  0.00000000000E+00  0.00000000000E+00  0.21022309324E+03  0.21022309324E+03  0.00000000000E+00 0. -1.
         -3   -1    0    0    0  501 -0.00000000000E+00 -0.00000000000E+00 -0.61370719912E+02  0.61370719912E+02  0.00000000000E+00 0.  1.
         25    2    1    2    0    0 -0.11542952858E+02  0.89059927223E+01  0.12103617931E+03  0.17467073056E+03  0.12509017126E+03 0.  0.
          5    1    3    3  502    0  0.42792830423E+02 -0.89181433955E+01  0.10697169446E+03  0.11563379884E+03  0.41800000000E+01 0.  1.
         -5    1    3    3    0  502 -0.54335783281E+02  0.17824136118E+02  0.14064484848E+02  0.59036931722E+02  0.41800000000E+01 0.  1.
        -11    1    1    2    0    0  0.33544378355E+02 -0.32596771291E+01 -0.23310040436E+02  0.40978150267E+02  0.00000000000E+00 0.  1.
         11    1    1    2    0    0 -0.22001425496E+02 -0.56463155932E+01  0.51126234453E+02  0.55944932326E+02  0.00000000000E+00 0. -1.
</event>
<event>
 7    1  0.2522928E-009  0.1299575E+03  0.7561462E-02  0.1227519E+00
         -2   -1    0    0    0  501 -0.00000000000E+00  0.00000000000E+00  0.38695734948E+02  0.38695734948E+02  0.00000000000E+00 0.  1.
          2   -1    0    0  501    0  0.00000000000E+00 -0.00000000000E+00 -0.49019563597E+03  0.49019563597E+03  0.00000000000E+00 0. -1.
         25    2    1    2    0    0 -0.40729135463E+02 -0.71062633972E+02 -0.21034884246E+03  0.25807579132E+03  0.12509083947E+03 0.  0.
          5    1    3    3  502    0  0.18590186371E+02  0.28060311682E+02 -0.48985738445E+02  0.59582305192E+02  0.41800000000E+01 0. -1.
         -5    1    3    3    0  502 -0.59319321833E+02 -0.99122945654E+02 -0.16136310401E+03  0.19849348613E+03  0.41800000000E+01 0. -1.
        -11    1    1    2    0    0  0.15985272163E+02 -0.14348935861E+02 -0.11105787646E+02  0.24181799058E+02  0.00000000000E+00 0.  1.
         11    1    1    2    0    0  0.24743863299E+02  0.85411569833E+02 -0.23004527092E+03  0.24663378054E+03  0.00000000000E+00 0. -1.
</event>
<event>
 7    1  0.2522928E-009  0.1364357E+03  0.7561462E-02  0.1218207E+00
         -2   -1    0    0    0  501 -0.00000000000E+00  0.00000000000E+00  0.15635717521E+03  0.15635717521E+03  0.00000000000E+00 0.  1.
          2   -1    0    0  501    0  0.00000000000E+00 -0.00000000000E+00 -0.16369514054E+03  0.16369514054E+03  0.00000000000E+00 0. -1.
         25    2    1    2    0    0 -0.64364989433E+02  0.83419669511E+02  0.48481136589E+02  0.17057733296E+03  0.12507802680E+03 0.  0.
          5    1    3    3  502    0 -0.40358166576E+02  0.10016898809E+03 -0.63718452812E+01  0.10826209215E+03  0.41800000000E+01 0.  1.
         -5    1    3    3    0  502 -0.24006822857E+02 -0.16749318583E+02  0.54852981870E+02  0.62315240806E+02  0.41800000000E+01 0.  1.
        -11    1    1    2    0    0  0.69699880426E+02 -0.21303338917E+02 -0.46459271938E+02  0.86431299478E+02  0.00000000000E+00 0. -1.
         11    1    1    2    0    0 -0.53348909931E+01 -0.62116330594E+02 -0.93598299864E+01  0.63043683314E+02  0.00000000000E+00 0.  1.
</event>
<event>
 7    1  0.2522928E-009  0.1191171E+03  0.7561462E-02  0.1244561E+00
          1   -1    0    0  501    0  0.00000000000E+00  0.00000000000E+00  0.39718664012E+03  0.39718664012E+03  0.00000000000E+00 0. -1.
         -1   -1    0    0    0  501 -0.00000000000E+00 -0.00000000000E+00 -0.47037841969E+02  0.47037841969E+02  0.00000000000E+00 0.  1.
         25    2    1    2    0    0 -0.66062374416E+02  0.22774024003E+02  0.27538016963E+03  0.31042684673E+03  0.12509075049E+03 0.  0.
          5    1    3    3  502    0  0.10383307985E+02  0.47686813905E+02  0.45497073719E+02  0.66852834062E+02  0.41800000000E+01 0.  1.
         -5    1    3    3    0  502 -0.76445682401E+02 -0.24912789902E+02  0.22988309591E+03  0.24357401267E+03  0.41800000000E+01 0.  1.
        -11    1    1    2    0    0 -0.15006566890E+02  0.13258099466E+02  0.42531817116E+01  0.20471047994E+02  0.00000000000E+00 0.  1.
         11    1    1    2    0    0  0.81068941307E+02 -0.36032123469E+02  0.70515446804E+02  0.11332658737E+03  0.00000000000E+00 0. -1.
</event>
<event>
 7    1  0.2522928E-009  0.1518506E+03  0.7561462E-02  0.1198217E+00
          3   -1    0    0  501    0  0.00000000000E+00  0.00000000000E+00  0.62297066068E+02  0.62297066068E+02  0.00000000000E+00 0. -1.
         -3   -1    0    0    0  501 -0.00000000000E+00 -0.00000000000E+00 -0.38347779939E+03  0.38347779939E+03  0.00000000000E+00 0.  1.
         25    2    1    2    0    0 -0.10055087680E+03 -0.39420823226E+02 -0.20035557873E+03  0.25972441016E+03  0.12509968496E+03 0.  0.
          5    1    3    3  502    0  0.10734187116E+02 -0.51862144873E+02 -0.68442714651E+02  0.86641689923E+02  0.41800000000E+01 0. -1.
         -5    1    3    3    0  502 -0.11128506392E+03  0.12441321648E+02 -0.13191286408E+03  0.17308272024E+03  0.41800000000E+01 0. -1.
        -11    1    1    2    0    0  0.10780926479E+03  0.55222698230E+02 -0.90914798891E+02  0.15145258213E+03  0.00000000000E+00 0. -1.
         11    1    1    2    0    0 -0.72583879893E+01 -0.15801875005E+02 -0.29910355698E+02  0.34597873170E+02  0.00000000000E+00 0.  1.
</event>
<event>
 7    1  0.2522928E-009  0.1035800E+03  0.7561462E-02  0.1272943E+00
         -1   -1    0    0    0  501 -0.00000000000E+00  0.00000000000E+00  0.19092259669E+02  0.19092259669E+02  0.00000000000E+00 0.  1.
          1   -1    0    0  501    0  0.00000000000E+00 -0.00000000000E+00 -0.77940596768E+03  0.77940596768E+03  0.00000000000E+00 0. -1.
         25    2    1    2    0    0 -0.39310985809E+02  0.79627574422E+00 -0.54921264529E+03  0.56464808196E+03  0.12508772543E+03 0.  0.
          5    1    3    3  502    0  0.43590878040E+02 -0.15513698428E+02 -0.18596711625E+03  0.19168223760E+03  0.41800000000E+01 0.  1.
         -5    1    3    3    0  502 -0.82901863849E+02  0.16309974172E+02 -0.36324552905E+03  0.37296584436E+03  0.41800000000E+01 0.  1.
        -11    1    1    2    0    0  0.21719012878E+02 -0.32945461301E+02 -0.31340409450E+02  0.50391866459E+02  0.00000000000E+00 0.  1.
         11    1    1    2    0    0  0.17591972931E+02  0.32149185557E+02 -0.17976065327E+03  0.18345827892E+03  0.00000000000E+00 0. -1.
</event>
<event>
 7    1  0.2522928E-009  0.1036157E+03  0.7561462E-02  0.1272871E+00
          1   -1    0    0  501    0  0.00000000000E+00  0.00000000000E+00  0.11102052573E+03  0.11102052573E+03  0.00000000000E+00 0. -1.
         -1   -1    0    0    0  501 -0.00000000000E+00 -0.00000000000E+00 -0.13548679937E+03  0.13548679937E+03  0.00000000000E+00 0.  1.
         25    2    1    2    0    0 -0.24286220163E+02 -0.38269369767E+01 -0.67165003070E+02  0.14409571496E+03  0.12509185223E+03 0.  0.
          5    1    3    3  502    0 -0.58708504265E+02 -0.37276221154E+02 -0.11728023835E+02  0.70648595737E+02  0.41800000000E+01 0.  1.
         -5    1    3    3    0  502  0.34422284102E+02  0.33449284178E+02 -0.55436979236E+02  0.73447119219E+02  0.41800000000E+01 0.  1.
        -11    1    1    2    0    0 -0.90057757386E+01  0.39544350836E+02  0.52879002704E+01  0.40900141430E+02  0.00000000000E+00 0.  1.
         11    1    1    2    0    0  0.33291995901E+02 -0.35717413859E+02  0.37410829160E+02  0.61511468706E+02  0.00000000000E+00 0. -1.
</event>
<event>
 7    1  0.2522928E-009  0.1214993E+03  0.7561462E-02  0.1240644E+00
         -1   -1    0    0    0  501 -0.00000000000E+00  0.00000000000E+00  0.17897656475E+03  0.17897656475E+03  0.00000000000E+00 0.  1.
          1   -1    0    0  501    0  0.00000000000E+00 -0.00000000000E+00 -0.14988771217E+03  0.14988771217E+03  0.00000000000E+00 0. -1.
         25    2    1    2    0    0  0.52858925483E+02  0.21697401102E+02 -0.91876587627E+02  0.16539429996E+03  0.12509645833E+03 0.  0.
          5    1    3    3  502    0  0.26861482708E+02 -0.49921122498E+02 -0.60138768634E+02  0.82751444807E+02  0.41800000000E+01 0. -1.
         -5    1    3    3    0  502  0.25997442775E+02  0.71618523600E+02 -0.31737818993E+02  0.82642855153E+02  0.41800000000E+01 0. -1.
        -11    1    1    2    0    0  0.12179502728E+02  0.26323308228E+02  0.35123494001E+02  0.45551253261E+02  0.00000000000E+00 0.  1.
         11    1    1    2    0    0 -0.65038428211E+02 -0.48020709330E+02  0.85841946208E+02  0.11791872369E+03  0.00000000000E+00 0. -1.
</event>
<event>
 7    1  0.2522928E-009  0.1071625E+03  0.7561462E-02  0.1265917E+00
         -2   -1    0    0    0  501 -0.00000000000E+00  0.00000000000E+00  0.89306728513E+02  0.89306728513E+02  0.00000000000E+00 0.  1.
          2   -1    0    0  501    0  0.00000000000E+00 -0.00000000000E+00 -0.17169747218E+03  0.17169747218E+03  0.00000000000E+00 0. -1.
         25    2    1    2    0    0 -0.10436933775E+02 -0.53629113681E+02 -0.24832277218E+02  0.13872279405E+03  0.12506942143E+03 0.  0.
          5    1    3    3  502    0  0.18542883796E+01 -0.80146422181E+02  0.22111413476E+02  0.83266285973E+02  0.41800000000E+01 0.  1.
         -5    1    3    3    0  502 -0.12291222155E+02  0.26517308500E+02 -0.46943690694E+02  0.55456508077E+02  0.41800000000E+01 0.  1.
        -11    1    1    2    0    0  0.27431169870E+02  0.73455521355E+02 -0.29043947410E+02  0.83616586746E+02  0.00000000000E+00 0.  1.
         11    1    1    2    0    0 -0.16994236095E+02 -0.19826407673E+02 -0.28514519038E+02  0.38664819897E+02  0.00000000000E+00 0. -1.
</event>
<event>
 7    1  0.2522928E-009  0.8261868E+02  0.7561462E-02  0.1321780E+00
          1   -1    0    0  501    0  0.00000000000E+00  0.00000000000E+00  0.45065857367E+02  0.45065857367E+02  0.00000000000E+00 0. -1.
         -1   -1    0    0    0  501 -0.00000000000E+00 -0.00000000000E+00 -0.29761467717E+03  0.29761467717E+03  0.00000000000E+00 0.  1.
         25    2    1    2    0    0 -0.15499960272E+02 -0.24059548317E+01 -0.20524685399E+03  0.24087161543E+03  0.12508727617E+03 0.  0.
          5    1    3    3  502    0 -0.39374572600E+02  0.46016840180E+02 -0.15706573731E+03  0.16838950319E+03  0.41800000000E+01 0. -1.
         -5    1    3    3    0  502  0.23874612329E+02 -0.48422795012E+02 -0.48181116687E+02  0.72482112247E+02  0.41800000000E+01 0. -1.
        -11    1    1    2    0    0  0.25435103758E+02  0.18510295740E+02 -0.67292921873E+02  0.74282655350E+02  0.00000000000E+00 0.  1.
         11    1    1    2    0    0 -0.99351434860E+01 -0.16104340908E+02  0.19990956060E+02  0.27526263756E+02  0.00000000000E+00 0. -1.
</event>
<event>
 7    1  0.2522928E-009  0.9557698E+02  0.7561462E-02  0.1289882E+00
          2   -1    0    0  501    0  0.00000000000E+00  0.00000000000E+00  0.26876878930E+03  0.26876878930E+03  0.00000000000E+00 0.  1.
         -2   -1    0    0    0  501 -0.00000000000E+00 -0.00000000000E+00 -0.92831544562E+02  0.92831544562E+02  0.00000000000E+00 0. -1.
         25    2    1    2    0    0 -0.27323374359E+02  0.41189918900E+02  0.21470196719E+03  0.25335227891E+03  0.12508903354E+03 0.  0.
          5    1    3    3  502    0  0.13239045352E+02  0.54114421020E+02  0.20071836304E+03  0.20834820984E+03  0.41800000000E+01 0. -1.
         -5    1    3    3    0  502 -0.40562419711E+02 -0.12924502120E+02  0.13983604148E+02  0.45004069070E+02  0.41800000000E+01 0. -1.
        -11    1    1    2    0    0  0.47975609911E+02 -0.17698648121E+01  0.17862118754E+01  0.48041462516E+02  0.00000000000E+00 0.  1.
         11    1    1    2    0    0 -0.20652235552E+02 -0.39420054088E+02 -0.40550934325E+02  0.60206592432E+02  0.00000000000E+00 0. -1.
</event>
<event>
 7    1  0.2522928E-009  0.6972190E+02  0.7561462E-02  0.1361041E+00
          1   -1    0    0  501    0  0.00000000000E+00  0.00000000000E+00  0.12296021474E+03  0.12296021474E+03  0.00000000000E+00 0. -1.
         -1   -1    0    0    0  501 -0.00000000000E+00 -0.00000000000E+00 -0.14847875572E+03  0.14847875572E+03  0.00000000000E+00 0.  1.
         25    2    1    2    0    0 -0.21557259463E+02  0.71532841901E+01 -0.91596568500E+02  0.15669324835E+03  0.12508780039E+03 0.  0.
          5    1    3    3  502    0 -0.30891342067E+02 -0.65661688902E+01 -0.11965788045E+03  0.12382596797E+03  0.41800000000E+01 0.  1.
         -5    1    3    3    0  502  0.93340826038E+01  0.13719453080E+02  0.28061311954E+02  0.32867280378E+02  0.41800000000E+01 0.  1.
        -11    1    1    2    0    0 -0.16514949961E+02  0.31908117322E+02  0.41575178890E+02  0.54948767257E+02  0.00000000000E+00 0. -1.
         11    1    1    2    0    0  0.38072209425E+02 -0.39061401512E+02  0.24502848639E+02  0.59796954855E+02  0.00000000000E+00 0.  1.
</event>
<event>
 7    1  0.2522928E-009  0.1101139E+03  0.7561462E-02  0.1260359E+00
         -4   -1    0    0    0  501 -0.00000000000E+00  0.00000000000E+00  0.32130129831E+02  0.32130129831E+02  0.00000000000E+00 0.  1.
          4   -1    0    0  501    0  0.00000000000E+00 -0.00000000000E+00 -0.61715053624E+03  0.61715053624E+03  0.00000000000E+00 0. -1.
         25    2    1    2    0    0  0.76630758204E+02 -0.42055180022E+02 -0.37440559310E+03  0.40431117422E+03  0.12508823360E+03 0.  0.
          5    1    3    3  502    0  0.45262140028E+02 -0.49617157691E+02 -0.36397553488E+03  0.37014346685E+03  0.41800000000E+01 0. -1.
         -5    1    3    3    0  502  0.31368618177E+02  0.75619776689E+01 -0.10430058218E+02  0.34167707371E+02  0.41800000000E+01 0. -1.
        -11    1    1    2    0    0 -0.27955897328E+02 -0.25025529016E+02 -0.99573842028E+02  0.10640845509E+03  0.00000000000E+00 0. -1.
         11    1    1    2    0    0 -0.48674860877E+02  0.67080709038E+02 -0.11104097128E+03  0.13856103676E+03  0.00000000000E+00 0.  1.
</event>
<event>
 7    1  0.2522928E-009  0.2018174E+03  0.7561462E-02  0.1148215E+00
          1   -1    0    0  501    0  0.00000000000E+00  0.00000000000E+00  0.11466062438E+04  0.11466062438E+04  0.00000000000E+00 0. -1.
         -1   -1    0    0    0  501 -0.00000000000E+00 -0.00000000000E+00 -0.39751446150E+02  0.39751446150E+02  0.00000000000E+00 0.  1.
         25    2    1    2    0    0  0.91925488283E+02  0.15943164149E+03  0.60998037789E+03  0.64930141947E+03  0.12509008038E+03 0.  0.
          5    1    3    3  502    0 -0.24671094882E+02  0.60353220695E+02  0.12980794151E+03  0.14532291027E+03  0.41800000000E+01 0. -1.
         -5    1    3    3    0  502  0.11659658316E+03  0.99078420799E+02  0.48017243639E+03  0.50397850920E+03  0.41800000000E+01 0. -1.
        -11    1    1    2    0    0 -0.19776643014E+02 -0.53761732655E+02  0.65064039598E+02  0.86687765894E+02  0.00000000000E+00 0.  1.
         11    1    1    2    0    0 -0.72148845269E+02 -0.10566990884E+03  0.43181038015E+03  0.45036850457E+03  0.00000000000E+00 0. -1.
</event>
<event>
 7    1  0.2522928E-009  0.8631466E+02  0.7561462E-02  0.1312030E+00
          2   -1    0    0  501    0  0.00000000000E+00  0.00000000000E+00  0.25921878451E+03  0.25921878451E+03  0.00000000000E+00 0. -1.
         -2   -1    0    0    0  501 -0.00000000000E+00 -0.00000000000E+00 -0.60469188232E+02  0.60469188232E+02  0.00000000000E+00 0.  1.
         25    2    1    2    0    0 -0.28760804900E+02 -0.55352710491E+02  0.94903702474E+02  0.16895355793E+03  0.12508990982E+03 0.  0.
          5    1    3    3  502    0 -0.24475353176E+02 -0.42696646329E+02 -0.19936316335E+02  0.53263267172E+02  0.41800000000E+01 0.  1.
         -5    1    3    3    0  502 -0.42854517245E+01 -0.12656064162E+02  0.11484001881E+03  0.11569029076E+03  0.41800000000E+01 0.  1.
        -11    1    1    2    0    0 -0.26371295836E+02  0.46417804442E+02  0.49355874698E+02  0.72705296785E+02  0.00000000000E+00 0. -1.
         11    1    1    2    0    0  0.55132100736E+02  0.89349060488E+01  0.54490019108E+02  0.78029118027E+02  0.00000000000E+00 0.  1.
</event>
<event>
 7    1  0.2522928E-009  0.8866610E+02  0.7561462E-02  0.1306114E+00
          1   -1    0    0  501    0  0.00000000000E+00  0.00000000000E+00  0.20089414979E+03  0.20089414979E+03  0.00000000000E+00 0. -1.
         -1   -1    0    0    0  501 -0.00000000000E+00 -0.00000000000E+00 -0.95327324466E+02  0.95327324466E+02  0.00000000000E+00 0.  1.
         25    2    1    2    0    0  0.69547001388E+02  0.47987951894E+01  0.65750955014E+01  0.14335108170E+03  0.12508591810E+03 0.  0.
          5    1    3    3  502    0  0.16577603730E+02  0.10192856978E+02  0.62755334225E+02  0.65836279152E+02  0.41800000000E+01 0. -1.
         -5    1    3    3    0  502  0.52969397659E+02 -0.53940617890E+01 -0.56180238724E+02  0.77514802548E+02  0.41800000000E+01 0. -1.
        -11    1    1    2    0    0 -0.42290678464E+02 -0.40868362874E+02  0.20484694544E+02  0.62276378182E+02  0.00000000000E+00 0.  1.
         11    1    1    2    0    0 -0.27256322925E+02  0.36069567685E+02  0.78507035281E+02  0.90594014377E+02  0.00000000000E+00 0. -1.
</event>
<event>
 7    1  0.2522928E-009  0.8139790E+02  0.7561462E-02  0.1325131E+00
         -1   -1    0    0    0  501 -0.00000000000E+00  0.00000000000E+00  0.69586481150E+02  0.69586481150E+02  0.00000000000E+00 0.  1.
          1   -1    0    0  501    0  0.00000000000E+00 -0.00000000000E+00 -0.22040810090E+03  0.22040810090E+03  0.00000000000E+00 0. -1.
         25    2    1    2    0    0  0.27749773976E+02 -0.67626981690E+02 -0.12673514018E+03  0.19248988876E+03  0.12508838040E+03 0.  0.
          5    1    3    3  502    0  0.29214437691E+00 -0.25535224602E+02 -0.13834269695E+03  0.14074198821E+03  0.41800000000E+01 0. -1.
         -5    1    3    3    0  502  0.27457629599E+02 -0.42091757089E+02  0.11607556770E+02  0.51747900558E+02  0.41800000000E+01 0. -1.
        -11    1    1    2    0    0 -0.24417244202E+01  0.60010981663E+02  0.23720242056E+01  0.60107457417E+02  0.00000000000E+00 0. -1.
         11    1    1    2    0    0 -0.25308049556E+02  0.76160000277E+01 -0.26458503770E+02  0.37397235867E+02  0.00000000000E+00 0.  1.
</event>
<event>
 7    1  0.2522928E-009  0.3008704E+03  0.7561462E-02  0.1084806E+00
          2   -1    0    0  501    0  0.00000000000E+00  0.00000000000E+00  0.26322237516E+04  0.26322237516E+04  0.00000000000E+00 0. -1.
         -2   -1    0    0    0  501 -0.00000000000E+00 -0.00000000000E+00 -0.37889489195E+02  0.37889489195E+02  0.00000000000E+00 0.  1.
         25    2    1    2    0    0 -0.67459555545E+02 -0.28787282351E+03  0.12318101629E+04  0.12729593142E+04  0.12509030369E+03 0.  0.
          5    1    3    3  502    0  0.38851827092E+01 -0.85055172432E+02  0.17707692522E+03  0.19652782716E+03  0.41800000000E+01 0. -1.
         -5    1    3    3    0  502 -0.71344738254E+02 -0.20281765108E+03  0.10547332376E+04  0.10764314870E+04  0.41800000000E+01 0. -1.
        -11    1    1    2    0    0  0.52598751267E+01  0.15121571102E+03  0.83855814625E+03  0.85209953773E+03  0.00000000000E+00 0.  1.
         11    1    1    2    0    0  0.62199680418E+02  0.13665711250E+03  0.52396595330E+03  0.54505438890E+03  0.00000000000E+00 0. -1.
</event>
<event>
 7    1  0.2522928E-009  0.1212280E+03  0.7561462E-02  0.1241085E+00
         -1   -1    0    0    0  501 -0.00000000000E+00  0.00000000000E+00  0.51222743375E+02  0.51222743375E+02  0.00000000000E+00 0.  1.
          1   -1    0    0  501    0  0.00000000000E+00 -0.00000000000E+00 -0.50341900809E+03  0.50341900809E+03  0.00000000000E+00 0. -1.
         25    2    1    2    0    0 -0.11683452840E+03 -0.12058408847E+02 -0.25456154062E+03  0.30699127225E+03  0.12508537497E+03 0.  0.
          5    1    3    3  502    0 -0.30826784996E+02  0.95175821953E+01 -0.20035372597E+03  0.20297774004E+03  0.41800000000E+01 0.  1.
         -5    1    3    3    0  502 -0.86007743400E+02 -0.21575991042E+02 -0.54207814648E+02  0.10401353221E+03  0.41800000000E+01 0.  1.
        -11    1    1    2    0    0  0.29815587049E+02 -0.98814897684E+01 -0.13401145179E+03  0.13764331543E+03  0.00000000000E+00 0.  1.
         11    1    1    2    0    0  0.87018941346E+02  0.21939898615E+02 -0.63623272314E+02  0.11000716379E+03  0.00000000000E+00 0. -1.
</event>
<event>
 7    1  0.2522928E-009  0.1396145E+03  0.7561462E-02  0.1213849E+00
          1   -1    0    0  501    0  0.00000000000E+00  0.00000000000E+00  0.29389893238E+03  0.29389893238E+03  0.00000000000E+00 0. -1.
         -1   -1    0    0    0  501 -0.00000000000E+00 -0.00000000000E+00 -0.92360975456E+02  0.92360975456E+02  0.00000000000E+00 0.  1.
         25    2    1    2    0    0  0.86749274568E+02 -0.71640779830E+02  0.46891591131E+02  0.17465675810E+03  0.12509326064E+03 0.  0.
          5    1    3    3  502    0 -0.13391428436E+02 -0.58208573895E+02 -0.66323496806E+01  0.60241421736E+02  0.41800000000E+01 0. -1.
         -5    1    3    3    0  502  0.10014070300E+03 -0.13432205935E+02  0.53523940811E+02  0.11441533636E+03  0.41800000000E+01 0. -1.
        -11    1    1    2    0    0 -0.59716676784E+02  0.25885661906E+02  0.14311880233E+03  0.15722321889E+03  0.00000000000E+00 0. -1.
         11    1    1    2    0    0 -0.27032597784E+02  0.45755117925E+02  0.11527563460E+02  0.54379930844E+02  0.00000000000E+00 0.  1.
</event>
<event>
 7    1  0.2522928E-009  0.1364200E+03  0.7561462E-02  0.1218229E+00
         -2   -1    0    0    0  501 -0.00000000000E+00  0.00000000000E+00  0.67068897102E+02  0.67068897102E+02  0.00000000000E+00 0.  1.
          2   -1    0    0  501    0  0.00000000000E+00 -0.00000000000E+00 -0.43942611134E+03  0.43942611134E+03  0.00000000000E+00 0. -1.
         25    2    1    2    0    0  0.21848040820E+02 -0.11861533411E+03 -0.28196685284E+03  0.33121005812E+03  0.12509141506E+03 0.  0.
          5    1    3    3  502    0  0.33507972151E+01 -0.75279575585E+02 -0.41485734959E+02  0.86120734712E+02  0.41800000000E+01 0. -1.
         -5    1    3    3    0  502  0.18497243605E+02 -0.43335758526E+02 -0.24048111788E+03  0.24508932341E+03  0.41800000000E+01 0. -1.
        -11    1    1    2    0    0 -0.37723629116E+02  0.12673841441E+03 -0.81814417543E+02  0.15549693501E+03  0.00000000000E+00 0. -1.
         11    1    1    2    0    0  0.15875588296E+02 -0.81230802947E+01 -0.85759438528E+01  0.19788015317E+02  0.00000000000E+00 0.  1.
</event>
<event>
 7    1  0.2522928E-009  0.9580780E+02  0.7561462E-02  0.1289367E+00
          1   -1    0    0  501    0  0.00000000000E+00  0.00000000000E+00  0.73734430250E+03  0.73734430250E+03  0.00000000000E+00 0. -1.
         -1   -1    0    0    0  501 -0.00000000000E+00 -0.00000000000E+00 -0.25509277436E+02  0.25509277436E+02  0.00000000000E+00 0.  1.
         25    2    1    2    0    0 -0.20125668270E+02 -0.79920379591E+02  0.41513984089E+03  0.44133925198E+03  0.12508772223E+03 0.  0.
          5    1    3    3  502    0  0.19182685900E+02 -0.51975789914E+02  0.55766358548E+02  0.78719866115E+02  0.41800000000E+01 0. -1.
         -5    1    3    3    0  502 -0.39308354170E+02 -0.27944589677E+02  0.35937348234E+03  0.36261938587E+03  0.41800000000E+01 0. -1.
        -11    1    1    2    0    0  0.27926098298E+02  0.57862308022E+02  0.29020802680E+03  0.29723494491E+03  0.00000000000E+00 0. -1.
         11    1    1    2    0    0 -0.78004300285E+01  0.22058071569E+02  0.64871573740E+01  0.24279383040E+02  0.00000000000E+00 0.  1.
</event>
<event>
 7    1  0.2522928E-009  0.9774922E+02  0.7561462E-02  0.1285102E+00
         -1   -1    0    0    0  501 -0.00000000000E+00  0.00000000000E+00  0.65085584909E+02  0.65085584909E+02  0.00000000000E+00 0.  1.
          1   -1    0    0  501    0  0.00000000000E+00 -0.00000000000E+00 -0.28267991797E+03  0.28267991797E+03  0.00000000000E+00 0. -1.
         25    2    1    2    0    0 -0.11720969922E+02  0.10047291246E+02 -0.22373661501E+03  0.25679525030E+03  0.12508956186E+03 0.  0.
          5    1    3    3  502    0  0.43431689241E+02 -0.29928434083E+02 -0.63653186065E+02  0.82772116641E+02  0.41800000000E+01 0. -1.
         -5    1    3    3    0  502 -0.55152659163E+02  0.39975725329E+02 -0.16008342894E+03  0.17402313366E+03  0.41800000000E+01 0. -1.
        -11    1    1    2    0    0 -0.19321679291E+02  0.22302874833E+02  0.28364407207E+02  0.40930246916E+02  0.00000000000E+00 0.  1.
         11    1    1    2    0    0  0.31042649213E+02 -0.32350166079E+02 -0.22222125267E+02  0.50040005664E+02  0.00000000000E+00 0. -1.
</event>
<event>
 7    1  0.2522928E-009  0.1259959E+03  0.7561462E-02  0.1233521E+00
          1   -1    0    0  501    0  0.00000000000E+00  0.00000000000E+00  0.27658315385E+03  0.27658315385E+03  0.00000000000E+00 0. -1.
         -1   -1    0    0    0  501 -0.00000000000E+00 -0.00000000000E+00 -0.62893407904E+02  0.62893407904E+02  0.00000000000E+00 0.  1.
         25    2    1    2    0    0 -0.20784324134E+02 -0.68885253271E+02  0.14041397967E+03  0.20134980118E+03  0.12509392672E+03 0.  0.
          5    1    3    3  502    0 -0.71821086050E+02 -0.48594027582E+02  0.67503336610E+02  0.10997190901E+03  0.41800000000E+01 0.  1.
         -5    1    3    3    0  502  0.51036761916E+02 -0.20291225689E+02  0.72910643058E+02  0.91377892172E+02  0.41800000000E+01 0.  1.
        -11    1    1    2    0    0  0.27175005099E+02 -0.11461566776E+02  0.42755792159E+02  0.51941372510E+02  0.00000000000E+00 0. -1.
         11    1    1    2    0    0 -0.63906809645E+01  0.80346820047E+02  0.30519974118E+02  0.86185388060E+02  0.00000000000E+00 0.  1.
</event>
<event>
 7    1  0.2522928E-009  0.1027107E+03  0.7561462E-02  0.1274697E+00
          1   -1    0    0  501    0  0.00000000000E+00  0.00000000000E+00  0.17214103033E+03  0.17214103033E+03  0.00000000000E+00 0. -1.
         -1   -1    0    0    0  501 -0.00000000000E+00 -0.00000000000E+00 -0.94245964681E+02  0.94245964681E+02  0.00000000000E+00 0.  1.
         25    2    1    2    0    0  0.44811665134E+02  0.42804286784E+02  0.18541788986E+02  0.14082364807E+03  0.12508880692E+03 0.  0.
          5    1    3    3  502    0  0.65531343319E+02  0.68213391472E+02 -0.12470435591E+02  0.95500826684E+02  0.41800000000E+01 0. -1.
         -5    1    3    3    0  502 -0.20719678185E+02 -0.25409104688E+02  0.31012224576E+02  0.45322821386E+02  0.41800000000E+01 0. -1.
        -11    1    1    2    0    0 -0.19047094324E+02  0.80499723330E+01 -0.19391718680E+02  0.28348414596E+02  0.00000000000E+00 0.  1.
         11    1    1    2    0    0 -0.25764570810E+02 -0.50854259117E+02  0.78744995338E+02  0.97214932341E+02  0.00000000000E+00 0. -1.
</event>
<event>
 7    1  0.2522928E-009  0.1647038E+03  0.7561462E-02  0.1183486E+00
          1   -1    0    0  501    0  0.00000000000E+00  0.00000000000E+00  0.40780026658E+03  0.40780026658E+03  0.00000000000E+00 0. -1.
         -1   -1    0    0    0  501 -0.00000000000E+00 -0.00000000000E+00 -0.94286851329E+02  0.94286851329E+02  0.00000000000E+00 0.  1.
         25    2    1    2    0    0  0.10181823923E+03  0.93611052751E+02  0.53747963212E+02  0.19407804111E+03  0.12508980557E+03 0.  0.
          5    1    3    3  502    0  0.14684921268E+02 -0.28937527916E+02  0.24403461654E+02  0.40817015756E+02  0.41800000000E+01 0.  1.
         -5    1    3    3    0  502  0.87133317958E+02  0.12254858067E+03  0.29344501559E+02  0.15326102536E+03  0.41800000000E+01 0.  1.
        -11    1    1    2    0    0 -0.51646714698E+02 -0.78315882891E+02  0.88786578804E+02  0.12916585163E+03  0.00000000000E+00 0.  1.
         11    1    1    2    0    0 -0.50171524527E+02 -0.15295169859E+02  0.17097887324E+03  0.17884322517E+03  0.00000000000E+00 0. -1.
</event>
<event>
 7    1  0.2522928E-009  0.6618272E+02  0.7561462E-02  0.1373577E+00
         -2   -1    0    0    0  501 -0.00000000000E+00  0.00000000000E+00  0.12741792786E+03  0.12741792786E+03  0.00000000000E+00 0. -1.
          2   -1    0    0  501    0  0.00000000000E+00 -0.00000000000E+00 -0.98377871354E+02  0.98377871354E+02  0.00000000000E+00 0.  1.
         25    2    1    2    0    0 -0.26956299003E+02  0.76759410814E+01  0.63934128668E+01  0.12834950449E+03  0.12508859839E+03 0.  0.
          5    1    3    3  502    0  0.19672605003E+02  0.27782215754E+02 -0.44600854809E+02  0.56263412174E+02  0.41800000000E+01 0. -1.
         -5    1    3    3    0  502 -0.46628904006E+02 -0.20106274672E+02  0.50994267675E+02  0.72086092318E+02  0.41800000000E+01 0. -1.
        -11    1    1    2    0    0  0.14441605140E+02  0.15246670706E+02 -0.31194872926E+02  0.37605066461E+02  0.00000000000E+00 0.  1.
         11    1    1    2    0    0  0.12514693863E+02 -0.22922611788E+02  0.53841516562E+02  0.59841228257E+02  0.00000000000E+00 0. -1.
</event>
<event>
 7    1  0.2522928E-009  0.1139825E+03  0.7561462E-02  0.1253368E+00
         -2   -1    0    0    0  501 -0.00000000000E+00  0.00000000000E+00  0.45947444470E+02  0.45947444470E+02  0.00000000000E+00 0. -1.
          2   -1    0    0  501    0  0.00000000000E+00 -0.00000000000E+00 -0.45290105379E+03  0.45290105379E+03  0.00000000000E+00 0.  1.
         25    2    1    2    0    0 -0.51130265663E+02 -0.13707046922E+02 -0.35929591259E+03  0.38411519931E+03  0.12509494927E+03 0.  0.
          5    1    3    3  502    0 -0.15944056639E+02  0.55589125284E+02 -0.14991143852E+03  0.16073355465E+03  0.41800000000E+01 0.  1.
         -5    1    3    3    0  502 -0.35186209024E+02 -0.69296172205E+02 -0.20938447407E+03  0.22338164466E+03  0.41800000000E+01 0.  1.
        -11    1    1    2    0    0  0.71027352549E+02  0.13241402078E+02 -0.57678743674E+02  0.92450294812E+02  0.00000000000E+00 0.  1.
         11    1    1    2    0    0 -0.19897086886E+02  0.46564484348E+00  0.10021046943E+02  0.22283004140E+02  0.00000000000E+00 0. -1.
</event>
<event>
 7    1  0.2522928E-009  0.2849182E+03  0.7561462E-02  0.1093033E+00
         -1   -1    0    0    0  501 -0.00000000000E+00  0.00000000000E+00  0.68361751148E+03  0.68361751148E+03  0.00000000000E+00 0. -1.
          1   -1    0    0  501    0  0.00000000000E+00 -0.00000000000E+00 -0.19080996778E+03  0.19080996778E+03  0.00000000000E+00 0.  1.
         25    2    1    2    0    0 -0.26848275594E+03 -0.21124376546E+02  0.50958458494E+03  0.58979048187E+03  0.12508850378E+03 0.  0.
          5    1    3    3  502    0 -0.14202095986E+03 -0.67625187392E+02  0.22125471549E+03  0.27150366579E+03  0.41800000000E+01 0.  1.
         -5    1    3    3    0  502 -0.12646179608E+03  0.46500810846E+02  0.28832986945E+03  0.31828681609E+03  0.41800000000E+01 0.  1.
        -11    1    1    2    0    0  0.98109939205E+02  0.40630864948E+02  0.22875320361E+02  0.10862645920E+03  0.00000000000E+00 0.  1.
         11    1    1    2    0    0  0.17037281673E+03 -0.19506488402E+02 -0.39652361611E+02  0.17601053819E+03  0.00000000000E+00 0. -1.
</event>
<event>
 7    1  0.2522928E-009  0.1193629E+03  0.7561462E-02  0.1244152E+00
          2   -1    0    0  501    0  0.00000000000E+00  0.00000000000E+00  0.96833933251E+03  0.96833933251E+03  0.00000000000E+00 0. -1.
         -2   -1    0    0    0  501 -0.00000000000E+00 -0.00000000000E+00 -0.17195223443E+02  0.17195223443E+02  0.00000000000E+00 0.  1.
         25    2    1    2    0    0 -0.39894292710E+02  0.33496874244E+02  0.34976009412E+03  0.37508668270E+03  0.12507717987E+03 0.  0.
          5    1    3    3  502    0 -0.73838543143E+02  0.56195375556E+02  0.26722837463E+03  0.28291081155E+03  0.41800000000E+01 0. -1.
         -5    1    3    3    0  502  0.33944250433E+02 -0.22698501312E+02  0.82531719497E+02  0.92175871151E+02  0.41800000000E+01 0. -1.
        -11    1    1    2    0    0 -0.27013113889E+02  0.51895063847E+01  0.16162620536E+03  0.16395020451E+03  0.00000000000E+00 0.  1.
         11    1    1    2    0    0  0.66907406599E+02 -0.38686380629E+02  0.43975780958E+03  0.44649766874E+03  0.00000000000E+00 0. -1.
</event>
<event>
 7    1  0.2522928E-009  0.9451543E+02  0.7561462E-02  0.1292271E+00
          2   -1    0    0  501    0  0.00000000000E+00  0.00000000000E+00  0.99457723849E+03  0.99457723849E+03  0.00000000000E+00 0. -1.
         -2   -1    0    0    0  501 -0.00000000000E+00 -0.00000000000E+00 -0.13475336983E+02  0.13475336983E+02  0.00000000000E+00 0.  1.
         25    2    1    2    0    0  0.32135126626E+02  0.15533512892E+02  0.64307379701E+03  0.65610083364E+03  0.12510171507E+03 0.  0.
          5    1    3    3  502    0  0.59466934409E+02 -0.94522559593E+00  0.14219038485E+03  0.15418426536E+03  0.41800000000E+01 0. -1.
         -5    1    3    3    0  502 -0.27331807783E+02  0.16478738488E+02  0.50088341216E+03  0.50191656828E+03  0.41800000000E+01 0. -1.
        -11    1    1    2    0    0 -0.52894611578E+02  0.19603673849E+02  0.21775600370E+03  0.22494403995E+03  0.00000000000E+00 0.  1.
         11    1    1    2    0    0  0.20759484952E+02 -0.35137186742E+02  0.12027210079E+03  0.12700770188E+03  0.00000000000E+00 0. -1.
</event>
<event>
 7    1  0.2522928E-009  0.1783013E+03  0.7561462E-02  0.1169457E+00
         -1   -1    0    0    0  501 -0.00000000000E+00  0.00000000000E+00  0.35512533976E+02  0.35512533976E+02  0.00000000000E+00 0.  1.
          1   -1    0    0  501    0  0.00000000000E+00 -0.00000000000E+00 -0.10802492243E+04  0.10802492243E+04  0.00000000000E+00 0. -1.
         25    2    1    2    0    0  0.14518939920E+03  0.64945388906E+02 -0.44593494169E+03  0.48969668183E+03  0.12508798021E+03 0.  0.
          5    1    3    3  502    0  0.14535691076E+03  0.19571118696E+02 -0.39490868788E+03  0.42128613122E+03  0.41800000000E+01 0.  1.
         -5    1    3    3    0  502 -0.16751155604E+00  0.45374270211E+02 -0.51026253813E+02  0.68410550615E+02  0.41800000000E+01 0.  1.
        -11    1    1    2    0    0 -0.18814817904E+02 -0.25951038754E+02 -0.37218491913E+02  0.49118936526E+02  0.00000000000E+00 0.  1.
         11    1    1    2    0    0 -0.12637458130E+03 -0.38994350152E+02 -0.56158325669E+03  0.57694613989E+03  0.00000000000E+00 0. -1.
</event>
<event>
 7    1  0.2522928E-009  0.1230884E+03  0.7561462E-02  0.1238087E+00
          2   -1    0    0  501    0  0.00000000000E+00  0.00000000000E+00  0.38109838487E+03  0.38109838487E+03  0.00000000000E+00 0. -1.
         -2   -1    0    0    0  501 -0.00000000000E+00 -0.00000000000E+00 -0.41605126087E+02  0.41605126087E+02  0.00000000000E+00 0.  1.
         25    2    1    2    0    0  0.60383638707E+02 -0.12305722138E+02  0.20814774212E+03  0.25054107399E+03  0.12509089729E+03 0.  0.
          5    1    3    3  502    0  0.98307365670E+02 -0.20014764473E+02  0.15441210548E+03  0.18418876095E+03  0.41800000000E+01 0. -1.
         -5    1    3    3    0  502 -0.37923726963E+02  0.77090423356E+01  0.53735636635E+02  0.66352313035E+02  0.41800000000E+01 0. -1.
        -11    1    1    2    0    0 -0.15436847407E+02 -0.37019392799E+02  0.74020740612E+02  0.84189083270E+02  0.00000000000E+00 0. -1.
         11    1    1    2    0    0 -0.44946791300E+02  0.49325114937E+02  0.57324776056E+02  0.87973353702E+02  0.00000000000E+00 0.  1.
</event>
<event>
 7    1  0.2522928E-009  0.9928444E+02  0.7561462E-02  0.1281808E+00
         -1   -1    0    0    0  501 -0.00000000000E+00  0.00000000000E+00  0.79858502330E+02  0.79858502330E+02  0.00000000000E+00 0.  1.
          1   -1    0    0  501    0  0.00000000000E+00 -0.00000000000E+00 -0.20968752540E+03  0.20968752540E+03  0.00000000000E+00 0. -1.
         25    2    1    2    0    0 -0.12902314935E+02  0.49229459182E+02 -0.16486944194E+02  0.13604757888E+03  0.12508842876E+03 0.  0.
          5    1    3    3  502    0  0.16967560141E+01  0.78459737667E+02 -0.46643325124E+02  0.91388629459E+02  0.41800000000E+01 0.  1.
         -5    1    3    3    0  502 -0.14599070949E+02 -0.29230278485E+02  0.30156380931E+02  0.44658949425E+02  0.41800000000E+01 0.  1.
        -11    1    1    2    0    0 -0.28288358643E+02 -0.31085661030E+02 -0.96824906789E+02  0.10555383523E+03  0.00000000000E+00 0. -1.
         11    1    1    2    0    0  0.41190673578E+02 -0.18143798152E+02 -0.16517172086E+02  0.47944613617E+02  0.00000000000E+00 0.  1.
</event>
<event>
 7    1  0.2904676E-009  0.1515669E+03  0.7561462E-02  0.1198561E+00
         -2   -1    0    0    0  501 -0.00000000000E+00  0.00000000000E+00  0.18724131104E+03  0.18724131104E+03  0.00000000000E+00 0.  1.
          2   -1    0    0  501    0  0.00000000000E+00 -0.00000000000E+00 -0.13776024234E+03  0.13776024234E+03  0.00000000000E+00 0. -1.
         25    2    1    2    0    0 -0.83790421144E+02 -0.83222992489E+02  0.28877336765E+02  0.17443622648E+03  0.12508875000E+03 0.  0.
          5    1    3    3  502    0 -0.43354882667E+01 -0.90403121318E+02  0.26942946870E+02  0.94524682430E+02  0.41800000000E+01 0. -1.
         -5    1    3    3    0  502 -0.79454932877E+02  0.71801288285E+01  0.19343898959E+01  0.79911544052E+02  0.41800000000E+01 0. -1.
        -11    1    1    2    0    0  0.57200566203E+02  0.14580604090E+02 -0.24853651380E+02  0.64048440859E+02  0.00000000000E+00 0. -1.
         11    1    1    2    0    0  0.26589854941E+02  0.68642388399E+02  0.45457383321E+02  0.86516886036E+02  0.00000000000E+00 0.  1.
</event>
<event>
 7    1  0.2522928E-009  0.1080946E+03  0.7561462E-02  0.1264140E+00
         -1   -1    0    0    0  501 -0.00000000000E+00  0.00000000000E+00  0.45858998454E+02  0.45858998454E+02  0.00000000000E+00 0.  1.
          1   -1    0    0  501    0  0.00000000000E+00 -0.00000000000E+00 -0.42804389565E+03  0.42804389565E+03  0.00000000000E+00 0. -1.
         25    2    1    2    0    0  0.22737836352E+02 -0.81208107078E+02 -0.25723226853E+03  0.29820775932E+03  0.12509061473E+03 0.  0.
          5    1    3    3  502    0  0.31264649206E+02 -0.42487937122E+02 -0.18329488589E+02  0.56001300367E+02  0.41800000000E+01 0. -1.
         -5    1    3    3    0  502 -0.85268128541E+01 -0.38720169957E+02 -0.23890277994E+03  0.24220645896E+03  0.41800000000E+01 0. -1.
        -11    1    1    2    0    0 -0.40871104715E+02  0.69703544833E+00 -0.44896322750E+02  0.60717483936E+02  0.00000000000E+00 0.  1.
         11    1    1    2    0    0  0.18133268363E+02  0.80511071630E+02 -0.80056305925E+02  0.11497765085E+03  0.00000000000E+00 0. -1.
</event>
<event>
 7    1  0.2522928E-009  0.1299656E+03  0.7561462E-02  0.1227507E+00
         -3   -1    0    0    0  501 -0.00000000000E+00  0.00000000000E+00  0.44665886731E+03  0.44665886731E+03  0.00000000000E+00 0.  1.
          3   -1    0    0  501    0  0.00000000000E+00 -0.00000000000E+00 -0.61870116093E+02  0.61870116093E+02  0.00000000000E+00 0. -1.
         25    2    1    2    0    0  0.12138954795E+03  0.47874495621E+01  0.16154858981E+03  0.23770389090E+03  0.12508737288E+03 0.  0.
          5    1    3    3  502    0  0.11854765930E+03  0.11945536110E+02  0.18078994437E+03  0.21656112242E+03  0.41800000000E+01 0. -1.
         -5    1    3    3    0  502  0.28418886506E+01 -0.71580865482E+01 -0.19241354555E+02  0.21142768486E+02  0.41800000000E+01 0. -1.
        -11    1    1    2    0    0 -0.89431136232E+02  0.19833882984E+02  0.78725575604E+02  0.12078504583E+03  0.00000000000E+00 0. -1.
         11    1    1    2    0    0 -0.31958411718E+02 -0.24621332546E+02  0.14451458580E+03  0.15004004667E+03  0.00000000000E+00 0.  1.
</event>
<event>
 7    1  0.2522928E-009  0.1187011E+03  0.7561462E-02  0.1245255E+00
          2   -1    0    0  501    0  0.00000000000E+00  0.00000000000E+00  0.32293045486E+03  0.32293045486E+03  0.00000000000E+00 0.  1.
         -2   -1    0    0    0  501 -0.00000000000E+00 -0.00000000000E+00 -0.58892431633E+02  0.58892431633E+02  0.00000000000E+00 0. -1.
         25    2    1    2    0    0  0.49656980641E+02  0.47821733199E+02  0.66698508023E+02  0.15763279860E+03  0.12508666727E+03 0.  0.
          5    1    3    3  502    0  0.11950406423E+02  0.86784451731E+02  0.33287638070E+02  0.93807742347E+02  0.41800000000E+01 0.  1.
         -5    1    3    3    0  502  0.37706574219E+02 -0.38962718532E+02  0.33410869953E+02  0.63825056253E+02  0.41800000000E+01 0.  1.
        -11    1    1    2    0    0 -0.16813605931E+02 -0.58431959085E+02  0.72269577037E+02  0.94445131965E+02  0.00000000000E+00 0. -1.
         11    1    1    2    0    0 -0.32843374710E+02  0.10610225885E+02  0.12506993817E+03  0.12974495593E+03  0.00000000000E+00 0.  1.
</event>
<event>
 7    1  0.4171215E-009  0.1069912E+03  0.7561462E-02  0.1266245E+00
         -1   -1    0    0    0  501 -0.00000000000E+00  0.00000000000E+00  0.17824431032E+02  0.17824431032E+02  0.00000000000E+00 0.  1.
          1   -1    0    0  501    0  0.00000000000E+00 -0.00000000000E+00 -0.12002274039E+04  0.12002274039E+04  0.00000000000E+00 0. -1.
         25    2    1    2    0    0  0.16434920624E+01  0.52868574625E+02 -0.98039617757E+03  0.98975848187E+03  0.12508956862E+03 0.  0.
          5    1    3    3  502    0 -0.59060573555E+02  0.41061702524E+02 -0.44649886642E+03  0.45227527555E+03  0.41800000000E+01 0.  1.
         -5    1    3    3    0  502  0.60704065617E+02  0.11806872101E+02 -0.53389731116E+03  0.53748320632E+03  0.41800000000E+01 0.  1.
        -11    1    1    2    0    0  0.28842097653E+02 -0.19887329694E+02 -0.18996664392E+02  0.39852800873E+02  0.00000000000E+00 0.  1.
         11    1    1    2    0    0 -0.30485589716E+02 -0.32981244931E+02 -0.18301013090E+03  0.18844055219E+03  0.00000000000E+00 0. -1.
</event>
<event>
 7    1  0.2522928E-009  0.1110289E+03  0.7561462E-02  0.1258676E+00
          2   -1    0    0  501    0  0.00000000000E+00  0.00000000000E+00  0.44319387046E+02  0.44319387046E+02  0.00000000000E+00 0. -1.
         -2   -1    0    0    0  501 -0.00000000000E+00 -0.00000000000E+00 -0.37956798283E+03  0.37956798283E+03  0.00000000000E+00 0.  1.
         25    2    1    2    0    0  0.40364865756E+02 -0.41524427332E+02 -0.11780222348E+03  0.18131987484E+03  0.12508370278E+03 0.  0.
          5    1    3    3  502    0  0.68390494111E+02 -0.42099254262E+01 -0.17848775764E+02  0.70929784669E+02  0.41800000000E+01 0. -1.
         -5    1    3    3    0  502 -0.28025628356E+02 -0.37314501905E+02 -0.99953447716E+02  0.11039009017E+03  0.41800000000E+01 0. -1.
        -11    1    1    2    0    0 -0.26813456796E+02 -0.26200686963E+02 -0.92382368746E+02  0.99699245323E+02  0.00000000000E+00 0. -1.
         11    1    1    2    0    0 -0.13551408960E+02  0.67725114295E+02 -0.12506400356E+03  0.14286824972E+03  0.00000000000E+00 0.  1.
</event>
<event>
 7    1  0.2522928E-009  0.7657875E+02  0.7561462E-02  0.1339051E+00
          1   -1    0    0  501    0  0.00000000000E+00  0.00000000000E+00  0.33921618418E+03  0.33921618418E+03  0.00000000000E+00 0. -1.
         -1   -1    0    0    0  501 -0.00000000000E+00 -0.00000000000E+00 -0.94498604948E+02  0.94498604948E+02  0.00000000000E+00 0.  1.
         25    2    1    2    0    0  0.32799630496E+02  0.76968493715E+00 -0.37602966482E+02  0.13467558832E+03  0.12508846000E+03 0.  0.
          5    1    3    3  502    0  0.38548403013E+02  0.34908754444E+02  0.28857468843E+02  0.59622365097E+02  0.41800000000E+01 0. -1.
         -5    1    3    3    0  502 -0.57487725176E+01 -0.34139069507E+02 -0.66460435325E+02  0.75053223221E+02  0.41800000000E+01 0. -1.
        -11    1    1    2    0    0  0.13568349607E+02  0.11897449397E+02  0.66854169411E+01  0.19244329370E+02  0.00000000000E+00 0.  1.
         11    1    1    2    0    0 -0.46367980103E+02 -0.12667134334E+02  0.27563512877E+03  0.27979487144E+03  0.00000000000E+00 0. -1.
</event>
<event>
 7    1  0.2522928E-009  0.1909630E+03  0.7561462E-02  0.1157596E+00
         -1   -1    0    0    0  501 -0.00000000000E+00  0.00000000000E+00  0.81303777132E+02  0.81303777132E+02  0.00000000000E+00 0.  1.
          1   -1    0    0  501    0  0.00000000000E+00 -0.00000000000E+00 -0.54970630321E+03  0.54970630321E+03  0.00000000000E+00 0. -1.
         25    2    1    2    0    0  0.94686620143E+02  0.15294068193E+03 -0.21104960417E+03  0.30420992388E+03  0.12508131014E+03 0.  0.
          5    1    3    3  502    0  0.26390706657E+02  0.11017020057E+03 -0.18928291169E+03  0.22063416678E+03  0.41800000000E+01 0.  1.
         -5    1    3    3    0  502  0.68295913485E+02  0.42770481358E+02 -0.21766692481E+02  0.83575757107E+02  0.41800000000E+01 0.  1.
        -11    1    1    2    0    0 -0.41425807639E+02 -0.11566950720E+03 -0.10672909753E+03  0.16274714343E+03  0.00000000000E+00 0.  1.
         11    1    1    2    0    0 -0.53260812504E+02 -0.37271174726E+02 -0.15062382438E+03  0.16405301303E+03  0.00000000000E+00 0. -1.
</event>
<event>
 7    1  0.2522928E-009  0.7105946E+02  0.7561462E-02  0.1356527E+00
         -3   -1    0    0    0  501 -0.00000000000E+00  0.00000000000E+00  0.55286016493E+03  0.55286016493E+03  0.00000000000E+00 0.  1.
          3   -1    0    0  501    0  0.00000000000E+00 -0.00000000000E+00 -0.19591788558E+02  0.19591788558E+02  0.00000000000E+00 0. -1.
         25    2    1    2    0    0  0.14962191607E+02  0.15242175878E+01  0.31663879824E+03  0.34078415933E+03  0.12509006470E+03 0.  0.
          5    1    3    3  502    0  0.39058134245E+02 -0.79346057580E+01  0.31149605445E+03  0.31406330597E+03  0.41800000000E+01 0. -1.
         -5    1    3    3    0  502 -0.24095942638E+02  0.94588233457E+01  0.51427437857E+01  0.26720853361E+02  0.41800000000E+01 0. -1.
        -11    1    1    2    0    0  0.29040330891E+02  0.93287739150E+01  0.13397530994E+03  0.13740360444E+03  0.00000000000E+00 0.  1.
         11    1    1    2    0    0 -0.44002522498E+02 -0.10852991503E+02  0.82654268194E+02  0.94264189708E+02  0.00000000000E+00 0. -1.
</event>
<event>
 7    1  0.2522928E-009  0.1432092E+03  0.7561462E-02  0.1209075E+00
          1   -1    0    0  501    0  0.00000000000E+00  0.00000000000E+00  0.38764310923E+02  0.38764310923E+02  0.00000000000E+00 0. -1.
         -1   -1    0    0    0  501 -0.00000000000E+00 -0.00000000000E+00 -0.62454604515E+03  0.62454604515E+03  0.00000000000E+00 0.  1.
         25    2    1    2    0    0  0.39151021109E+01  0.89816852221E+02 -0.44085975955E+03  0.46699833148E+03  0.12509084317E+03 0.  0.
          5    1    3    3  502    0 -0.60270039524E+02  0.49471013419E+02 -0.21869431527E+03  0.23221656867E+03  0.41800000000E+01 0.  1.
         -5    1    3    3    0  502  0.64185141635E+02  0.40345838801E+02 -0.22216544429E+03  0.23478176281E+03  0.41800000000E+01 0.  1.
        -11    1    1    2    0    0 -0.50156673143E+02 -0.55603885814E+02 -0.80342007143E+02  0.10982860324E+03  0.00000000000E+00 0. -1.
         11    1    1    2    0    0  0.46241571032E+02 -0.34212966406E+02 -0.64579967529E+02  0.86483421347E+02  0.00000000000E+00 0.  1.
</event>
<event>
 7    1  0.2522928E-009  0.8246499E+02  0.7561462E-02  0.1322198E+00
          1   -1    0    0  501    0  0.00000000000E+00  0.00000000000E+00  0.47000192918E+02  0.47000192918E+02  0.00000000000E+00 0. -1.
         -1   -1    0    0    0  501 -0.00000000000E+00 -0.00000000000E+00 -0.36498372955E+03  0.36498372955E+03  0.00000000000E+00 0.  1.
         25    2    1    2    0    0  0.48538838250E+02 -0.29175060008E+02 -0.24893898720E+03  0.28429765451E+03  0.12508930436E+03 0.  0.
          5    1    3    3  502    0  0.43685420840E+02 -0.27656156173E+02 -0.20519805431E+02  0.55783633650E+02  0.41800000000E+01 0.  1.
         -5    1    3    3    0  502  0.48534174097E+01 -0.15189038352E+01 -0.22841918177E+03  0.22851402086E+03  0.41800000000E+01 0.  1.
        -11    1    1    2    0    0  0.25888300649E+02  0.17222755444E+02 -0.12757546580E+02  0.33609260782E+02  0.00000000000E+00 0. -1.
         11    1    1    2    0    0 -0.74427138899E+02  0.11952304564E+02 -0.56287002850E+02  0.94077007175E+02  0.00000000000E+00 0.  1.
</event>
<event>
 7    1  0.2522928E-009  0.1054873E+03  0.7561462E-02  0.1269162E+00
         -1   -1    0    0    0  501 -0.00000000000E+00  0.00000000000E+00  0.64934999758E+02  0.64934999758E+02  0.00000000000E+00 0.  1.
          1   -1    0    0  501    0  0.00000000000E+00 -0.00000000000E+00 -0.24247235920E+03  0.24247235920E+03  0.00000000000E+00 0. -1.
         25    2    1    2    0    0  0.18733317493E+02  0.52525146302E+02 -0.13686656524E+03  0.19360550856E+03  0.12506321635E+03 0.  0.
          5    1    3    3  502    0  0.52044148781E+02  0.50211340535E+02 -0.14214893306E+03  0.15954173032E+03  0.41800000000E+01 0. -1.
         -5    1    3    3    0  502 -0.33310831288E+02  0.23138057667E+01  0.52823678200E+01  0.34063778240E+02  0.41800000000E+01 0. -1.
        -11    1    1    2    0    0  0.27120448445E+02 -0.52432412192E+02 -0.13685593689E+02  0.60596798981E+02  0.00000000000E+00 0. -1.
         11    1    1    2    0    0 -0.45853765938E+02 -0.92734109897E-01 -0.26985200511E+02  0.53205051423E+02  0.00000000000E+00 0.  1.
</event>
<event>
 7    1  0.2522928E-009  0.1107786E+03  0.7561462E-02  0.1259135E+00
          1   -1    0    0  501    0  0.00000000000E+00  0.00000000000E+00  0.10242250068E+04  0.10242250068E+04  0.00000000000E+00 0. -1.
         -1   -1    0    0    0  501 -0.00000000000E+00 -0.00000000000E+00 -0.22256614129E+02  0.22256614129E+02  0.00000000000E+00 0.  1.
         25    2    1    2    0    0  0.80118041482E+02 -0.36482602605E+02  0.73422310538E+03  0.74998657997E+03  0.12508565387E+03 0.  0.
          5    1    3    3  502    0  0.68961996788E+02 -0.82474680700E+01  0.70228652166E+03  0.70572488168E+03  0.41800000000E+01 0. -1.
         -5    1    3    3    0  502  0.11156044694E+02 -0.28235134535E+02  0.31936583724E+02  0.44261698288E+02  0.41800000000E+01 0. -1.
        -11    1    1    2    0    0 -0.87736713406E+02  0.53448150690E+02  0.25196592536E+03  0.27210524293E+03  0.00000000000E+00 0. -1.
         11    1    1    2    0    0  0.76186719245E+01 -0.16965548085E+02  0.15779361890E+02  0.24389797977E+02  0.00000000000E+00 0.  1.
</event>
<event>
 7    1  0.2522928E-009  0.1145867E+03  0.7561462E-02  0.1252304E+00
         -3   -1    0    0    0  501 -0.00000000000E+00  0.00000000000E+00  0.44851385866E+03  0.44851385866E+03  0.00000000000E+00 0.  1.
          3   -1    0    0  501    0  0.00000000000E+00 -0.00000000000E+00 -0.56488005637E+02  0.56488005637E+02  0.00000000000E+00 0. -1.
         25    2    1    2    0    0 -0.72600757772E+02  0.24179406675E+02  0.34784379176E+03  0.37749686556E+03  0.12511221485E+03 0.  0.
          5    1    3    3  502    0 -0.13661512620E+02 -0.44384793707E+02  0.18908482574E+03  0.19474904510E+03  0.41800000000E+01 0. -1.
         -5    1    3    3    0  502 -0.58939245152E+02  0.68564200382E+02  0.15875896602E+03  0.18274782046E+03  0.41800000000E+01 0. -1.
        -11    1    1    2    0    0  0.67568620315E+02 -0.37863471752E+02 -0.36101052167E+01  0.77538337640E+02  0.00000000000E+00 0. -1.
         11    1    1    2    0    0  0.50321374571E+01  0.13684065077E+02  0.47792166482E+02  0.49966661100E+02  0.00000000000E+00 0.  1.
</event>
<event>
 7    1  0.2522928E-009  0.1251638E+03  0.7561462E-02  0.1234814E+00
         -2   -1    0    0    0  501 -0.00000000000E+00  0.00000000000E+00  0.39257224460E+03  0.39257224460E+03  0.00000000000E+00 0. -1.
          2   -1    0    0  501    0  0.00000000000E+00 -0.00000000000E+00 -0.65507085403E+02  0.65507085403E+02  0.00000000000E+00 0.  1.
         25    2    1    2    0    0 -0.22145065103E+02  0.76266921969E+02  0.29911756912E+03  0.33380539012E+03  0.12509065120E+03 0.  0.
          5    1    3    3  502    0 -0.44051890978E+02  0.92672164934E+02  0.28456371170E+03  0.30252715196E+03  0.41800000000E+01 0.  1.
         -5    1    3    3    0  502  0.21906825875E+02 -0.16405242964E+02  0.14553857419E+02  0.31278238160E+02  0.41800000000E+01 0.  1.
        -11    1    1    2    0    0 -0.33955667397E+02 -0.15762341323E+02  0.16728785170E+02  0.41003548695E+02  0.00000000000E+00 0. -1.
         11    1    1    2    0    0  0.56100732500E+02 -0.60504580647E+02  0.11218804909E+02  0.83270391195E+02  0.00000000000E+00 0.  1.
</event>
<event>
 7    1  0.2522928E-009  0.7145498E+02  0.7561462E-02  0.1355214E+00
         -2   -1    0    0    0  501 -0.00000000000E+00  0.00000000000E+00  0.35875009414E+02  0.35875009414E+02  0.00000000000E+00 0. -1.
          2   -1    0    0  501    0  0.00000000000E+00 -0.00000000000E+00 -0.38508147028E+03  0.38508147028E+03  0.00000000000E+00 0.  1.
         25    2    1    2    0    0 -0.80027548779E+01 -0.68965393279E+01 -0.11721696587E+03  0.17175112589E+03  0.12508807224E+03 0.  0.
          5    1    3    3  502    0 -0.19960003668E+02 -0.25327668384E+02  0.16300204694E+02  0.36373913802E+02  0.41800000000E+01 0. -1.
         -5    1    3    3    0  502  0.11957248790E+02  0.18431129056E+02 -0.13351717057E+03  0.13537721209E+03  0.41800000000E+01 0. -1.
        -11    1    1    2    0    0 -0.26988365626E+02  0.34256699141E+02 -0.83332005977E+02  0.94053795964E+02  0.00000000000E+00 0.  1.
         11    1    1    2    0    0  0.34991120504E+02 -0.27360159813E+02 -0.14865748902E+03  0.15515155784E+03  0.00000000000E+00 0. -1.
</event>
<event>
 7    1  0.2522928E-009  0.9177467E+02  0.7561462E-02  0.1298610E+00
          4   -1    0    0  501    0  0.00000000000E+00  0.00000000000E+00  0.18344115799E+03  0.18344115799E+03  0.00000000000E+00 0.  1.
         -4   -1    0    0    0  501 -0.00000000000E+00 -0.00000000000E+00 -0.77694737881E+02  0.77694737881E+02  0.00000000000E+00 0. -1.
         25    2    1    2    0    0  0.29227873396E+02 -0.16088955073E+02  0.98291934772E+02  0.16254900367E+03  0.12509097128E+03 0.  0.
          5    1    3    3  502    0  0.24254660070E+02  0.30233680737E+02  0.10796093820E+03  0.11478414770E+03  0.41800000000E+01 0.  1.
         -5    1    3    3    0  502  0.49732133264E+01 -0.46322635810E+02 -0.96690034256E+01  0.47764855976E+02  0.41800000000E+01 0.  1.
        -11    1    1    2    0    0 -0.41920826301E+02 -0.28982192422E+02 -0.11579270018E+01  0.50977092407E+02  0.00000000000E+00 0. -1.
         11    1    1    2    0    0  0.12692952905E+02  0.45071147495E+02  0.86124123420E+01  0.47609799793E+02  0.00000000000E+00 0.  1.
</event>
<event>
 7    1  0.2522928E-009  0.9665233E+02  0.7561462E-02  0.1287497E+00
          4   -1    0    0  501    0  0.00000000000E+00  0.00000000000E+00  0.17933490467E+03  0.17933490467E+03  0.00000000000E+00 0. -1.
         -4   -1    0    0    0  501 -0.00000000000E+00 -0.00000000000E+00 -0.75032647396E+02  0.75032647396E+02  0.00000000000E+00 0.  1.
         25    2    1    2    0    0  0.44135908254E+02  0.49790703055E+02  0.78130708583E+02  0.16179509699E+03  0.12508458449E+03 0.  0.
          5    1    3    3  502    0 -0.38368710115E+01 -0.31594646741E+02  0.56199338216E+02  0.64720794941E+02  0.41800000000E+01 0. -1.
         -5    1    3    3    0  502  0.47972779265E+02  0.81385349797E+02  0.21931370368E+02  0.97074302048E+02  0.41800000000E+01 0. -1.
        -11    1    1    2    0    0 -0.35919651205E+02 -0.38230203516E+02 -0.10283407229E+02  0.53455759913E+02  0.00000000000E+00 0.  1.
         11    1    1    2    0    0 -0.82162570485E+01 -0.11560499539E+02  0.36454955917E+02  0.39116695162E+02  0.00000000000E+00 0. -1.
</event>
<event>
 7    1  0.2522928E-009  0.2418703E+03  0.7561462E-02  0.1118553E+00
         -2   -1    0    0    0  501 -0.00000000000E+00  0.00000000000E+00  0.60063680405E+02  0.60063680405E+02  0.00000000000E+00 0. -1.
          2   -1    0    0  501    0  0.00000000000E+00 -0.00000000000E+00 -0.10576214154E+04  0.10576214154E+04  0.00000000000E+00 0.  1.
         25    2    1    2    0    0 -0.11784481431E+03  0.18189875692E+03 -0.66475601604E+03  0.71029775845E+03  0.12509111387E+03 0.  0.
          5    1    3    3  502    0  0.25009374755E+02  0.40389496989E+02 -0.99758983339E+02  0.11057172988E+03  0.41800000000E+01 0.  1.
         -5    1    3    3    0  502 -0.14285418906E+03  0.14150925993E+03 -0.56499703270E+03  0.59972602857E+03  0.41800000000E+01 0.  1.
        -11    1    1    2    0    0  0.41510678453E+02 -0.14369354584E+03 -0.20862485638E+03  0.25670080296E+03  0.00000000000E+00 0.  1.
         11    1    1    2    0    0  0.76334135855E+02 -0.38205211078E+02 -0.12417686260E+03  0.15068653442E+03  0.00000000000E+00 0. -1.
</event>
<event>
 7    1  0.2522928E-009  0.1162863E+03  0.7561462E-02  0.1249352E+00
          1   -1    0    0  501    0  0.00000000000E+00  0.00000000000E+00  0.27143732748E+02  0.27143732748E+02  0.00000000000E+00 0. -1.
         -1   -1    0    0    0  501 -0.00000000000E+00 -0.00000000000E+00 -0.61066009743E+03  0.61066009743E+03  0.00000000000E+00 0.  1.
         25    2    1    2    0    0  0.51046885755E+02  0.40980112390E+02 -0.37288976426E+03  0.39872340294E+03  0.12509365133E+03 0.  0.
          5    1    3    3  502    0 -0.19138208675E+02  0.46275973371E+02 -0.26578352384E+03  0.27049231170E+03  0.41800000000E+01 0.  1.
         -5    1    3    3    0  502  0.70185094431E+02 -0.52958609804E+01 -0.10710624042E+03  0.12823109124E+03  0.41800000000E+01 0.  1.
        -11    1    1    2    0    0 -0.34009795604E+02  0.25930165800E+02 -0.63511750459E+02  0.76568806585E+02  0.00000000000E+00 0. -1.
         11    1    1    2    0    0 -0.17037090151E+02 -0.66910278190E+02 -0.14711484996E+03  0.16251162065E+03  0.00000000000E+00 0.  1.
</event>
<event>
 7    1  0.2522928E-009  0.1306311E+03  0.7561462E-02  0.1226522E+00
         -2   -1    0    0    0  501 -0.00000000000E+00  0.00000000000E+00  0.26485811693E+02  0.26485811693E+02  0.00000000000E+00 0.  1.
          2   -1    0    0  501    0  0.00000000000E+00 -0.00000000000E+00 -0.84248356142E+03  0.84248356142E+03  0.00000000000E+00 0. -1.
         25    2    1    2    0    0  0.82371410763E+02  0.59313575417E+02 -0.46490979947E+03  0.49202805119E+03  0.12508929600E+03 0.  0.
          5    1    3    3  502    0  0.49508494012E+02 -0.11227598144E+02 -0.34681972969E+03  0.35054036464E+03  0.41800000000E+01 0.  1.
         -5    1    3    3    0  502  0.32862916751E+02  0.70541173561E+02 -0.11809006978E+03  0.14148768655E+03  0.41800000000E+01 0.  1.
        -11    1    1    2    0    0  0.13811637527E+02 -0.28032121006E+02 -0.13177406643E+03  0.13542882161E+03  0.00000000000E+00 0.  1.
         11    1    1    2    0    0 -0.96183048290E+02 -0.31281454412E+02 -0.21931388384E+03  0.24151250032E+03  0.00000000000E+00 0. -1.
</event>
<event>
 7    1  0.3205650E-009  0.8510995E+02  0.7561462E-02  0.1315145E+00
         -1   -1    0    0    0  501 -0.00000000000E+00  0.00000000000E+00  0.43110009459E+02  0.43110009459E+02  0.00000000000E+00 0.  1.
          1   -1    0    0  501    0  0.00000000000E+00 -0.00000000000E+00 -0.37987575468E+03  0.37987575468E+03  0.00000000000E+00 0. -1.
         25    2    1    2    0    0 -0.56480448533E+02  0.37210614765E+02 -0.19160850101E+03  0.23861315409E+03  0.12509096182E+03 0.  0.
          5    1    3    3  502    0 -0.14183388523E+01  0.33223467123E+02 -0.17863135344E+03  0.18174829651E+03  0.41800000000E+01 0.  1.
         -5    1    3    3    0  502 -0.55062109681E+02  0.39871476422E+01 -0.12977147569E+02  0.56864857583E+02  0.41800000000E+01 0.  1.
        -11    1    1    2    0    0  0.52374641000E+02 -0.93795384547E+01 -0.21220999337E+02  0.57283589049E+02  0.00000000000E+00 0.  1.
         11    1    1    2    0    0  0.41058075337E+01 -0.27831076311E+02 -0.12393624488E+03  0.12708902100E+03  0.00000000000E+00 0. -1.
</event>
<event>
 7    1  0.2522928E-009  0.1374307E+03  0.7561462E-02  0.1216829E+00
          1   -1    0    0  501    0  0.00000000000E+00  0.00000000000E+00  0.56013635513E+03  0.56013635513E+03  0.00000000000E+00 0.  1.
         -1   -1    0    0    0  501 -0.00000000000E+00 -0.00000000000E+00 -0.40085961038E+02  0.40085961038E+02  0.00000000000E+00 0. -1.
         25    2    1    2    0    0 -0.81338545816E+02  0.32231858465E+02  0.18396319835E+03  0.23905110021E+03  0.12509243953E+03 0.  0.
          5    1    3    3  502    0 -0.11463787984E+03  0.26668525674E+02  0.13156344802E+03  0.17657708518E+03  0.41800000000E+01 0.  1.
         -5    1    3    3    0  502  0.33299334029E+02  0.55633327910E+01  0.52399750328E+02  0.62474015021E+02  0.41800000000E+01 0.  1.
        -11    1    1    2    0    0  0.92594608632E+02 -0.40050008526E+01  0.18338556749E+03  0.20547522464E+03  0.00000000000E+00 0. -1.
         11    1    1    2    0    0 -0.11256062816E+02 -0.28226857612E+02  0.15270162826E+03  0.15569599132E+03  0.00000000000E+00 0.  1.
</event>
<event>
 7    1  0.2522928E-009  0.2530290E+03  0.7561462E-02  0.1111405E+00
          1   -1    0    0  501    0  0.00000000000E+00  0.00000000000E+00  0.10345181845E+03  0.10345181845E+03  0.00000000000E+00 0. -1.
         -1   -1    0    0    0  501 -0.00000000000E+00 -0.00000000000E+00 -0.86910021803E+03  0.86910021803E+03  0.00000000000E+00 0.  1.
         25    2    1    2    0    0  0.13259201703E+03  0.19443938277E+03 -0.14676888245E+03  0.30426496519E+03  0.12509495447E+03 0.  0.
          5    1    3    3  502    0  0.88423173143E+02  0.20052646753E+03 -0.13681606110E+03  0.25839045784E+03  0.41800000000E+01 0.  1.
         -5    1    3    3    0  502  0.44168843887E+02 -0.60870847671E+01 -0.99528213502E+01  0.45874507345E+02  0.41800000000E+01 0.  1.
        -11    1    1    2    0    0  0.17598406601E+01 -0.28572707778E+02 -0.28036406270E+02  0.40069149547E+02  0.00000000000E+00 0. -1.
         11    1    1    2    0    0 -0.13435185769E+03 -0.16586667499E+03 -0.59084311087E+03  0.62821792174E+03  0.00000000000E+00 0.  1.
</event>
<event>
 7    1  0.2522928E-009  0.1843350E+03  0.7561462E-02  0.1163672E+00
          2   -1    0    0  501    0  0.00000000000E+00  0.00000000000E+00  0.24594557895E+04  0.24594557895E+04  0.00000000000E+00 0. -1.
         -2   -1    0    0    0  501 -0.00000000000E+00 -0.00000000000E+00 -0.41324954330E+02  0.41324954330E+02  0.00000000000E+00 0.  1.
         25    2    1    2    0    0 -0.70347451833E+01 -0.16878952702E+03  0.22001427697E+04  0.22101617566E+04  0.12508953228E+03 0.  0.
          5    1    3    3  502    0  0.44145695015E+02 -0.71613188172E+02  0.55540456065E+03  0.56175527545E+03  0.41800000000E+01 0.  1.
         -5    1    3    3    0  502 -0.51180440198E+02 -0.97176338847E+02  0.16447382090E+04  0.16484064811E+04  0.41800000000E+01 0.  1.
        -11    1    1    2    0    0  0.23654505625E+02  0.13277288262E+03  0.21088593872E+03  0.25032189906E+03  0.00000000000E+00 0. -1.
         11    1    1    2    0    0 -0.16619760441E+02  0.36016644401E+02  0.71021267136E+01  0.40297088169E+02  0.00000000000E+00 0.  1.
</event>
<event>
 7    1  0.2522928E-009  0.7663696E+02  0.7561462E-02  0.1338876E+00
          2   -1    0    0  501    0  0.00000000000E+00  0.00000000000E+00  0.32098053107E+03  0.32098053107E+03  0.00000000000E+00 0. -1.
         -2   -1    0    0    0  501 -0.00000000000E+00 -0.00000000000E+00 -0.50645854079E+02  0.50645854079E+02  0.00000000000E+00 0.  1.
         25    2    1    2    0    0 -0.43510036827E+01  0.60634088510E+02  0.19080082770E+03  0.23611219352E+03  0.12509431704E+03 0.  0.
          5    1    3    3  502    0  0.25337761803E+01  0.44494081833E+02  0.30353200086E+00  0.44762795619E+02  0.41800000000E+01 0. -1.
         -5    1    3    3    0  502 -0.68847798630E+01  0.16140006676E+02  0.19049729570E+03  0.19134939791E+03  0.41800000000E+01 0. -1.
        -11    1    1    2    0    0  0.26723062901E+02 -0.62550831217E+02  0.88255302825E+02  0.11142588143E+03  0.00000000000E+00 0. -1.
         11    1    1    2    0    0 -0.22372059219E+02  0.19167427077E+01 -0.87214535320E+01  0.24088310194E+02  0.00000000000E+00 0.  1.
</event>
<event>
 7    1  0.3080786E-009  0.1627752E+03  0.7561462E-02  0.1185599E+00
         -2   -1    0    0    0  501 -0.00000000000E+00  0.00000000000E+00  0.19791787744E+02  0.19791787744E+02  0.00000000000E+00 0.  1.
          2   -1    0    0  501    0  0.00000000000E+00 -0.00000000000E+00 -0.16033438949E+04  0.16033438949E+04  0.00000000000E+00 0. -1.
         25    2    1    2    0    0 -0.63126640481E+02  0.12007691874E+03 -0.10064251251E+04  0.10232020875E+04  0.12509012892E+03 0.  0.
          5    1    3    3  502    0  0.32675975345E+01  0.10691722153E+03 -0.76426810967E+03  0.77172869930E+03  0.41800000000E+01 0.  1.
         -5    1    3    3    0  502 -0.66394238016E+02  0.13159697207E+02 -0.24215701540E+03  0.25147338821E+03  0.41800000000E+01 0.  1.
        -11    1    1    2    0    0 -0.90105437963E+00 -0.68401734267E+02 -0.14874313086E+03  0.16371966323E+03  0.00000000000E+00 0.  1.
         11    1    1    2    0    0  0.64027694861E+02 -0.51675184471E+02 -0.42838385123E+03  0.43621393191E+03  0.00000000000E+00 0. -1.
</event>
<event>
 7    1  0.2522928E-009  0.1481562E+03  0.7561462E-02  0.1202757E+00
          2   -1    0    0  501    0  0.00000000000E+00  0.00000000000E+00  0.57585088093E+03  0.57585088093E+03  0.00000000000E+00 0. -1.
         -2   -1    0    0    0  501 -0.00000000000E+00 -0.00000000000E+00 -0.55513701198E+02  0.55513701198E+02  0.00000000000E+00 0.  1.
         25    2    1    2    0    0  0.11892320068E+03  0.34380533027E+02  0.39675285970E+03  0.43403380330E+03  0.12509101491E+03 0.  0.
          5    1    3    3  502    0  0.10202563972E+03  0.75552329396E+02  0.24694112395E+03  0.27769547482E+03  0.41800000000E+01 0.  1.
         -5    1    3    3    0  502  0.16897560963E+02 -0.41171796368E+02  0.14981173575E+03  0.15633832848E+03  0.41800000000E+01 0.  1.
        -11    1    1    2    0    0 -0.38945893476E+02 -0.44697174745E+01 -0.84403954359E+01  0.40099891123E+02  0.00000000000E+00 0.  1.
         11    1    1    2    0    0 -0.79977307207E+02 -0.29910815553E+02  0.13202471547E+03  0.15723088771E+03  0.00000000000E+00 0. -1.
</event>
<event>
 7    1  0.2522928E-009  0.1758798E+03  0.7561462E-02  0.1171851E+00
          4   -1    0    0  501    0  0.00000000000E+00  0.00000000000E+00  0.96503844616E+02  0.96503844616E+02  0.00000000000E+00 0. -1.
         -4   -1    0    0    0  501 -0.00000000000E+00 -0.00000000000E+00 -0.52130633883E+03  0.52130633883E+03  0.00000000000E+00 0.  1.
         25    2    1    2    0    0  0.12679846930E+03  0.10904345837E+03 -0.36003950125E+03  0.41622836027E+03  0.12509707350E+03 0.  0.
          5    1    3    3  502    0 -0.73968188329E+01 -0.33472828180E+01 -0.11334760703E+03  0.11371486116E+03  0.41800000000E+01 0. -1.
         -5    1    3    3    0  502  0.13419528813E+03  0.11239074119E+03 -0.24669189423E+03  0.30251349910E+03  0.41800000000E+01 0. -1.
        -11    1    1    2    0    0 -0.87005138889E+02 -0.68592898120E+02 -0.86764289845E+02  0.14072285478E+03  0.00000000000E+00 0.  1.
         11    1    1    2    0    0 -0.39793330409E+02 -0.40450560249E+02  0.22001296887E+02  0.60858968396E+02  0.00000000000E+00 0. -1.
</event>
<event>
 7    1  0.2522928E-009  0.7396454E+02  0.7561462E-02  0.1347108E+00
          1   -1    0    0  501    0  0.00000000000E+00  0.00000000000E+00  0.60943872044E+03  0.60943872044E+03  0.00000000000E+00 0. -1.
         -1   -1    0    0    0  501 -0.00000000000E+00 -0.00000000000E+00 -0.23905889641E+02  0.23905889641E+02  0.00000000000E+00 0.  1.
         25    2    1    2    0    0  0.53313156432E+02 -0.54803553330E+01  0.31256860047E+03  0.34090884029E+03  0.12508948976E+03 0.  0.
          5    1    3    3  502    0  0.18961287907E+02 -0.16802643602E+01  0.30456432535E+03  0.30518724483E+03  0.41800000000E+01 0. -1.
         -5    1    3    3    0  502  0.34351868526E+02 -0.38000909728E+01  0.80042751142E+01  0.35721595467E+02  0.41800000000E+01 0. -1.
        -11    1    1    2    0    0 -0.12095775549E+01 -0.30361572860E+02  0.16103033281E+03  0.16387207288E+03  0.00000000000E+00 0. -1.
         11    1    1    2    0    0 -0.52103578877E+02  0.35841928193E+02  0.11193389752E+03  0.12856369691E+03  0.00000000000E+00 0.  1.
</event>
<event>
 7    1  0.2522928E-009  0.1312091E+03  0.7561462E-02  0.1225673E+00
          1   -1    0    0  501    0  0.00000000000E+00  0.00000000000E+00  0.11974917272E+03  0.11974917272E+03  0.00000000000E+00 0. -1.
         -1   -1    0    0    0  501 -0.00000000000E+00 -0.00000000000E+00 -0.20119263306E+03  0.20119263306E+03  0.00000000000E+00 0.  1.
         25    2    1    2    0    0 -0.87747769637E+02 -0.58069919767E+02 -0.84744306272E+02  0.18411986255E+03  0.12508692851E+03 0.  0.
          5    1    3    3  502    0  0.26822863743E+02 -0.14179363267E+01  0.53302491574E+01  0.27701272875E+02  0.41800000000E+01 0. -1.
         -5    1    3    3    0  502 -0.11457063338E+03 -0.56651983440E+02 -0.90074555429E+02  0.15641858968E+03  0.41800000000E+01 0. -1.
        -11    1    1    2    0    0  0.44062454639E+02  0.16497818152E+02  0.43718115751E+02  0.64225785767E+02  0.00000000000E+00 0. -1.
         11    1    1    2    0    0  0.43685314999E+02  0.41572101615E+02 -0.40417269817E+02  0.72596157465E+02  0.00000000000E+00 0.  1.
</event>
<event>
 7    1  0.2522928E-009  0.1412731E+03  0.7561462E-02  0.1211626E+00
          1   -1    0    0  501    0  0.00000000000E+00  0.00000000000E+00  0.19264574232E+04  0.19264574232E+04  0.00000000000E+00 0. -1.
         -1   -1    0    0    0  501 -0.00000000000E+00 -0.00000000000E+00 -0.28418392376E+02  0.28418392376E+02  0.00000000000E+00 0.  1.
         25    2    1    2    0    0 -0.18599022130E+02 -0.10547962881E+03  0.17194175924E+04  0.17272857105E+04  0.12508873999E+03 0.  0.
          5    1    3    3  502    0  0.26260882367E+02 -0.11519784213E+03  0.12868635415E+04  0.12922830277E+04  0.41800000000E+01 0. -1.
         -5    1    3    3    0  502 -0.44859904497E+02  0.97182133232E+01  0.43255405091E+03  0.43500268281E+03  0.41800000000E+01 0. -1.
        -11    1    1    2    0    0  0.35411132601E+02  0.59109509035E+02  0.38259696566E+02  0.78814254750E+02  0.00000000000E+00 0.  1.
         11    1    1    2    0    0 -0.16812110471E+02  0.46370119775E+02  0.14036174180E+03  0.14877585028E+03  0.00000000000E+00 0. -1.
</event>
<event>
 7    1  0.2859622E-009  0.1018412E+03  0.7561462E-02  0.1276471E+00
          1   -1    0    0  501    0  0.00000000000E+00  0.00000000000E+00  0.75977412952E+03  0.75977412952E+03  0.00000000000E+00 0. -1.
         -1   -1    0    0    0  501 -0.00000000000E+00 -0.00000000000E+00 -0.19084551737E+02  0.19084551737E+02  0.00000000000E+00 0.  1.
         25    2    1    2    0    0  0.23864754851E+02  0.46275169021E+02  0.40307689504E+03  0.42524006307E+03  0.12508880900E+03 0.  0.
          5    1    3    3  502    0 -0.24349562303E+02  0.62072199001E+02  0.11753396494E+03  0.13519454274E+03  0.41800000000E+01 0.  1.
         -5    1    3    3    0  502  0.48214317154E+02 -0.15797029980E+02  0.28554293010E+03  0.29004552033E+03  0.41800000000E+01 0.  1.
        -11    1    1    2    0    0 -0.28864645871E+02  0.91775335288E+01  0.36635086241E+02  0.47534455364E+02  0.00000000000E+00 0.  1.
         11    1    1    2    0    0  0.49998910198E+01 -0.55452702550E+02  0.30097759650E+03  0.30608416282E+03  0.00000000000E+00 0. -1.
</event>
<event>
 7    1  0.2522928E-009  0.9946131E+02  0.7561462E-02  0.1281433E+00
          1   -1    0    0  501    0  0.00000000000E+00  0.00000000000E+00  0.57469945256E+03  0.57469945256E+03  0.00000000000E+00 0. -1.
         -1   -1    0    0    0  501 -0.00000000000E+00 -0.00000000000E+00 -0.22864949180E+02  0.22864949180E+02  0.00000000000E+00 0.  1.
         25    2    1    2    0    0 -0.13964272196E+02 -0.17915082442E+01  0.40463536766E+03  0.42376364789E+03  0.12509051965E+03 0.  0.
          5    1    3    3  502    0  0.11668298331E+02 -0.57153442173E+02  0.26414663068E+03  0.27054312048E+03  0.41800000000E+01 0. -1.
         -5    1    3    3    0  502 -0.25632570527E+02  0.55361933929E+02  0.14048873699E+03  0.15322052741E+03  0.41800000000E+01 0. -1.
        -11    1    1    2    0    0  0.46482043183E+02 -0.21629016918E+01  0.12714463666E+03  0.13539208660E+03  0.00000000000E+00 0. -1.
         11    1    1    2    0    0 -0.32517770986E+02  0.39544099360E+01  0.20054499055E+02  0.38408667254E+02  0.00000000000E+00 0.  1.
</event>
<event>
 7    1  0.2522928E-009  0.2073378E+03  0.7561462E-02  0.1143692E+00
          1   -1    0    0  501    0  0.00000000000E+00  0.00000000000E+00  0.67598012038E+02  0.67598012038E+02  0.00000000000E+00 0. -1.
         -1   -1    0    0    0  501 -0.00000000000E+00 -0.00000000000E+00 -0.68204657913E+03  0.68204657913E+03  0.00000000000E+00 0.  1.
         25    2    1    2    0    0  0.11534656285E+03 -0.14199720951E+03 -0.35842199674E+03  0.42140339320E+03  0.12508579050E+03 0.  0.
          5    1    3    3  502    0  0.83195780884E+02 -0.16020701229E+03 -0.26326971039E+03  0.31924322632E+03  0.41800000000E+01 0.  1.
         -5    1    3    3    0  502  0.32150781968E+02  0.18209802787E+02 -0.95152286351E+02  0.10216016688E+03  0.41800000000E+01 0.  1.
        -11    1    1    2    0    0 -0.11425154642E+03  0.91401572271E+02 -0.22650648249E+03  0.26965320299E+03  0.00000000000E+00 0.  1.
         11    1    1    2    0    0 -0.10950164365E+01  0.50595637234E+02 -0.29520087859E+02  0.58587994976E+02  0.00000000000E+00 0. -1.
</event>
<event>
 7    1  0.2522928E-009  0.1617602E+03  0.7561462E-02  0.1186724E+00
          1   -1    0    0  501    0  0.00000000000E+00  0.00000000000E+00  0.41087485029E+03  0.41087485029E+03  0.00000000000E+00 0. -1.
         -1   -1    0    0    0  501 -0.00000000000E+00 -0.00000000000E+00 -0.83894410066E+02  0.83894410066E+02  0.00000000000E+00 0.  1.
         25    2    1    2    0    0  0.14613454277E+03  0.37571957454E+02  0.17884333293E+03  0.26532978608E+03  0.12509197046E+03 0.  0.
          5    1    3    3  502    0  0.38332415755E+02  0.19583804820E+02  0.14428550238E+03  0.15062761402E+03  0.41800000000E+01 0. -1.
         -5    1    3    3    0  502  0.10780212701E+03  0.17988152635E+02  0.34557830549E+02  0.11470217206E+03  0.41800000000E+01 0. -1.
        -11    1    1    2    0    0 -0.25520926524E+02 -0.43177974213E+02  0.68101810387E+02  0.84578435347E+02  0.00000000000E+00 0. -1.
         11    1    1    2    0    0 -0.12061361624E+03  0.56060167587E+01  0.80035296909E+02  0.14486103893E+03  0.00000000000E+00 0.  1.
</event>
<event>
 7    1  0.2522928E-009  0.1342589E+03  0.7561462E-02  0.1221270E+00
         -2   -1    0    0    0  501 -0.00000000000E+00  0.00000000000E+00  0.10746801913E+03  0.10746801913E+03  0.00000000000E+00 0.  1.
          2   -1    0    0  501    0  0.00000000000E+00 -0.00000000000E+00 -0.19534182412E+03  0.19534182412E+03  0.00000000000E+00 0. -1.
         25    2    1    2    0    0  0.86368248567E+02  0.33150725790E+02 -0.20936673724E+02  0.15698624067E+03  0.12509152838E+03 0.  0.
          5    1    3    3  502    0  0.84732802634E+02  0.72773162148E+02  0.37427793121E+00  0.11177295494E+03  0.41800000000E+01 0.  1.
         -5    1    3    3    0  502  0.16354459332E+01 -0.39622436358E+02 -0.21310951656E+02  0.45213285734E+02  0.41800000000E+01 0.  1.
        -11    1    1    2    0    0 -0.18439393914E+02  0.22474956309E+02 -0.47827536917E+02  0.55969707848E+02  0.00000000000E+00 0. -1.
         11    1    1    2    0    0 -0.67928854653E+02 -0.55625682098E+02 -0.19109594343E+02  0.89853894737E+02  0.00000000000E+00 0.  1.
</event>
<event>
 7    1  0.2522928E-009  0.1030643E+03  0.7561462E-02  0.1273981E+00
         -2   -1    0    0    0  501 -0.00000000000E+00  0.00000000000E+00  0.46799686403E+03  0.46799686403E+03  0.00000000000E+00 0. -1.
          2   -1    0    0  501    0  0.00000000000E+00 -0.00000000000E+00 -0.29341060020E+02  0.29341060020E+02  0.00000000000E+00 0.  1.
         25    2    1    2    0    0 -0.35177047930E+02 -0.29693346009E+02  0.25718980876E+03  0.28967394701E+03  0.12508108709E+03 0.  0.
          5    1    3    3  502    0 -0.11077469307E+02 -0.67144680109E+02  0.72003683807E+02  0.99162095960E+02  0.41800000000E+01 0. -1.
         -5    1    3    3    0  502 -0.24099578623E+02  0.37451334101E+02  0.18518612495E+03  0.19051185105E+03  0.41800000000E+01 0. -1.
        -11    1    1    2    0    0 -0.53383358656E+01  0.48327743858E+02  0.13393705514E+03  0.14248930976E+03  0.00000000000E+00 0.  1.
         11    1    1    2    0    0  0.40515383795E+02 -0.18634397849E+02  0.47528940112E+02  0.65174667283E+02  0.00000000000E+00 0. -1.
</event>
<event>
 7    1  0.2522928E-009  0.9973754E+02  0.7561462E-02  0.1280849E+00
         -1   -1    0    0    0  501 -0.00000000000E+00  0.00000000000E+00  0.18535520732E+02  0.18535520732E+02  0.00000000000E+00 0.  1.
          1   -1    0    0  501    0  0.00000000000E+00 -0.00000000000E+00 -0.89888419245E+03  0.89888419245E+03  0.00000000000E+00 0. -1.
         25    2    1    2    0    0 -0.13509371861E+01 -0.60539010499E+02 -0.61450904183E+03  0.63002793786E+03  0.12508814162E+03 0.  0.
          5    1    3    3  502    0 -0.30769139597E+01 -0.81867862427E+02 -0.21805510589E+03  0.23297492548E+03  0.41800000000E+01 0.  1.
         -5    1    3    3    0  502  0.17259767736E+01  0.21328851928E+02 -0.39645393594E+03  0.39705301238E+03  0.41800000000E+01 0.  1.
        -11    1    1    2    0    0  0.32985922545E+02  0.54089469625E+02 -0.23251820709E+03  0.24099472699E+03  0.00000000000E+00 0. -1.
         11    1    1    2    0    0 -0.31634985359E+02  0.64495408739E+01 -0.33321422809E+02  0.46397048335E+02  0.00000000000E+00 0.  1.
</event>
<event>
 7    1  0.2522928E-009  0.8699833E+02  0.7561462E-02  0.1310288E+00
         -2   -1    0    0    0  501 -0.00000000000E+00  0.00000000000E+00  0.27942518101E+02  0.27942518101E+02  0.00000000000E+00 0.  1.
          2   -1    0    0  501    0  0.00000000000E+00 -0.00000000000E+00 -0.51866953052E+03  0.51866953052E+03  0.00000000000E+00 0. -1.
         25    2    1    2    0    0  0.46179574966E+02  0.23800110194E+02 -0.28682316865E+03  0.31719841393E+03  0.12509318662E+03 0.  0.
          5    1    3    3  502    0  0.23998489112E+02  0.56432532268E+02 -0.56518357834E+02  0.83500630837E+02  0.41800000000E+01 0. -1.
         -5    1    3    3    0  502  0.22181085853E+02 -0.32632422073E+02 -0.23030481081E+03  0.23369778309E+03  0.41800000000E+01 0. -1.
        -11    1    1    2    0    0 -0.26310528041E+02  0.14254293391E+02 -0.17528183018E+03  0.17781774028E+03  0.00000000000E+00 0. -1.
         11    1    1    2    0    0 -0.19869046924E+02 -0.38054403586E+02 -0.28622013587E+02  0.51595894407E+02  0.00000000000E+00 0.  1.
</event>
<event>
 7    1  0.2522928E-009  0.8695277E+02  0.7561462E-02  0.1310403E+00
         -3   -1    0    0    0  501 -0.00000000000E+00  0.00000000000E+00  0.25252252642E+03  0.25252252642E+03  0.00000000000E+00 0.  1.
          3   -1    0    0  501    0  0.00000000000E+00 -0.00000000000E+00 -0.86983783486E+02  0.86983783486E+02  0.00000000000E+00 0. -1.
         25    2    1    2    0    0  0.48146885108E+01 -0.70547131090E+02  0.17152042955E+03  0.22375707952E+03  0.12509154230E+03 0.  0.
          5    1    3    3  502    0  0.97952205075E+01 -0.19002091704E+01  0.15159670390E+03  0.15198220348E+03  0.41800000000E+01 0. -1.
         -5    1    3    3    0  502 -0.49805319967E+01 -0.68646921920E+02  0.19923725644E+02  0.71774876047E+02  0.41800000000E+01 0. -1.
        -11    1    1    2    0    0  0.92750633361E+00 -0.11674579121E+02  0.25071168579E+02  0.27671638180E+02  0.00000000000E+00 0.  1.
         11    1    1    2    0    0 -0.57421948444E+01  0.82221710212E+02 -0.31052855195E+02  0.88077592198E+02  0.00000000000E+00 0. -1.
</event>
<event>
 7    1  0.2522928E-009  0.9124615E+02  0.7561462E-02  0.1299862E+00
          2   -1    0    0  501    0  0.00000000000E+00  0.00000000000E+00  0.78510968925E+02  0.78510968925E+02  0.00000000000E+00 0. -1.
         -2   -1    0    0    0  501 -0.00000000000E+00 -0.00000000000E+00 -0.17189489795E+03  0.17189489795E+03  0.00000000000E+00 0.  1.
         25    2    1    2    0    0  0.30959107487E+02  0.16919966079E+02 -0.75534485123E+02  0.15032637298E+03  0.12509120026E+03 0.  0.
          5    1    3    3  502    0  0.54363253897E+02 -0.37045527150E+02 -0.60491760068E+02  0.89467647182E+02  0.41800000000E+01 0. -1.
         -5    1    3    3    0  502 -0.23404146410E+02  0.53965493229E+02 -0.15042725055E+02  0.60858725797E+02  0.41800000000E+01 0. -1.
        -11    1    1    2    0    0  0.11742168750E+02 -0.19454301501E+00  0.30955858311E+02  0.33108632374E+02  0.00000000000E+00 0. -1.
         11    1    1    2    0    0 -0.42701276236E+02 -0.16725423064E+02 -0.48805302215E+02  0.66970861523E+02  0.00000000000E+00 0.  1.
</event>
<event>
 7    1  0.2522928E-009  0.7224568E+02  0.7561462E-02  0.1352619E+00
          1   -1    0    0  501    0  0.00000000000E+00  0.00000000000E+00  0.49568950535E+03  0.49568950535E+03  0.00000000000E+00 0. -1.
         -1   -1    0    0    0  501 -0.00000000000E+00 -0.00000000000E+00 -0.27346636397E+02  0.27346636397E+02  0.00000000000E+00 0.  1.
         25    2    1    2    0    0 -0.12318074906E+02 -0.38491461319E+02  0.31954553709E+03  0.34552842050E+03  0.12508881459E+03 0.  0.
          5    1    3    3  502    0  0.11395588387E+02  0.10347102842E+02 -0.47902014618E+01  0.16653540223E+02  0.41800000000E+01 0. -1.
         -5    1    3    3    0  502 -0.23713663293E+02 -0.48838564161E+02  0.32433573855E+03  0.32887488028E+03  0.41800000000E+01 0. -1.
        -11    1    1    2    0    0  0.35463866621E+02  0.36447543632E+02  0.14538526239E+03  0.15402267298E+03  0.00000000000E+00 0.  1.
         11    1    1    2    0    0 -0.23145791716E+02  0.20439176866E+01  0.34120694693E+01  0.23485048259E+02  0.00000000000E+00 0. -1.
</event>
<event>
 7    1  0.2522928E-009  0.1573598E+03  0.7561462E-02  0.1191710E+00
         -2   -1    0    0    0  501 -0.00000000000E+00  0.00000000000E+00  0.26180931123E+03  0.26180931123E+03  0.00000000000E+00 0. -1.
          2   -1    0    0  501    0  0.00000000000E+00 -0.00000000000E+00 -0.13949535737E+03  0.13949535737E+03  0.00000000000E+00 0.  1.
         25    2    1    2    0    0 -0.86203601595E+02 -0.12764524044E+03  0.33846583993E+02  0.20128908670E+03  0.12508931546E+03 0.  0.
          5    1    3    3  502    0 -0.66515766295E+02 -0.67731703056E+02  0.79032526640E+02  0.12359426941E+03  0.41800000000E+01 0.  1.
         -5    1    3    3    0  502 -0.19687835301E+02 -0.59913537387E+02 -0.45185942646E+02  0.77694817290E+02  0.41800000000E+01 0.  1.
        -11    1    1    2    0    0  0.47256720352E+02  0.45587403677E+02 -0.95847494215E+01  0.66357188110E+02  0.00000000000E+00 0.  1.
         11    1    1    2    0    0  0.38946881244E+02  0.82057836765E+02  0.98052119283E+02  0.13365839378E+03  0.00000000000E+00 0. -1.
</event>
<event>
 7    1  0.2522928E-009  0.1969180E+03  0.7561462E-02  0.1152366E+00
          2   -1    0    0  501    0  0.00000000000E+00  0.00000000000E+00  0.17151068674E+04  0.17151068674E+04  0.00000000000E+00 0. -1.
         -2   -1    0    0    0  501 -0.00000000000E+00 -0.00000000000E+00 -0.25822252063E+02  0.25822252063E+02  0.00000000000E+00 0.  1.
         25    2    1    2    0    0  0.97054106466E+01 -0.18025240840E+03  0.81065298733E+03  0.83987535868E+03  0.12508887454E+03 0.  0.
          5    1    3    3  502    0 -0.32047458371E+02 -0.43379247301E+02  0.42644239370E+03  0.42985972855E+03  0.41800000000E+01 0.  1.
         -5    1    3    3    0  502  0.41752869017E+02 -0.13687316109E+03  0.38421059363E+03  0.41001563014E+03  0.41800000000E+01 0.  1.
        -11    1    1    2    0    0  0.33312375141E+02  0.56805097168E+02  0.22317872076E+03  0.23269137243E+03  0.00000000000E+00 0.  1.
         11    1    1    2    0    0 -0.43017785788E+02  0.12344731123E+03  0.65545290728E+03  0.66836238838E+03  0.00000000000E+00 0. -1.
</event>
<event>
 7    1  0.2522928E-009  0.1655666E+03  0.7561462E-02  0.1182552E+00
         -2   -1    0    0    0  501 -0.00000000000E+00  0.00000000000E+00  0.97368929501E+02  0.97368929501E+02  0.00000000000E+00 0.  1.
          2   -1    0    0  501    0  0.00000000000E+00 -0.00000000000E+00 -0.32762392497E+03  0.32762392497E+03  0.00000000000E+00 0. -1.
         25    2    1    2    0    0  0.84306680709E+02  0.11399562678E+03 -0.11605344136E+03  0.22187014244E+03  0.12512129922E+03 0.  0.
          5    1    3    3  502    0  0.10186920897E+03  0.44252955951E+02 -0.96577871060E+02  0.14724271604E+03  0.41800000000E+01 0.  1.
         -5    1    3    3    0  502 -0.17562528263E+02  0.69742670830E+02 -0.19475570302E+02  0.74627426406E+02  0.41800000000E+01 0.  1.
        -11    1    1    2    0    0 -0.14842281879E+02 -0.54505862744E+02  0.41177698130E+00  0.56492052230E+02  0.00000000000E+00 0.  1.
         11    1    1    2    0    0 -0.69464398830E+02 -0.59489764037E+02 -0.11461333109E+03  0.14663065980E+03  0.00000000000E+00 0. -1.
</event>
<event>
 7    1  0.2522928E-009  0.1118800E+03  0.7561462E-02  0.1257128E+00
          2   -1    0    0  501    0  0.00000000000E+00  0.00000000000E+00  0.40947179536E+03  0.40947179536E+03  0.00000000000E+00 0. -1.
         -2   -1    0    0    0  501 -0.00000000000E+00 -0.00000000000E+00 -0.57138532646E+02  0.57138532646E+02  0.00000000000E+00 0.  1.
         25    2    1    2    0    0 -0.21054070814E+02  0.99062684963E+02  0.13458828845E+03  0.20980679996E+03  0.12509275148E+03 0.  0.
          5    1    3    3  502    0 -0.32433882426E+02  0.92829121525E+02  0.15598315332E+03  0.18443811713E+03  0.41800000000E+01 0.  1.
         -5    1    3    3    0  502  0.11379811613E+02  0.62335634378E+01 -0.21394864870E+02  0.25368682825E+02  0.41800000000E+01 0.  1.
        -11    1    1    2    0    0 -0.15261376620E+02 -0.27165772628E+02  0.14486514379E+03  0.14817826664E+03  0.00000000000E+00 0. -1.
         11    1    1    2    0    0  0.36315447434E+02 -0.71896912335E+02  0.72879830470E+02  0.10862526140E+03  0.00000000000E+00 0.  1.
</event>
<event>
 7    1  0.2522928E-009  0.1856781E+03  0.7561462E-02  0.1162418E+00
          4   -1    0    0  501    0  0.00000000000E+00  0.00000000000E+00  0.59057775747E+02  0.59057775747E+02  0.00000000000E+00 0. -1.
         -4   -1    0    0    0  501 -0.00000000000E+00 -0.00000000000E+00 -0.63205311474E+03  0.63205311474E+03  0.00000000000E+00 0.  1.
         25    2    1    2    0    0  0.88117008413E+02  0.12624211696E+03 -0.37121860277E+03  0.42089418371E+03  0.12508790339E+03 0.  0.
          5    1    3    3  502    0  0.53774507256E+02 -0.66154524732E+01 -0.61237618328E+02  0.81871729800E+02  0.41800000000E+01 0. -1.
         -5    1    3    3    0  502  0.34342501157E+02  0.13285756943E+03 -0.30998098444E+03  0.33902245391E+03  0.41800000000E+01 0. -1.
        -11    1    1    2    0    0 -0.25361396561E+02 -0.11271136853E+03 -0.13054221637E+03  0.17432246925E+03  0.00000000000E+00 0. -1.
         11    1    1    2    0    0 -0.62755611852E+02 -0.13530748430E+02 -0.71234519868E+02  0.95894237537E+02  0.00000000000E+00 0.  1.
</event>
<event>
 6    1  0.2522928E-009  0.1171655E+03  0.7561462E-02  0.1247848E+00
          2   -1    0    0  501    0  0.00000000000E+00  0.00000000000E+00  0.75761067721E+03  0.75761067721E+03  0.00000000000E+00 0. -1.
         -2   -1    0    0    0  501 -0.00000000000E+00 -0.00000000000E+00 -0.21772744671E+02  0.21772744671E+02  0.00000000000E+00 0.  1.
          5    1    1    2  502    0  0.61996012699E+02 -0.23705757487E+02  0.89773759999E+02  0.11172407490E+03  0.41800000000E+01 0.  1.
         -5    1    1    2    0  502 -0.49780752426E+01  0.55166749122E+02  0.24123814475E+03  0.24755093683E+03  0.41800000000E+01 0.  1.
        -11    1    1    2    0    0 -0.82078378445E+02 -0.29189342401E+02  0.31273186895E+03  0.32463841389E+03  0.00000000000E+00 0.  1.
         11    1    1    2    0    0  0.25060440988E+02 -0.22716492334E+01  0.92094158835E+02  0.95469996252E+02  0.00000000000E+00 0. -1.
</event>
<event>
 7    1  0.2522928E-009  0.2985153E+03  0.7561462E-02  0.1085985E+00
          2   -1    0    0  501    0  0.00000000000E+00  0.00000000000E+00  0.75491770173E+03  0.75491770173E+03  0.00000000000E+00 0. -1.
         -2   -1    0    0    0  501 -0.00000000000E+00 -0.00000000000E+00 -0.12539056060E+03  0.12539056060E+03  0.00000000000E+00 0.  1.
         25    2    1    2    0    0  0.14622386525E+02  0.28488462866E+03  0.37576097250E+03  0.48807514225E+03  0.12509184701E+03 0.  0.
          5    1    3    3  502    0  0.60492234360E+02  0.16764522604E+03  0.27028508034E+03  0.32378346049E+03  0.41800000000E+01 0. -1.
         -5    1    3    3    0  502 -0.45869847834E+02  0.11723940262E+03  0.10547589216E+03  0.16429168176E+03  0.41800000000E+01 0. -1.
        -11    1    1    2    0    0 -0.40197210633E+02 -0.13946882216E+03  0.85843713191E+02  0.16863128771E+03  0.00000000000E+00 0.  1.
         11    1    1    2    0    0  0.25574824107E+02 -0.14541580650E+03  0.16792245543E+03  0.22360183238E+03  0.00000000000E+00 0. -1.
</event>
<event>
 7    1  0.2522928E-009  0.1205061E+03  0.7561462E-02  0.1242264E+00
          2   -1    0    0  501    0  0.00000000000E+00  0.00000000000E+00  0.13153744139E+04  0.13153744139E+04  0.00000000000E+00 0. -1.
         -2   -1    0    0    0  501 -0.00000000000E+00 -0.00000000000E+00 -0.11652972046E+02  0.11652972046E+02  0.00000000000E+00 0.  1.
         25    2    1    2    0    0  0.58890079849E+02 -0.94720328854E+01  0.75243831059E+03  0.76509452727E+03  0.12509381879E+03 0.  0.
          5    1    3    3  502    0  0.18658524121E+02 -0.62910682224E+02  0.48255544950E+03  0.48701450564E+03  0.41800000000E+01 0.  1.
         -5    1    3    3    0  502  0.40231555728E+02  0.53438649338E+02  0.26988286109E+03  0.27808002163E+03  0.41800000000E+01 0.  1.
        -11    1    1    2    0    0 -0.76798616812E+02  0.28679051648E+02  0.44206134411E+03  0.44959842916E+03  0.00000000000E+00 0.  1.
         11    1    1    2    0    0  0.17908536963E+02 -0.19207018762E+02  0.10922178721E+03  0.11233442957E+03  0.00000000000E+00 0. -1.
</event>
<event>
 7    1  0.2522928E-009  0.2052964E+03  0.7561462E-02  0.1145346E+00
         -2   -1    0    0    0  501 -0.00000000000E+00  0.00000000000E+00  0.42531156616E+02  0.42531156616E+02  0.00000000000E+00 0. -1.
          2   -1    0    0  501    0  0.00000000000E+00 -0.00000000000E+00 -0.12496463033E+04  0.12496463033E+04  0.00000000000E+00 0.  1.
         25    2    1    2    0    0  0.52487538503E+02 -0.19383861298E+03 -0.62724138014E+03  0.67037894502E+03  0.12509129219E+03 0.  0.
          5    1    3    3  502    0  0.14855635786E+02 -0.21495061023E+02 -0.97984241815E+01  0.28217177028E+02  0.41800000000E+01 0. -1.
         -5    1    3    3    0  502  0.37631902717E+02 -0.17234355196E+03 -0.61744295596E+03  0.64216176799E+03  0.41800000000E+01 0. -1.
        -11    1    1    2    0    0 -0.27610952394E+02  0.25739049300E+02 -0.22727088323E+03  0.23038428270E+03  0.00000000000E+00 0.  1.
         11    1    1    2    0    0 -0.24876586109E+02  0.16809956368E+03 -0.35260288331E+03  0.39141423219E+03  0.00000000000E+00 0. -1.
</event>
<event>
 7    1  0.2522928E-009  0.1132211E+03  0.7561462E-02  0.1254719E+00
          2   -1    0    0  501    0  0.00000000000E+00  0.00000000000E+00  0.30976953579E+03  0.30976953579E+03  0.00000000000E+00 0. -1.
         -2   -1    0    0    0  501 -0.00000000000E+00 -0.00000000000E+00 -0.70397506881E+02  0.70397506881E+02  0.00000000000E+00 0.  1.
         25    2    1    2    0    0  0.66719239915E+02  0.20517232566E+01  0.22421942260E+03  0.26529159576E+03  0.12509842031E+03 0.  0.
          5    1    3    3  502    0 -0.35775791341E+02  0.76495955984E+01  0.81602442007E+02  0.89525719771E+02  0.41800000000E+01 0. -1.
         -5    1    3    3    0  502  0.10249503126E+03 -0.55978723418E+01  0.14261698060E+03  0.17576587599E+03  0.41800000000E+01 0. -1.
        -11    1    1    2    0    0 -0.10276260539E+02 -0.24170806634E+02 -0.29563691110E+02  0.39545432809E+02  0.00000000000E+00 0.  1.
         11    1    1    2    0    0 -0.56442979376E+02  0.22119083378E+02  0.44716297414E+02  0.75330014103E+02  0.00000000000E+00 0. -1.
</event>
<event>
 7    1  0.2522928E-009  0.1185422E+03  0.7561462E-02  0.1245522E+00
          2   -1    0    0  501    0  0.00000000000E+00  0.00000000000E+00  0.96717751284E+02  0.96717751284E+02  0.00000000000E+00 0. -1.
         -2   -1    0    0    0  501 -0.00000000000E+00 -0.00000000000E+00 -0.32632948028E+03  0.32632948028E+03  0.00000000000E+00 0.  1.
         25    2    1    2    0    0 -0.58085179813E+02 -0.52902285710E+02 -0.25934628189E+03  0.29846382071E+03  0.12509044085E+03 0.  0.
          5    1    3    3  502    0  0.13852320011E+02  0.12248227510E+02 -0.15400522133E+03  0.15516760759E+03  0.41800000000E+01 0.  1.
         -5    1    3    3    0  502 -0.71937499825E+02 -0.65150513220E+02 -0.10534106056E+03  0.14329621312E+03  0.41800000000E+01 0.  1.
        -11    1    1    2    0    0 -0.39280503426E+01  0.58578470882E+02  0.14608053249E+02  0.60500099587E+02  0.00000000000E+00 0.  1.
         11    1    1    2    0    0  0.62013230156E+02 -0.56761851721E+01  0.15126499644E+02  0.64083311275E+02  0.00000000000E+00 0. -1.
</event>
<event>
 6    1  0.2522928E-009  0.2025008E+03  0.7561462E-02  0.1147646E+00
         -1   -1    0    0    0  501 -0.00000000000E+00  0.00000000000E+00  0.26367208300E+02  0.26367208300E+02  0.00000000000E+00 0.  1.
          1   -1    0    0  501    0  0.00000000000E+00 -0.00000000000E+00 -0.19223668739E+04  0.19223668739E+04  0.00000000000E+00 0. -1.
          5    1    1    2  502    0 -0.61126699070E+02 -0.48978989995E+02 -0.13013943681E+03  0.15195117707E+03  0.41800000000E+01 0.  1.
         -5    1    1    2    0  502 -0.52992615436E+02 -0.10680878622E+03 -0.67255851602E+03  0.68305838988E+03  0.41800000000E+01 0.  1.
        -11    1    1    2    0    0  0.46834460584E+01  0.64707069269E+02 -0.23944053888E+03  0.24807400336E+03  0.00000000000E+00 0.  1.
         11    1    1    2    0    0  0.10943586845E+03  0.91080706950E+02 -0.85386117393E+03  0.86565051194E+03  0.00000000000E+00 0. -1.
</event>
<event>
 7    1  0.2522928E-009  0.1164432E+03  0.7561462E-02  0.1249083E+00
          4   -1    0    0  501    0  0.00000000000E+00  0.00000000000E+00  0.31299174915E+03  0.31299174915E+03  0.00000000000E+00 0. -1.
         -4   -1    0    0    0  501 -0.00000000000E+00 -0.00000000000E+00 -0.54776456562E+02  0.54776456562E+02  0.00000000000E+00 0.  1.
         25    2    1    2    0    0 -0.24690402595E+02  0.46588121254E+02  0.94848787719E+02  0.16560360402E+03  0.12509273404E+03 0.  0.
          5    1    3    3  502    0 -0.46251990622E+02 -0.18216741946E+02  0.15589923888E+01  0.49909910648E+02  0.41800000000E+01 0.  1.
         -5    1    3    3    0  502  0.21561588027E+02  0.64804863200E+02  0.93289795331E+02  0.11569369337E+03  0.41800000000E+01 0.  1.
        -11    1    1    2    0    0  0.63151982248E+02 -0.41995658332E+02  0.79980505700E+02  0.11022109359E+03  0.00000000000E+00 0.  1.
         11    1    1    2    0    0 -0.38461579653E+02 -0.45924629216E+01  0.83385999173E+02  0.91943508107E+02  0.00000000000E+00 0. -1.
</event>
<event>
 7    1  0.2522928E-009  0.2492873E+03  0.7561462E-02  0.1113756E+00
         -1   -1    0    0    0  501 -0.00000000000E+00  0.00000000000E+00  0.13575658519E+03  0.13575658519E+03  0.00000000000E+00 0.  1.
          1   -1    0    0  501    0  0.00000000000E+00 -0.00000000000E+00 -0.55319756259E+03  0.55319756259E+03  0.00000000000E+00 0. -1.
         25    2    1    2    0    0  0.65096590142E+02  0.23312029487E+03 -0.12850107008E+03  0.30123346754E+03  0.12508572670E+03 0.  0.
          5    1    3    3  502    0  0.17693372548E+02  0.19077805295E+03 -0.13890937844E+03  0.23669095618E+03  0.41800000000E+01 0. -1.
         -5    1    3    3    0  502  0.47403217593E+02  0.42342241918E+02  0.10408308361E+02  0.64542511353E+02  0.41800000000E+01 0. -1.
        -11    1    1    2    0    0 -0.59766255556E+02 -0.17609895410E+03 -0.26911327801E+03  0.32711588671E+03  0.00000000000E+00 0. -1.
         11    1    1    2    0    0 -0.53303345853E+01 -0.57021340764E+02 -0.19826629310E+02  0.60604793533E+02  0.00000000000E+00 0.  1.
</event>
<event>
 7    1  0.2522928E-009  0.1275517E+03  0.7561462E-02  0.1231135E+00
          2   -1    0    0  501    0  0.00000000000E+00  0.00000000000E+00  0.28192762408E+03  0.28192762408E+03  0.00000000000E+00 0. -1.
         -2   -1    0    0    0  501 -0.00000000000E+00 -0.00000000000E+00 -0.74802655857E+02  0.74802655857E+02  0.00000000000E+00 0.  1.
         25    2    1    2    0    0 -0.52852706235E+02  0.50292192761E+02  0.35964661662E+02  0.14920794469E+03  0.12508733213E+03 0.  0.
          5    1    3    3  502    0  0.78492941117E+01  0.75672435083E+02  0.33506662481E+02  0.83235194960E+02  0.41800000000E+01 0.  1.
         -5    1    3    3    0  502 -0.60702000347E+02 -0.25380242322E+02  0.24579991812E+01  0.65972749726E+02  0.41800000000E+01 0.  1.
        -11    1    1    2    0    0  0.67412324052E+02 -0.75554284912E+01  0.12900608618E+03  0.14575347751E+03  0.00000000000E+00 0. -1.
         11    1    1    2    0    0 -0.14559617817E+02 -0.42736764270E+02  0.42154220385E+02  0.61768857748E+02  0.00000000000E+00 0.  1.
</event>
<event>
 7    1  0.2522928E-009  0.2610722E+03  0.7561462E-02  0.1106501E+00
          1   -1    0    0  501    0  0.00000000000E+00  0.00000000000E+00  0.17569763064E+03  0.17569763064E+03  0.00000000000E+00 0. -1.
         -1   -1    0    0    0  501 -0.00000000000E+00 -0.00000000000E+00 -0.48111943159E+03  0.48111943159E+03  0.00000000000E+00 0.  1.
         25    2    1    2    0    0  0.12197634830E+03 -0.22808293999E+03 -0.24173044496E+03  0.37547417216E+03  0.12508872403E+03 0.  0.
          5    1    3    3  502    0  0.10013798237E+03 -0.16828264539E+03 -0.24243376365E+03  0.31167012435E+03  0.41800000000E+01 0. -1.
         -5    1    3    3    0  502  0.21838365927E+02 -0.59800294596E+02  0.70331868852E+00  0.63804047813E+02  0.41800000000E+01 0. -1.
        -11    1    1    2    0    0 -0.54278932386E+02  0.58104432951E+02  0.17107590417E+02  0.81332633545E+02  0.00000000000E+00 0. -1.
         11    1    1    2    0    0 -0.67697415910E+02  0.16997850704E+03 -0.80798946404E+02  0.20001025653E+03  0.00000000000E+00 0.  1.
</event>
<event>
 7    1  0.2522928E-009  0.1673482E+03  0.7561462E-02  0.1180642E+00
          1   -1    0    0  501    0  0.00000000000E+00  0.00000000000E+00  0.64094900365E+02  0.64094900365E+02  0.00000000000E+00 0. -1.
         -1   -1    0    0    0  501 -0.00000000000E+00 -0.00000000000E+00 -0.56469854155E+03  0.56469854155E+03  0.00000000000E+00 0.  1.
         25    2    1    2    0    0 -0.12570975573E+03 -0.32089156709E+02 -0.12080403329E+03  0.21695990134E+03  0.12508128423E+03 0.  0.
          5    1    3    3  502    0  0.23830867022E+02 -0.85498130837E+01 -0.33358721842E+02  0.42086651681E+02  0.41800000000E+01 0. -1.
         -5    1    3    3    0  502 -0.14954062275E+03 -0.23539343625E+02 -0.87445311452E+02  0.17487324966E+03  0.41800000000E+01 0. -1.
        -11    1    1    2    0    0  0.52242326481E+02 -0.31008327169E+02 -0.17609981797E+03  0.18628452142E+03  0.00000000000E+00 0. -1.
         11    1    1    2    0    0  0.73467429245E+02  0.63097483877E+02 -0.20369978992E+03  0.22554901916E+03  0.00000000000E+00 0.  1.
</event>
<event>
 7    1  0.2522928E-009  0.9412790E+02  0.7561462E-02  0.1293152E+00
         -1   -1    0    0    0  501 -0.00000000000E+00  0.00000000000E+00  0.28823297525E+03  0.28823297525E+03  0.00000000000E+00 0.  1.
          1   -1    0    0  501    0  0.00000000000E+00 -0.00000000000E+00 -0.60447089624E+02  0.60447089624E+02  0.00000000000E+00 0. -1.
         25    2    1    2    0    0  0.71523488708E+01 -0.46087685429E+02  0.20393218835E+03  0.24374531987E+03  0.12509281623E+03 0.  0.
          5    1    3    3  502    0  0.53980035569E+02 -0.91582592983E+00  0.14885192071E+03  0.15839523250E+03  0.41800000000E+01 0.  1.
         -5    1    3    3    0  502 -0.46827686698E+02 -0.45171859499E+02  0.55080267636E+02  0.85350087376E+02  0.41800000000E+01 0.  1.
        -11    1    1    2    0    0  0.66102316693E+01  0.53067016218E+02 -0.21036781928E+02  0.57466073181E+02  0.00000000000E+00 0. -1.
         11    1    1    2    0    0 -0.13762580540E+02 -0.69793307889E+01  0.44890479203E+02  0.47468671822E+02  0.00000000000E+00 0.  1.
</event>
<event>
 6    1  0.2522928E-009  0.2551221E+03  0.7561462E-02  0.1110110E+00
         -3   -1    0    0    0  501 -0.00000000000E+00  0.00000000000E+00  0.92098526433E+03  0.92098526433E+03  0.00000000000E+00 0.  1.
          3   -1    0    0  501    0  0.00000000000E+00 -0.00000000000E+00 -0.79802525056E+02  0.79802525056E+02  0.00000000000E+00 0. -1.
          5    1    1    2  502    0 -0.10735488434E+02 -0.68504469021E+02  0.26466018897E+03  0.27362492762E+03  0.41800000000E+01 0.  1.
         -5    1    1    2    0  502  0.75360435391E+02 -0.16897702655E+03  0.26218492097E+03  0.32092185327E+03  0.41800000000E+01 0.  1.
        -11    1    1    2    0    0 -0.44798787604E+02  0.23031090196E+03  0.29949803272E+03  0.38045908392E+03  0.00000000000E+00 0. -1.
         11    1    1    2    0    0 -0.19826159353E+02  0.71705936101E+01  0.14839596607E+02  0.25781924576E+02  0.00000000000E+00 0.  1.
</event>
<event>
 7    1  0.2522928E-009  0.1309661E+03  0.7561462E-02  0.1226029E+00
         -2   -1    0    0    0  501 -0.00000000000E+00  0.00000000000E+00  0.30317074959E+02  0.30317074959E+02  0.00000000000E+00 0.  1.
          2   -1    0    0  501    0  0.00000000000E+00 -0.00000000000E+00 -0.13806579434E+04  0.13806579434E+04  0.00000000000E+00 0. -1.
         25    2    1    2    0    0 -0.10802493295E+03  0.98072480852E+01 -0.11707021688E+04  0.11823521583E+04  0.12508992692E+03 0.  0.
          5    1    3    3  502    0 -0.20348235323E+02  0.35576145123E+02 -0.10595360967E+03  0.11368092446E+03  0.41800000000E+01 0. -1.
         -5    1    3    3    0  502 -0.87676697625E+02 -0.25768897038E+02 -0.10647485592E+04  0.10686712338E+04  0.41800000000E+01 0. -1.
        -11    1    1    2    0    0  0.58021595112E+02  0.30020838309E+02 -0.44259048902E+02  0.78908932586E+02  0.00000000000E+00 0.  1.
         11    1    1    2    0    0  0.50003337836E+02 -0.39828086394E+02 -0.13537965068E+03  0.14971392747E+03  0.00000000000E+00 0. -1.
</event>
<event>
 7    1  0.2522928E-009  0.9239114E+02  0.7561462E-02  0.1297162E+00
          2   -1    0    0  501    0  0.00000000000E+00  0.00000000000E+00  0.45174076784E+03  0.45174076784E+03  0.00000000000E+00 0. -1.
         -2   -1    0    0    0  501 -0.00000000000E+00 -0.00000000000E+00 -0.32968575748E+02  0.32968575748E+02  0.00000000000E+00 0.  1.
         25    2    1    2    0    0  0.35461642841E+02 -0.32290035485E+02  0.29767685007E+03  0.32643350673E+03  0.12508857958E+03 0.  0.
          5    1    3    3  502    0 -0.92062782658E+01  0.32115801471E+02  0.19126156152E+03  0.19420256841E+03  0.41800000000E+01 0.  1.
         -5    1    3    3    0  502  0.44667921107E+02 -0.64405836956E+02  0.10641528855E+03  0.13223093831E+03  0.41800000000E+01 0.  1.
        -11    1    1    2    0    0 -0.18396354671E+02  0.46759314575E+02  0.18939876681E+02  0.53698959891E+02  0.00000000000E+00 0.  1.
         11    1    1    2    0    0 -0.17065288171E+02 -0.14469279090E+02  0.10215546534E+03  0.10457687697E+03  0.00000000000E+00 0. -1.
</event>
<event>
 7    1  0.2522928E-009  0.1545340E+03  0.7561462E-02  0.1195010E+00
         -1   -1    0    0    0  501 -0.00000000000E+00  0.00000000000E+00  0.26551165572E+03  0.26551165572E+03  0.00000000000E+00 0.  1.
          1   -1    0    0  501    0  0.00000000000E+00 -0.00000000000E+00 -0.11084419846E+03  0.11084419846E+03  0.00000000000E+00 0. -1.
         25    2    1    2    0    0  0.93918664097E+02  0.67367896295E+02  0.11730012100E+02  0.17071670614E+03  0.12508977439E+03 0.  0.
          5    1    3    3  502    0  0.40908388882E+02 -0.33542242536E+02  0.19140919815E+02  0.56412990762E+02  0.41800000000E+01 0.  1.
         -5    1    3    3    0  502  0.53010275214E+02  0.10091013883E+03 -0.74109077147E+01  0.11430371538E+03  0.41800000000E+01 0.  1.
        -11    1    1    2    0    0 -0.75018528168E+02 -0.86871152539E+02  0.13529936906E+03  0.17742687502E+03  0.00000000000E+00 0. -1.
         11    1    1    2    0    0 -0.18900135928E+02  0.19503256244E+02  0.76380761038E+01  0.28212273017E+02  0.00000000000E+00 0.  1.
</event>
<event>
 7    1  0.2522928E-009  0.1251680E+03  0.7561462E-02  0.1234807E+00
          2   -1    0    0  501    0  0.00000000000E+00  0.00000000000E+00  0.95319840137E+03  0.95319840137E+03  0.00000000000E+00 0.  1.
         -2   -1    0    0    0  501 -0.00000000000E+00 -0.00000000000E+00 -0.20664936251E+02  0.20664936251E+02  0.00000000000E+00 0. -1.
         25    2    1    2    0    0  0.63669867397E+02  0.57833943457E+02  0.42866514867E+03  0.45475307072E+03  0.12509168083E+03 0.  0.
          5    1    3    3  502    0 -0.15235553015E+02  0.42010522852E+02  0.48256823635E+02  0.65902955421E+02  0.41800000000E+01 0. -1.
         -5    1    3    3    0  502  0.78905420412E+02  0.15823420605E+02  0.38040832504E+03  0.38885011530E+03  0.41800000000E+01 0. -1.
        -11    1    1    2    0    0 -0.80350887540E+02 -0.18947016051E+02  0.33248060397E+03  0.34257642441E+03  0.00000000000E+00 0.  1.
         11    1    1    2    0    0  0.16681020144E+02 -0.38886927406E+02  0.17138771247E+03  0.17653384249E+03  0.00000000000E+00 0. -1.
</event>
<event>
 7    1  0.2522928E-009  0.9453922E+02  0.7561462E-02  0.1292217E+00
         -1   -1    0    0    0  501 -0.00000000000E+00  0.00000000000E+00  0.37823848187E+02  0.37823848187E+02  0.00000000000E+00 0.  1.
          1   -1    0    0  501    0  0.00000000000E+00 -0.00000000000E+00 -0.43636062963E+03  0.43636062963E+03  0.00000000000E+00 0. -1.
         25    2    1    2    0    0 -0.10866758480E+01 -0.56611083791E+02 -0.29273607614E+03  0.32333799812E+03  0.12508818923E+03 0.  0.
          5    1    3    3  502    0 -0.23563577718E+02 -0.56750746702E+02 -0.29405637838E+03  0.30043720727E+03  0.41800000000E+01 0.  1.
         -5    1    3    3    0  502  0.22476901870E+02  0.13966291110E+00  0.13203022458E+01  0.22900790847E+02  0.41800000000E+01 0.  1.
        -11    1    1    2    0    0  0.39491415302E+02  0.42920620815E+01 -0.23942912978E+02  0.46381642504E+02  0.00000000000E+00 0. -1.
         11    1    1    2    0    0 -0.38404739454E+02  0.52319021709E+02 -0.81857792328E+02  0.10446483719E+03  0.00000000000E+00 0.  1.
</event>
<event>
 7    1  0.2522928E-009  0.1229075E+03  0.7561462E-02  0.1238376E+00
         -2   -1    0    0    0  501 -0.00000000000E+00  0.00000000000E+00  0.11752296938E+04  0.11752296938E+04  0.00000000000E+00 0.  1.
          2   -1    0    0  501    0  0.00000000000E+00 -0.00000000000E+00 -0.20627292183E+02  0.20627292183E+02  0.00000000000E+00 0. -1.
         25    2    1    2    0    0 -0.79548787283E+02  0.73662238706E+02  0.65565001599E+03  0.67622398374E+03  0.12509115775E+03 0.  0.
          5    1    3    3  502    0  0.57900946440E+01 -0.86146393946E+01  0.13635180118E+01  0.11272479286E+02  0.41800000000E+01 0.  1.
         -5    1    3    3    0  502 -0.85338881927E+02  0.82276878101E+02  0.65428649798E+03  0.66495150446E+03  0.41800000000E+01 0.  1.
        -11    1    1    2    0    0  0.27265980607E+02 -0.20501935494E+01  0.23713472676E+02  0.36193449385E+02  0.00000000000E+00 0. -1.
         11    1    1    2    0    0  0.52282806677E+02 -0.71612045157E+02  0.47523891292E+03  0.48343955283E+03  0.00000000000E+00 0.  1.
</event>
<event>
 7    1  0.2522928E-009  0.1032077E+03  0.7561462E-02  0.1273692E+00
          1   -1    0    0  501    0  0.00000000000E+00  0.00000000000E+00  0.80076702675E+03  0.80076702675E+03  0.00000000000E+00 0.  1.
         -1   -1    0    0    0  501 -0.00000000000E+00 -0.00000000000E+00 -0.24670244585E+02  0.24670244585E+02  0.00000000000E+00 0. -1.
         25    2    1    2    0    0 -0.22944458091E+02 -0.79028135690E+02  0.32884155543E+03  0.36132559586E+03  0.12509006057E+03 0.  0.
          5    1    3    3  502    0 -0.36816812483E+02 -0.58351799769E+02  0.60679425415E+02  0.91977580347E+02  0.41800000000E+01 0.  1.
         -5    1    3    3    0  502  0.13872354392E+02 -0.20676335920E+02  0.26816213002E+03  0.26934801551E+03  0.41800000000E+01 0.  1.
        -11    1    1    2    0    0 -0.17249861551E+02  0.68299861217E+02  0.36716123055E+03  0.37385799174E+03  0.00000000000E+00 0. -1.
         11    1    1    2    0    0  0.40194319642E+02  0.10728274472E+02  0.80093996181E+02  0.90253683741E+02  0.00000000000E+00 0.  1.
</event>
<event>
 7    1  0.2522928E-009  0.8498797E+02  0.7561462E-02  0.1315464E+00
          2   -1    0    0  501    0  0.00000000000E+00  0.00000000000E+00  0.51865471355E+03  0.51865471355E+03  0.00000000000E+00 0. -1.
         -2   -1    0    0    0  501 -0.00000000000E+00 -0.00000000000E+00 -0.25734405542E+02  0.25734405542E+02  0.00000000000E+00 0.  1.
         25    2    1    2    0    0  0.26183191813E+02  0.56443523294E+01  0.31956098589E+03  0.34421626476E+03  0.12509274549E+03 0.  0.
          5    1    3    3  502    0 -0.35514665654E+02  0.64641946740E+01  0.27215387463E+02  0.45400737924E+02  0.41800000000E+01 0. -1.
         -5    1    3    3    0  502  0.61697857467E+02 -0.81984234465E+00  0.29234559843E+03  0.29881552684E+03  0.41800000000E+01 0. -1.
        -11    1    1    2    0    0 -0.16418898621E+02 -0.36180954269E+02  0.21920835623E+02  0.45378020210E+02  0.00000000000E+00 0.  1.
         11    1    1    2    0    0 -0.97642931921E+01  0.30536601940E+02  0.15143848649E+03  0.15479483412E+03  0.00000000000E+00 0. -1.
</event>
<event>
 7    1  0.2522928E-009  0.1087048E+03  0.7561462E-02  0.1262987E+00
         -1   -1    0    0    0  501 -0.00000000000E+00  0.00000000000E+00  0.14130918737E+03  0.14130918737E+03  0.00000000000E+00 0.  1.
          1   -1    0    0  501    0  0.00000000000E+00 -0.00000000000E+00 -0.10523021994E+03  0.10523021994E+03  0.00000000000E+00 0. -1.
         25    2    1    2    0    0 -0.18848805169E+02  0.11394492109E+02 -0.30841072369E+02  0.13070333742E+03  0.12508828387E+03 0.  0.
          5    1    3    3  502    0  0.51661635842E+02 -0.90303947258E+01 -0.20444290440E+02  0.56443901870E+02  0.41800000000E+01 0.  1.
         -5    1    3    3    0  502 -0.70510441010E+02  0.20424886835E+02 -0.10396781929E+02  0.74259435550E+02  0.41800000000E+01 0.  1.
        -11    1    1    2    0    0 -0.23134088954E+02  0.26174169041E+02  0.11418208262E+02  0.36751172453E+02  0.00000000000E+00 0.  1.
         11    1    1    2    0    0  0.41982894123E+02 -0.37568661150E+02  0.55501831531E+02  0.79084897438E+02  0.00000000000E+00 0. -1.
</event>
<event>
 7    1  0.2522928E-009  0.2011254E+03  0.7561462E-02  0.1148793E+00
          2   -1    0    0  501    0  0.00000000000E+00  0.00000000000E+00  0.48573616634E+03  0.48573616634E+03  0.00000000000E+00 0. -1.
         -2   -1    0    0    0  501 -0.00000000000E+00 -0.00000000000E+00 -0.10788013627E+03  0.10788013627E+03  0.00000000000E+00 0.  1.
         25    2    1    2    0    0  0.16042487133E+02  0.17110343594E+03  0.59762690580E+02  0.22080135295E+03  0.12509161080E+03 0.  0.
          5    1    3    3  502    0  0.20055496801E+02 -0.12585978128E+02  0.23214273470E+02  0.33421620101E+02  0.41800000000E+01 0.  1.
         -5    1    3    3    0  502 -0.40130096681E+01  0.18368941407E+03  0.36548417110E+02  0.18737973285E+03  0.41800000000E+01 0.  1.
        -11    1    1    2    0    0 -0.46207999672E+02 -0.44047583942E+02  0.10224308553E+03  0.12053637386E+03  0.00000000000E+00 0.  1.
         11    1    1    2    0    0  0.30165512538E+02 -0.12705585200E+03  0.21585025396E+03  0.25227857580E+03  0.00000000000E+00 0. -1.
</event>
<event>
 7    1  0.2522928E-009  0.1121624E+03  0.7561462E-02  0.1256617E+00
         -4   -1    0    0    0  501 -0.00000000000E+00  0.00000000000E+00  0.34437614398E+03  0.34437614398E+03  0.00000000000E+00 0.  1.
          4   -1    0    0  501    0  0.00000000000E+00 -0.00000000000E+00 -0.41801743382E+02  0.41801743382E+02  0.00000000000E+00 0. -1.
         25    2    1    2    0    0 -0.38947050444E+02  0.31447671261E+02  0.19662698238E+03  0.23836482725E+03  0.12509912831E+03 0.  0.
          5    1    3    3  502    0 -0.31858615726E+01 -0.44711483888E+02  0.38666401139E+02  0.59345003854E+02  0.41800000000E+01 0. -1.
         -5    1    3    3    0  502 -0.35761188871E+02  0.76159155149E+02  0.15796058124E+03  0.17901982340E+03  0.41800000000E+01 0. -1.
        -11    1    1    2    0    0 -0.21813126042E+02  0.72982303318E+01  0.45996368105E+01  0.23457052084E+02  0.00000000000E+00 0.  1.
         11    1    1    2    0    0  0.60760176485E+02 -0.38745901593E+02  0.10134778140E+03  0.12435600803E+03  0.00000000000E+00 0. -1.
</event>
<event>
 7    1  0.2522928E-009  0.6818025E+02  0.7561462E-02  0.1366393E+00
          2   -1    0    0  501    0  0.00000000000E+00  0.00000000000E+00  0.13130930637E+03  0.13130930637E+03  0.00000000000E+00 0. -1.
         -2   -1    0    0    0  501 -0.00000000000E+00 -0.00000000000E+00 -0.93047581947E+02  0.93047581947E+02  0.00000000000E+00 0.  1.
         25    2    1    2    0    0 -0.39591295876E+01 -0.29772816569E+02  0.29335711936E+02  0.13194424735E+03  0.12508639055E+03 0.  0.
          5    1    3    3  502    0 -0.14964288970E+02  0.58798923993E+00  0.74589274385E+02  0.76192571351E+02  0.41800000000E+01 0. -1.
         -5    1    3    3    0  502  0.11005159383E+02 -0.30360805809E+02 -0.45253562449E+02  0.55751676000E+02  0.41800000000E+01 0. -1.
        -11    1    1    2    0    0 -0.39510306525E+02  0.12066851450E+02  0.17204283834E+02  0.44751096164E+02  0.00000000000E+00 0. -1.
         11    1    1    2    0    0  0.43469436113E+02  0.17705965119E+02 -0.82782713446E+01  0.47661544805E+02  0.00000000000E+00 0.  1.
</event>
<event>
 7    1  0.2522928E-009  0.9560659E+02  0.7561462E-02  0.1289816E+00
          2   -1    0    0  501    0  0.00000000000E+00  0.00000000000E+00  0.51679024338E+03  0.51679024338E+03  0.00000000000E+00 0. -1.
         -2   -1    0    0    0  501 -0.00000000000E+00 -0.00000000000E+00 -0.27791755031E+02  0.27791755031E+02  0.00000000000E+00 0.  1.
         25    2    1    2    0    0 -0.14201654639E+02 -0.52539720068E+02  0.23769376207E+03  0.27406109817E+03  0.12509617030E+03 0.  0.
          5    1    3    3  502    0 -0.40567860491E+02 -0.80187258835E+02  0.20397941028E+03  0.22293680719E+03  0.41800000000E+01 0.  1.
         -5    1    3    3    0  502  0.26366205851E+02  0.27647538767E+02  0.33714351795E+02  0.51124290977E+02  0.41800000000E+01 0.  1.
        -11    1    1    2    0    0  0.24143907746E+02  0.41056037303E+02  0.25084251197E+03  0.25532428849E+03  0.00000000000E+00 0. -1.
         11    1    1    2    0    0 -0.99422531063E+01  0.11483682765E+02  0.46221430452E+00  0.15196611752E+02  0.00000000000E+00 0.  1.
</event>
<event>
 7    1  0.2522928E-009  0.8395836E+02  0.7561462E-02  0.1318179E+00
          2   -1    0    0  501    0  0.00000000000E+00  0.00000000000E+00  0.28352819806E+03  0.28352819806E+03  0.00000000000E+00 0. -1.
         -2   -1    0    0    0  501 -0.00000000000E+00 -0.00000000000E+00 -0.56144116369E+02  0.56144116369E+02  0.00000000000E+00 0.  1.
         25    2    1    2    0    0  0.42385927917E+02  0.51586171617E+02  0.12621475228E+03  0.18983367350E+03  0.12509580294E+03 0.  0.
          5    1    3    3  502    0  0.49836212891E+02  0.48697230367E+02  0.68612713464E+01  0.70139987205E+02  0.41800000000E+01 0.  1.
         -5    1    3    3    0  502 -0.74502849732E+01  0.28889412501E+01  0.11935348093E+03  0.11969368629E+03  0.41800000000E+01 0.  1.
        -11    1    1    2    0    0  0.13399943292E+02 -0.43314998499E+00 -0.90197812342E+01  0.16158668035E+02  0.00000000000E+00 0.  1.
         11    1    1    2    0    0 -0.55785871210E+02 -0.51153021632E+02  0.11018911065E+03  0.13367997290E+03  0.00000000000E+00 0. -1.
</event>
<event>
 7    1  0.2522928E-009  0.1072726E+03  0.7561462E-02  0.1265706E+00
         -1   -1    0    0    0  501 -0.00000000000E+00  0.00000000000E+00  0.29318112187E+02  0.29318112187E+02  0.00000000000E+00 0.  1.
          1   -1    0    0  501    0  0.00000000000E+00 -0.00000000000E+00 -0.45108486602E+03  0.45108486602E+03  0.00000000000E+00 0. -1.
         25    2    1    2    0    0  0.29242321759E+02  0.14410003871E+02 -0.21492869873E+03  0.25079261879E+03  0.12505930796E+03 0.  0.
          5    1    3    3  502    0  0.11596523540E+02  0.62545109327E+02 -0.17319393427E+03  0.18455346468E+03  0.41800000000E+01 0. -1.
         -5    1    3    3    0  502  0.17645798220E+02 -0.48135105455E+02 -0.41734764463E+02  0.66239154107E+02  0.41800000000E+01 0. -1.
        -11    1    1    2    0    0  0.34466868690E+02 -0.26011900718E+01 -0.63204909913E+02  0.72038821924E+02  0.00000000000E+00 0.  1.
         11    1    1    2    0    0 -0.63709190450E+02 -0.11808813800E+02 -0.14363314519E+03  0.15757153750E+03  0.00000000000E+00 0. -1.
</event>
<event>
 7    1  0.2522928E-009  0.8540900E+02  0.7561462E-02  0.1314366E+00
         -2   -1    0    0    0  501 -0.00000000000E+00  0.00000000000E+00  0.58496884457E+02  0.58496884457E+02  0.00000000000E+00 0.  1.
          2   -1    0    0  501    0  0.00000000000E+00 -0.00000000000E+00 -0.31235232623E+03  0.31235232623E+03  0.00000000000E+00 0. -1.
         25    2    1    2    0    0  0.47053865442E+02  0.61167408919E+02 -0.14564623458E+03  0.20691966243E+03  0.12508957945E+03 0.  0.
          5    1    3    3  502    0  0.16260155474E+02  0.53849935695E+02  0.14237075349E+01  0.56424352663E+02  0.41800000000E+01 0. -1.
         -5    1    3    3    0  502  0.30793709969E+02  0.73174732242E+01 -0.14706994212E+03  0.15049530977E+03  0.41800000000E+01 0. -1.
        -11    1    1    2    0    0 -0.70000566235E+01 -0.32460916903E+02  0.10963582010E+02  0.34970159414E+02  0.00000000000E+00 0.  1.
         11    1    1    2    0    0 -0.40053808819E+02 -0.28706492016E+02 -0.11917278921E+03  0.12895938885E+03  0.00000000000E+00 0. -1.
</event>
<event>
 7    1  0.2522928E-009  0.8826948E+02  0.7561462E-02  0.1307097E+00
          1   -1    0    0  501    0  0.00000000000E+00  0.00000000000E+00  0.69533933022E+02  0.69533933022E+02  0.00000000000E+00 0. -1.
         -1   -1    0    0    0  501 -0.00000000000E+00 -0.00000000000E+00 -0.20669807812E+03  0.20669807812E+03  0.00000000000E+00 0.  1.
         25    2    1    2    0    0  0.21192713249E+02  0.75811411523E+01 -0.10309734873E+03  0.16365432302E+03  0.12508824618E+03 0.  0.
          5    1    3    3  502    0 -0.26285451584E+02 -0.30085906107E+01  0.18545483725E+02  0.32578888088E+02  0.41800000000E+01 0.  1.
         -5    1    3    3    0  502  0.47478164833E+02  0.10589731763E+02 -0.12164283245E+03  0.13107543493E+03  0.41800000000E+01 0.  1.
        -11    1    1    2    0    0 -0.86844308376E+01 -0.53057963170E+02 -0.37088143123E+02  0.65315366913E+02  0.00000000000E+00 0.  1.
         11    1    1    2    0    0 -0.12508282411E+02  0.45476822018E+02  0.30213467563E+01  0.47262321208E+02  0.00000000000E+00 0. -1.
</event>
<event>
 7    1  0.2522928E-009  0.1019819E+03  0.7561462E-02  0.1276183E+00
         -1   -1    0    0    0  501 -0.00000000000E+00  0.00000000000E+00  0.10700690201E+02  0.10700690201E+02  0.00000000000E+00 0.  1.
          1   -1    0    0  501    0  0.00000000000E+00 -0.00000000000E+00 -0.11274685734E+04  0.11274685734E+04  0.00000000000E+00 0. -1.
         25    2    1    2    0    0  0.10230259606E+02  0.13490256040E+02 -0.66656970876E+03  0.67841698300E+03  0.12509109068E+03 0.  0.
          5    1    3    3  502    0  0.56172181047E+02 -0.13556504070E+02 -0.50305080217E+03  0.50637602105E+03  0.41800000000E+01 0.  1.
         -5    1    3    3    0  502 -0.45941921441E+02  0.27046760110E+02 -0.16351890659E+03  0.17204096195E+03  0.41800000000E+01 0.  1.
        -11    1    1    2    0    0 -0.21788348312E+02 -0.49847789464E+02 -0.23659006560E+03  0.24276406937E+03  0.00000000000E+00 0.  1.
         11    1    1    2    0    0  0.11558088705E+02  0.36357533424E+02 -0.21360810884E+03  0.21698821123E+03  0.00000000000E+00 0. -1.
</event>
<event>
 7    1  0.2522928E-009  0.1172374E+03  0.7561462E-02  0.1247725E+00
         -1   -1    0    0    0  501 -0.00000000000E+00  0.00000000000E+00  0.53116978666E+02  0.53116978666E+02  0.00000000000E+00 0.  1.
          1   -1    0    0  501    0  0.00000000000E+00 -0.00000000000E+00 -0.32277607772E+03  0.32277607772E+03  0.00000000000E+00 0. -1.
         25    2    1    2    0    0 -0.23664958792E+02  0.50486940286E+02 -0.76672878894E+02  0.15695503655E+03  0.12508873541E+03 0.  0.
          5    1    3    3  502    0 -0.64341264623E+02  0.66874476300E+02 -0.51315749720E+02  0.10612621016E+03  0.41800000000E+01 0. -1.
         -5    1    3    3    0  502  0.40676305831E+02 -0.16387536014E+02 -0.25357129174E+02  0.50828826394E+02  0.41800000000E+01 0. -1.
        -11    1    1    2    0    0 -0.28114894297E+02 -0.31879966338E+02 -0.12155501891E+03  0.12877267628E+03  0.00000000000E+00 0. -1.
         11    1    1    2    0    0  0.51779853089E+02 -0.18606973948E+02 -0.71431201254E+02  0.90165343553E+02  0.00000000000E+00 0.  1.
</event>
<event>
 7    1  0.2522928E-009  0.2186455E+03  0.7561462E-02  0.1134897E+00
         -2   -1    0    0    0  501 -0.00000000000E+00  0.00000000000E+00  0.79462259539E+02  0.79462259539E+02  0.00000000000E+00 0.  1.
          2   -1    0    0  501    0  0.00000000000E+00 -0.00000000000E+00 -0.67143550688E+03  0.67143550688E+03  0.00000000000E+00 0. -1.
         25    2    1    2    0    0 -0.12730540871E+03  0.14561185055E+03 -0.20176975211E+03  0.30621410053E+03  0.12508622782E+03 0.  0.
          5    1    3    3  502    0 -0.75523478922E+02  0.15952623779E+03 -0.15569932004E+03  0.23539789097E+03  0.41800000000E+01 0. -1.
         -5    1    3    3    0  502 -0.51781929788E+02 -0.13914387246E+02 -0.46070432065E+02  0.70816209554E+02  0.41800000000E+01 0. -1.
        -11    1    1    2    0    0  0.64305128045E+02 -0.12517644024E+03 -0.21092248046E+03  0.25355982223E+03  0.00000000000E+00 0. -1.
         11    1    1    2    0    0  0.63000280664E+02 -0.20435410303E+02 -0.17928101477E+03  0.19112384366E+03  0.00000000000E+00 0.  1.
</event>
<event>
 7    1  0.2522928E-009  0.6564383E+02  0.7561462E-02  0.1375566E+00
          1   -1    0    0  501    0  0.00000000000E+00  0.00000000000E+00  0.13186036957E+03  0.13186036957E+03  0.00000000000E+00 0. -1.
         -1   -1    0    0    0  501 -0.00000000000E+00 -0.00000000000E+00 -0.14364107797E+03  0.14364107797E+03  0.00000000000E+00 0.  1.
         25    2    1    2    0    0  0.62637351074E+01 -0.59022388475E+02  0.52501330252E+02  0.14807377541E+03  0.12508627649E+03 0.  0.
          5    1    3    3  502    0  0.11626152370E+02 -0.96109533761E+01 -0.40015864325E+02  0.42968356280E+02  0.41800000000E+01 0. -1.
         -5    1    3    3    0  502 -0.53624172622E+01 -0.49411435099E+02  0.92517194577E+02  0.10510541913E+03  0.41800000000E+01 0. -1.
        -11    1    1    2    0    0  0.11276607559E+02  0.26680625682E+02 -0.81727820605E+02  0.86709021016E+02  0.00000000000E+00 0.  1.
         11    1    1    2    0    0 -0.17540342667E+02  0.32341762794E+02  0.17445781952E+02  0.40718651124E+02  0.00000000000E+00 0. -1.
</event>
<event>
 7    1  0.2522928E-009  0.1791954E+03  0.7561462E-02  0.1168584E+00
         -2   -1    0    0    0  501 -0.00000000000E+00  0.00000000000E+00  0.14148693989E+03  0.14148693989E+03  0.00000000000E+00 0.  1.
          2   -1    0    0  501    0  0.00000000000E+00 -0.00000000000E+00 -0.40593749629E+03  0.40593749629E+03  0.00000000000E+00 0. -1.
         25    2    1    2    0    0  0.43371117985E+02 -0.13848934256E+03  0.41619289284E+02  0.19606288666E+03  0.12509251939E+03 0.  0.
          5    1    3    3  502    0  0.53221431424E+02 -0.69025680232E+01 -0.91776841486E+01  0.54606487659E+02  0.41800000000E+01 0.  1.
         -5    1    3    3    0  502 -0.98503134388E+01 -0.13158677454E+03  0.50796973433E+02  0.14145639900E+03  0.41800000000E+01 0.  1.
        -11    1    1    2    0    0  0.13831645293E+02  0.10570972662E+03 -0.19156175243E+03  0.21922993798E+03  0.00000000000E+00 0.  1.
         11    1    1    2    0    0 -0.57202763279E+02  0.32779615942E+02 -0.11450809325E+03  0.13213161154E+03  0.00000000000E+00 0. -1.
</event>
<event>
 7    1  0.2522928E-009  0.1433650E+03  0.7561462E-02  0.1208872E+00
          2   -1    0    0  501    0  0.00000000000E+00  0.00000000000E+00  0.12528082461E+04  0.12528082461E+04  0.00000000000E+00 0.  1.
         -2   -1    0    0    0  501 -0.00000000000E+00 -0.00000000000E+00 -0.31613883228E+02  0.31613883228E+02  0.00000000000E+00 0. -1.
         25    2    1    2    0    0  0.77745870391E+00  0.12791565373E+03  0.98469407098E+03  0.10008159223E+04  0.12508828113E+03 0.  0.
          5    1    3    3  502    0  0.19189625761E+02 -0.93204632336E+00  0.22629649120E+02  0.29978056416E+02  0.41800000000E+01 0.  1.
         -5    1    3    3    0  502 -0.18412167057E+02  0.12884770005E+03  0.96206442186E+03  0.97083786592E+03  0.41800000000E+01 0.  1.
        -11    1    1    2    0    0  0.23673832923E+02 -0.53199137977E+02  0.17303656445E+03  0.18257122249E+03  0.00000000000E+00 0.  1.
         11    1    1    2    0    0 -0.24451291627E+02 -0.74716515749E+02  0.63463727406E+02  0.10103498446E+03  0.00000000000E+00 0. -1.
</event>
<event>
 7    1  0.2522928E-009  0.1259838E+03  0.7561462E-02  0.1233540E+00
         -2   -1    0    0    0  501 -0.00000000000E+00  0.00000000000E+00  0.36656809315E+02  0.36656809315E+02  0.00000000000E+00 0.  1.
          2   -1    0    0  501    0  0.00000000000E+00 -0.00000000000E+00 -0.63468404187E+03  0.63468404187E+03  0.00000000000E+00 0. -1.
         25    2    1    2    0    0 -0.26754459208E+02 -0.93373838282E+02 -0.41856039847E+03  0.44752069611E+03  0.12508993373E+03 0.  0.
          5    1    3    3  502    0  0.35913635955E+02 -0.74577119315E+02 -0.30826354125E+03  0.31921061892E+03  0.41800000000E+01 0.  1.
         -5    1    3    3    0  502 -0.62668095163E+02 -0.18796718967E+02 -0.11029685722E+03  0.12831007719E+03  0.41800000000E+01 0.  1.
        -11    1    1    2    0    0  0.91074058588E+01  0.82064937137E+02 -0.18461432879E+03  0.20223760566E+03  0.00000000000E+00 0. -1.
         11    1    1    2    0    0  0.17647053349E+02  0.11308901145E+02  0.51474947084E+01  0.21582549404E+02  0.00000000000E+00 0.  1.
</event>
<event>
 7    1  0.2522928E-009  0.1190583E+03  0.7561462E-02  0.1244659E+00
          2   -1    0    0  501    0  0.00000000000E+00  0.00000000000E+00  0.60862649881E+02  0.60862649881E+02  0.00000000000E+00 0. -1.
         -2   -1    0    0    0  501 -0.00000000000E+00 -0.00000000000E+00 -0.30464028151E+03  0.30464028151E+03  0.00000000000E+00 0.  1.
         25    2    1    2    0    0  0.64496534468E+02  0.44996123047E+02 -0.14090402511E+03  0.20417163544E+03  0.12509060067E+03 0.  0.
          5    1    3    3  502    0  0.54066233987E+02 -0.18295272464E+02 -0.12570236336E+03  0.13811745439E+03  0.41800000000E+01 0.  1.
         -5    1    3    3    0  502  0.10430300481E+02  0.63291395512E+02 -0.15201661754E+02  0.66054181049E+02  0.41800000000E+01 0.  1.
        -11    1    1    2    0    0 -0.35009034870E+02 -0.69790164166E+02 -0.40343791859E+02  0.87885841172E+02  0.00000000000E+00 0. -1.
         11    1    1    2    0    0 -0.29487499597E+02  0.24794041119E+02 -0.62529814651E+02  0.73445454779E+02  0.00000000000E+00 0.  1.
</event>
<event>
 7    1  0.2522928E-009  0.9143313E+02  0.7561462E-02  0.1299418E+00
         -2   -1    0    0    0  501 -0.00000000000E+00  0.00000000000E+00  0.18459423192E+02  0.18459423192E+02  0.00000000000E+00 0.  1.
          2   -1    0    0  501    0  0.00000000000E+00 -0.00000000000E+00 -0.81470932123E+03  0.81470932123E+03  0.00000000000E+00 0. -1.
         25    2    1    2    0    0 -0.32522716932E+02  0.40093388215E+02 -0.55604865403E+03  0.57227857960E+03  0.12508980827E+03 0.  0.
          5    1    3    3  502    0 -0.13970669498E+02  0.56779961724E+02 -0.53803879320E+03  0.54122302155E+03  0.41800000000E+01 0.  1.
         -5    1    3    3    0  502 -0.18552047433E+02 -0.16686573509E+02 -0.18009860822E+02  0.31055558058E+02  0.41800000000E+01 0.  1.
        -11    1    1    2    0    0 -0.27678691236E+02 -0.21055092912E+01 -0.98163539181E+02  0.10201285969E+03  0.00000000000E+00 0.  1.
         11    1    1    2    0    0  0.60201408168E+02 -0.37987878924E+02 -0.14203770483E+03  0.15887730512E+03  0.00000000000E+00 0. -1.
</event>
<event>
 7    1  0.2522928E-009  0.1047569E+03  0.7561462E-02  0.1270599E+00
         -2   -1    0    0    0  501 -0.00000000000E+00  0.00000000000E+00  0.18180861888E+03  0.18180861888E+03  0.00000000000E+00 0.  1.
          2   -1    0    0  501    0  0.00000000000E+00 -0.00000000000E+00 -0.10077926911E+03  0.10077926911E+03  0.00000000000E+00 0. -1.
         25    2    1    2    0    0 -0.20524096798E+02 -0.72767778086E+02  0.22826349185E+02  0.14790650978E+03  0.12505560899E+03 0.  0.
          5    1    3    3  502    0  0.22276518724E+02 -0.45911025829E+01  0.56117503748E+02  0.60695701136E+02  0.41800000000E+01 0. -1.
         -5    1    3    3    0  502 -0.42800615523E+02 -0.68176675503E+02 -0.33291154563E+02  0.87210808641E+02  0.41800000000E+01 0. -1.
        -11    1    1    2    0    0  0.48609045681E+02  0.43740389912E+02  0.19380760737E+01  0.65420311605E+02  0.00000000000E+00 0.  1.
         11    1    1    2    0    0 -0.28084948882E+02  0.29027388174E+02  0.56264924507E+02  0.69261066608E+02  0.00000000000E+00 0. -1.
</event>
<event>
 7    1  0.2522928E-009  0.1444013E+03  0.7561462E-02  0.1207526E+00
          2   -1    0    0  501    0  0.00000000000E+00  0.00000000000E+00  0.95914412332E+02  0.95914412332E+02  0.00000000000E+00 0.  1.
         -2   -1    0    0    0  501 -0.00000000000E+00 -0.00000000000E+00 -0.39666442690E+03  0.39666442690E+03  0.00000000000E+00 0. -1.
         25    2    1    2    0    0  0.22630238814E+02 -0.11482144969E+03 -0.29357878138E+03  0.33990057700E+03  0.12509120014E+03 0.  0.
          5    1    3    3  502    0 -0.25762647853E+02  0.59507145101E+01 -0.11990678279E+03  0.12285859346E+03  0.41800000000E+01 0. -1.
         -5    1    3    3    0  502  0.48392886667E+02 -0.12077216420E+03 -0.17367199858E+03  0.21704198354E+03  0.41800000000E+01 0. -1.
        -11    1    1    2    0    0 -0.39472956781E+02  0.44212450657E+02  0.34896492730E+02  0.68779505051E+02  0.00000000000E+00 0.  1.
         11    1    1    2    0    0  0.16842717968E+02  0.70608999032E+02 -0.42067725924E+02  0.83898757186E+02  0.00000000000E+00 0. -1.
</event>
<event>
 7    1  0.2522928E-009  0.9577550E+02  0.7561462E-02  0.1289439E+00
         -2   -1    0    0    0  501 -0.00000000000E+00  0.00000000000E+00  0.48374739691E+03  0.48374739691E+03  0.00000000000E+00 0.  1.
          2   -1    0    0  501    0  0.00000000000E+00 -0.00000000000E+00 -0.30781917812E+02  0.30781917812E+02  0.00000000000E+00 0. -1.
         25    2    1    2    0    0 -0.24836071515E+02  0.42124249404E+02  0.26724834458E+03  0.29909660862E+03  0.12508325536E+03 0.  0.
          5    1    3    3  502    0  0.19480476423E+02 -0.22607397641E+01 -0.41813057323E+01  0.20483056988E+02  0.41800000000E+01 0.  1.
         -5    1    3    3    0  502 -0.44316547937E+02  0.44384989168E+02  0.27142965031E+03  0.27861355163E+03  0.41800000000E+01 0.  1.
        -11    1    1    2    0    0  0.23560497748E+02 -0.73527226352E+02  0.12187109622E+03  0.14427028163E+03  0.00000000000E+00 0.  1.
         11    1    1    2    0    0  0.12755737662E+01  0.31402976948E+02  0.63846038300E+02  0.71162424469E+02  0.00000000000E+00 0. -1.
</event>
<event>
 7    1  0.2522928E-009  0.1106074E+03  0.7561462E-02  0.1259449E+00
         -2   -1    0    0    0  501 -0.00000000000E+00  0.00000000000E+00  0.42547064461E+02  0.42547064461E+02  0.00000000000E+00 0.  1.
          2   -1    0    0  501    0  0.00000000000E+00 -0.00000000000E+00 -0.35637364258E+03  0.35637364258E+03  0.00000000000E+00 0. -1.
         25    2    1    2    0    0  0.39093685947E+02 -0.42593274142E+02 -0.18166331579E+03  0.22801576601E+03  0.12508847253E+03 0.  0.
          5    1    3    3  502    0 -0.10111706049E+02  0.29998653233E+02 -0.11043730040E+03  0.11496101737E+03  0.41800000000E+01 0.  1.
         -5    1    3    3    0  502  0.49205391997E+02 -0.72591927375E+02 -0.71226015395E+02  0.11305474864E+03  0.41800000000E+01 0.  1.
        -11    1    1    2    0    0 -0.22007005460E+02 -0.24101835361E+02 -0.17175004517E+02  0.36880720401E+02  0.00000000000E+00 0. -1.
         11    1    1    2    0    0 -0.17086680488E+02  0.66695109503E+02 -0.11498825781E+03  0.13402422063E+03  0.00000000000E+00 0.  1.
</event>
<event>
 7    1  0.2522928E-009  0.2668538E+03  0.7561462E-02  0.1103094E+00
         -2   -1    0    0    0  501 -0.00000000000E+00  0.00000000000E+00  0.11557998342E+03  0.11557998342E+03  0.00000000000E+00 0.  1.
          2   -1    0    0  501    0  0.00000000000E+00 -0.00000000000E+00 -0.72499544247E+03  0.72499544247E+03  0.00000000000E+00 0. -1.
         25    2    1    2    0    0 -0.24055847589E+02  0.25963443303E+03 -0.23086279803E+03  0.37004498269E+03  0.12508770957E+03 0.  0.
          5    1    3    3  502    0  0.86349295628E+01  0.19691681914E+03 -0.99597616192E+02  0.22087995205E+03  0.41800000000E+01 0. -1.
         -5    1    3    3    0  502 -0.32690777152E+02  0.62717613892E+02 -0.13126518184E+03  0.14916503064E+03  0.41800000000E+01 0. -1.
        -11    1    1    2    0    0 -0.14709533811E+02 -0.38760977729E+02 -0.12669802403E+03  0.13330856338E+03  0.00000000000E+00 0. -1.
         11    1    1    2    0    0  0.38765381400E+02 -0.22087345530E+03 -0.25185463699E+03  0.33722187981E+03  0.00000000000E+00 0.  1.
</event>
<event>
 6    1  0.2522928E-009  0.1236381E+03  0.7561462E-02  0.1237213E+00
          1   -1    0    0  501    0  0.00000000000E+00  0.00000000000E+00  0.31339961023E+03  0.31339961023E+03  0.00000000000E+00 0. -1.
         -1   -1    0    0    0  501 -0.00000000000E+00 -0.00000000000E+00 -0.52413081870E+02  0.52413081870E+02  0.00000000000E+00 0.  1.
          5    1    1    2  502    0 -0.68955142949E+02 -0.48377171112E+02  0.58434764183E+02  0.10260241951E+03  0.41800000000E+01 0.  1.
         -5    1    1    2    0  502  0.58859050924E+01  0.54303299045E+02  0.55042031631E+02  0.77656872278E+02  0.41800000000E+01 0.  1.
        -11    1    1    2    0    0  0.79858104701E+02 -0.24101571574E+02  0.88757087200E+02  0.12180321493E+03  0.00000000000E+00 0. -1.
         11    1    1    2    0    0 -0.16788866844E+02  0.18175443640E+02  0.58752645346E+02  0.63750185385E+02  0.00000000000E+00 0.  1.
</event>
<event>
 7    1  0.2522928E-009  0.8067185E+02  0.7561462E-02  0.1327156E+00
         -4   -1    0    0    0  501 -0.00000000000E+00  0.00000000000E+00  0.78993570289E+02  0.78993570289E+02  0.00000000000E+00 0.  1.
          4   -1    0    0  501    0  0.00000000000E+00 -0.00000000000E+00 -0.17800305976E+03  0.17800305976E+03  0.00000000000E+00 0. -1.
         25    2    1    2    0    0 -0.26879085206E+02  0.17447297464E+02 -0.12955037951E+02  0.12977847495E+03  0.12509087154E+03 0.  0.
          5    1    3    3  502    0 -0.15447712386E+01 -0.36129194082E+02 -0.48426747536E+02  0.60583225897E+02  0.41800000000E+01 0.  1.
         -5    1    3    3    0  502 -0.25334313967E+02  0.53576491546E+02  0.35471709585E+02  0.69195249053E+02  0.41800000000E+01 0.  1.
        -11    1    1    2    0    0  0.44887619708E+02 -0.96940353090E+01 -0.78440215942E+01  0.46587566994E+02  0.00000000000E+00 0.  1.
         11    1    1    2    0    0 -0.18008534502E+02 -0.77532621550E+01 -0.78210429925E+02  0.80630588104E+02  0.00000000000E+00 0. -1.
</event>
<event>
 7    1  0.2522928E-009  0.1289852E+03  0.7561462E-02  0.1228969E+00
          1   -1    0    0  501    0  0.00000000000E+00  0.00000000000E+00  0.55187981652E+03  0.55187981652E+03  0.00000000000E+00 0. -1.
         -1   -1    0    0    0  501 -0.00000000000E+00 -0.00000000000E+00 -0.49676245530E+02  0.49676245530E+02  0.00000000000E+00 0.  1.
         25    2    1    2    0    0 -0.97111846381E+02  0.43675011709E+02  0.39097944052E+03  0.42408553448E+03  0.12508157452E+03 0.  0.
          5    1    3    3  502    0 -0.10225980416E+03  0.33668967399E+02  0.39649667632E+03  0.41087437696E+03  0.41800000000E+01 0. -1.
         -5    1    3    3    0  502  0.51479577815E+01  0.10006044310E+02 -0.55172357932E+01  0.13211157514E+02  0.41800000000E+01 0. -1.
        -11    1    1    2    0    0  0.23918127070E+02  0.27282849497E+02  0.26778891102E+02  0.45094785595E+02  0.00000000000E+00 0. -1.
         11    1    1    2    0    0  0.73193719311E+02 -0.70957861206E+02  0.84445239362E+02  0.13237574198E+03  0.00000000000E+00 0.  1.
</event>
<event>
 7    1  0.2522928E-009  0.1029141E+03  0.7561462E-02  0.1274285E+00
          1   -1    0    0  501    0  0.00000000000E+00  0.00000000000E+00  0.13381999647E+03  0.13381999647E+03  0.00000000000E+00 0. -1.
         -1   -1    0    0    0  501 -0.00000000000E+00 -0.00000000000E+00 -0.12100726487E+03  0.12100726487E+03  0.00000000000E+00 0.  1.
         25    2    1    2    0    0  0.44436327535E+02 -0.41253282318E+00  0.56605647155E+02  0.14431408932E+03  0.12509036613E+03 0.  0.
          5    1    3    3  502    0 -0.38220897951E+02 -0.25163131452E+02  0.14286987141E+02  0.48120792037E+02  0.41800000000E+01 0. -1.
         -5    1    3    3    0  502  0.82657225487E+02  0.24750598629E+02  0.42318660014E+02  0.96193297287E+02  0.41800000000E+01 0. -1.
        -11    1    1    2    0    0  0.11541746237E+02  0.11648419436E+02  0.19364071194E+02  0.25374491813E+02  0.00000000000E+00 0. -1.
         11    1    1    2    0    0 -0.55978073772E+02 -0.11235886613E+02 -0.63156986755E+02  0.85138680206E+02  0.00000000000E+00 0.  1.
</event>
<event>
 7    1  0.2522928E-009  0.1463183E+03  0.7561462E-02  0.1205071E+00
          2   -1    0    0  501    0  0.00000000000E+00  0.00000000000E+00  0.12949910456E+03  0.12949910456E+03  0.00000000000E+00 0.  1.
         -2   -1    0    0    0  501 -0.00000000000E+00 -0.00000000000E+00 -0.21072502687E+03  0.21072502687E+03  0.00000000000E+00 0. -1.
         25    2    1    2    0    0 -0.50509437725E+02  0.38525756816E+02 -0.90946611174E+02  0.16720065352E+03  0.12509730299E+03 0.  0.
          5    1    3    3  502    0  0.11954934221E+02  0.68066477471E+02 -0.31967143615E+02  0.76258353499E+02  0.41800000000E+01 0.  1.
         -5    1    3    3    0  502 -0.62464371946E+02 -0.29540720655E+02 -0.58979467560E+02  0.90942300021E+02  0.41800000000E+01 0.  1.
        -11    1    1    2    0    0 -0.49347535654E+02 -0.10333952351E+02  0.40636201197E+02  0.64755468449E+02  0.00000000000E+00 0. -1.
         11    1    1    2    0    0  0.99856973379E+02 -0.28191804465E+02 -0.30915512330E+02  0.10826800947E+03  0.00000000000E+00 0.  1.
</event>
<event>
 7    1  0.2522928E-009  0.9068157E+02  0.7561462E-02  0.1301210E+00
         -3   -1    0    0    0  501 -0.00000000000E+00  0.00000000000E+00  0.82598493828E+02  0.82598493828E+02  0.00000000000E+00 0.  1.
          3   -1    0    0  501    0  0.00000000000E+00 -0.00000000000E+00 -0.16304590192E+03  0.16304590192E+03  0.00000000000E+00 0. -1.
         25    2    1    2    0    0  0.14834886198E+02 -0.35529771419E+02 -0.33665575823E+02  0.13514104292E+03  0.12508913614E+03 0.  0.
          5    1    3    3  502    0 -0.40390791864E+02  0.23387001337E+02 -0.26816207899E+02  0.53990270466E+02  0.41800000000E+01 0. -1.
         -5    1    3    3    0  502  0.55225678062E+02 -0.58916772756E+02 -0.68493679245E+01  0.81150772457E+02  0.41800000000E+01 0. -1.
        -11    1    1    2    0    0  0.70957736625E+01  0.30268637555E+02 -0.70940469776E+02  0.77453797036E+02  0.00000000000E+00 0. -1.
         11    1    1    2    0    0 -0.21930659860E+02  0.52611338647E+01  0.24158637509E+02  0.33049555787E+02  0.00000000000E+00 0.  1.
</event>
<event>
 7    1  0.2522928E-009  0.1030575E+03  0.7561462E-02  0.1273995E+00
         -2   -1    0    0    0  501 -0.00000000000E+00  0.00000000000E+00  0.61199597087E+02  0.61199597087E+02  0.00000000000E+00 0.  1.
          2   -1    0    0  501    0  0.00000000000E+00 -0.00000000000E+00 -0.24876850868E+03  0.24876850868E+03  0.00000000000E+00 0. -1.
         25    2    1    2    0    0  0.69555768269E+01  0.15146094326E+02 -0.17879985862E+03  0.21884952645E+03  0.12509173258E+03 0.  0.
          5    1    3    3  502    0 -0.19949987754E+01 -0.54919983107E+02 -0.70579800399E+02  0.89549791675E+02  0.41800000000E+01 0. -1.
         -5    1    3    3    0  502  0.89505756023E+01  0.70066077433E+02 -0.10822005822E+03  0.12929973477E+03  0.41800000000E+01 0. -1.
        -11    1    1    2    0    0 -0.18991127450E+02 -0.44571793859E+02  0.15777383003E+02  0.50953248612E+02  0.00000000000E+00 0.  1.
         11    1    1    2    0    0  0.12035550624E+02  0.29425699533E+02 -0.24546435973E+02  0.40165330707E+02  0.00000000000E+00 0. -1.
</event>
<event>
 7    1  0.2522928E-009  0.1381078E+03  0.7561462E-02  0.1215898E+00
          1   -1    0    0  501    0  0.00000000000E+00  0.00000000000E+00  0.11557322965E+04  0.11557322965E+04  0.00000000000E+00 0. -1.
         -1   -1    0    0    0  501 -0.00000000000E+00 -0.00000000000E+00 -0.21384395901E+02  0.21384395901E+02  0.00000000000E+00 0.  1.
         25    2    1    2    0    0 -0.43365741800E+02 -0.10155478406E+03  0.67994758168E+03  0.70012081169E+03  0.12508587210E+03 0.  0.
          5    1    3    3  502    0 -0.71171123958E+02 -0.29267030070E+02  0.47055357560E+03  0.47682284744E+03  0.41800000000E+01 0. -1.
         -5    1    3    3    0  502  0.27805382158E+02 -0.72287753986E+02  0.20939400608E+03  0.22329796425E+03  0.41800000000E+01 0. -1.
        -11    1    1    2    0    0  0.38500823980E+02  0.27364132304E+02  0.63799774441E+02  0.79382116390E+02  0.00000000000E+00 0.  1.
         11    1    1    2    0    0  0.48649178193E+01  0.74190651752E+02  0.39060054447E+03  0.39761376432E+03  0.00000000000E+00 0. -1.
</event>
<event>
 7    1  0.2522928E-009  0.1932884E+03  0.7561462E-02  0.1155528E+00
         -2   -1    0    0    0  501 -0.00000000000E+00  0.00000000000E+00  0.44779303581E+02  0.44779303581E+02  0.00000000000E+00 0.  1.
          2   -1    0    0  501    0  0.00000000000E+00 -0.00000000000E+00 -0.98325433616E+03  0.98325433616E+03  0.00000000000E+00 0. -1.
         25    2    1    2    0    0  0.17695407651E+03  0.30166824793E+02 -0.49212389059E+03  0.53857040121E+03  0.12509744542E+03 0.  0.
          5    1    3    3  502    0  0.16919559824E+03  0.53784948212E+02 -0.47743707426E+03  0.50939533115E+03  0.41800000000E+01 0. -1.
         -5    1    3    3    0  502  0.77584782783E+01 -0.23618123419E+02 -0.14686816337E+02  0.29175070063E+02  0.41800000000E+01 0. -1.
        -11    1    1    2    0    0 -0.13978185440E+03 -0.69523913143E+01 -0.23418880675E+03  0.27282173626E+03  0.00000000000E+00 0.  1.
         11    1    1    2    0    0 -0.37172222114E+02 -0.23214433479E+02 -0.21216233523E+03  0.21664150228E+03  0.00000000000E+00 0. -1.
</event>
<event>
 7    1  0.2522928E-009  0.1378268E+03  0.7561462E-02  0.1216283E+00
         -1   -1    0    0    0  501 -0.00000000000E+00  0.00000000000E+00  0.19840111320E+03  0.19840111320E+03  0.00000000000E+00 0. -1.
          1   -1    0    0  501    0  0.00000000000E+00 -0.00000000000E+00 -0.13834297604E+03  0.13834297604E+03  0.00000000000E+00 0.  1.
         25    2    1    2    0    0  0.10674424843E+03 -0.60929930630E+02  0.12133139051E+02  0.17578835001E+03  0.12509012717E+03 0.  0.
          5    1    3    3  502    0  0.25729859621E+02  0.64264326782E+00  0.58378735967E+02  0.63937374669E+02  0.41800000000E+01 0. -1.
         -5    1    3    3    0  502  0.81014388806E+02 -0.61572573898E+02 -0.46245596916E+02  0.11185097534E+03  0.41800000000E+01 0. -1.
        -11    1    1    2    0    0 -0.11052886979E+03  0.74733165293E+02  0.27846079719E+02  0.13629776670E+03  0.00000000000E+00 0.  1.
         11    1    1    2    0    0  0.37846213627E+01 -0.13803234663E+02  0.20078918388E+02  0.24657972537E+02  0.00000000000E+00 0. -1.
</event>
<event>
 7    1  0.2522928E-009  0.1173389E+03  0.7561462E-02  0.1247553E+00
         -2   -1    0    0    0  501 -0.00000000000E+00  0.00000000000E+00  0.45739200407E+02  0.45739200407E+02  0.00000000000E+00 0.  1.
          2   -1    0    0  501    0  0.00000000000E+00 -0.00000000000E+00 -0.31626754718E+03  0.31626754718E+03  0.00000000000E+00 0. -1.
         25    2    1    2    0    0  0.46284432316E+02  0.16915176117E+02 -0.17624439163E+03  0.22166966542E+03  0.12508790162E+03 0.  0.
          5    1    3    3  502    0  0.24342504210E+02 -0.53635341876E+02 -0.62604251679E+02  0.86058539016E+02  0.41800000000E+01 0.  1.
         -5    1    3    3    0  502  0.21941928106E+02  0.70550517993E+02 -0.11364013995E+03  0.13561112641E+03  0.41800000000E+01 0.  1.
        -11    1    1    2    0    0 -0.58578714971E+02  0.20641533897E+02 -0.71549675022E+02  0.94746476267E+02  0.00000000000E+00 0.  1.
         11    1    1    2    0    0  0.12294282654E+02 -0.37556710014E+02 -0.22734280121E+02  0.45590605893E+02  0.00000000000E+00 0. -1.
</event>
<event>
 7    1  0.2522928E-009  0.1593417E+03  0.7561462E-02  0.1189442E+00
          1   -1    0    0  501    0  0.00000000000E+00  0.00000000000E+00  0.31867403274E+02  0.31867403274E+02  0.00000000000E+00 0. -1.
         -1   -1    0    0    0  501 -0.00000000000E+00 -0.00000000000E+00 -0.13228353186E+04  0.13228353186E+04  0.00000000000E+00 0.  1.
         25    2    1    2    0    0  0.12518481107E+03 -0.41387224127E+02 -0.10454581209E+04  0.10611382940E+04  0.12509059614E+03 0.  0.
          5    1    3    3  502    0  0.35916487163E+02 -0.70639056426E+02 -0.32392447043E+03  0.33350323129E+03  0.41800000000E+01 0. -1.
         -5    1    3    3    0  502  0.89268323908E+02  0.29251832300E+02 -0.72153365048E+03  0.72763506274E+03  0.41800000000E+01 0. -1.
        -11    1    1    2    0    0 -0.10572390799E+03  0.72140542583E+01 -0.11116206665E+03  0.15357927061E+03  0.00000000000E+00 0. -1.
         11    1    1    2    0    0 -0.19460903078E+02  0.34173169868E+02 -0.13434772774E+03  0.13998515720E+03  0.00000000000E+00 0.  1.
</event>
<event>
 7    1  0.2522928E-009  0.1222935E+03  0.7561462E-02  0.1239361E+00
          2   -1    0    0  501    0  0.00000000000E+00  0.00000000000E+00  0.16640061009E+04  0.16640061009E+04  0.00000000000E+00 0.  1.
         -2   -1    0    0    0  501 -0.00000000000E+00 -0.00000000000E+00 -0.15178432044E+02  0.15178432044E+02  0.00000000000E+00 0. -1.
         25    2    1    2    0    0  0.73322145349E+02  0.17487536954E+01  0.13602733517E+04  0.13679804949E+04  0.12509135784E+03 0.  0.
          5    1    3    3  502    0  0.13904414928E+02  0.57432477038E+02  0.74061966408E+03  0.74298504790E+03  0.41800000000E+01 0.  1.
         -5    1    3    3    0  502  0.59417730422E+02 -0.55683723343E+02  0.61965368764E+03  0.62499544698E+03  0.41800000000E+01 0.  1.
        -11    1    1    2    0    0 -0.15920593130E+02  0.33048641501E+02  0.17900449813E+03  0.18272462435E+03  0.00000000000E+00 0.  1.
         11    1    1    2    0    0 -0.57401552219E+02 -0.34797395196E+02  0.10954981904E+03  0.12847941377E+03  0.00000000000E+00 0. -1.
</event>
<event>
 7    1  0.2522928E-009  0.8768450E+02  0.7561462E-02  0.1308558E+00
         -1   -1    0    0    0  501 -0.00000000000E+00  0.00000000000E+00  0.66793950745E+02  0.66793950745E+02  0.00000000000E+00 0.  1.
          1   -1    0    0  501    0  0.00000000000E+00 -0.00000000000E+00 -0.21692285675E+03  0.21692285675E+03  0.00000000000E+00 0. -1.
         25    2    1    2    0    0 -0.37082213661E+02 -0.39045022657E+02 -0.89931473320E+02  0.16319922636E+03  0.12508682276E+03 0.  0.
          5    1    3    3  502    0 -0.16509243076E+02  0.12319212447E+02 -0.10387920611E+03  0.10598433830E+03  0.41800000000E+01 0.  1.
         -5    1    3    3    0  502 -0.20572970585E+02 -0.51364235104E+02  0.13947732789E+02  0.57214888067E+02  0.41800000000E+01 0.  1.
        -11    1    1    2    0    0 -0.26692090590E+02  0.15585490994E+02 -0.38103441063E+02  0.49063708079E+02  0.00000000000E+00 0. -1.
         11    1    1    2    0    0  0.63774304251E+02  0.23459531663E+02 -0.22093991624E+02  0.71453873054E+02  0.00000000000E+00 0.  1.
</event>
<event>
 7    1  0.2522928E-009  0.9176863E+02  0.7561462E-02  0.1298624E+00
         -2   -1    0    0    0  501 -0.00000000000E+00  0.00000000000E+00  0.60603009737E+02  0.60603009737E+02  0.00000000000E+00 0.  1.
          2   -1    0    0  501    0  0.00000000000E+00 -0.00000000000E+00 -0.21104293056E+03  0.21104293056E+03  0.00000000000E+00 0. -1.
         25    2    1    2    0    0  0.11464042854E+02 -0.57273357269E+00 -0.12199637256E+03  0.17510957981E+03  0.12509395557E+03 0.  0.
          5    1    3    3  502    0  0.20958829028E+02 -0.59591183867E+02 -0.45623853616E+02  0.78034544451E+02  0.41800000000E+01 0. -1.
         -5    1    3    3    0  502 -0.94947861734E+01  0.59018450295E+02 -0.76372518946E+02  0.97075035358E+02  0.41800000000E+01 0. -1.
        -11    1    1    2    0    0 -0.32535281311E+02  0.13893580127E+02 -0.51566014511E+02  0.62535029793E+02  0.00000000000E+00 0. -1.
         11    1    1    2    0    0  0.21071238457E+02 -0.13320846555E+02  0.23122466254E+02  0.34001330690E+02  0.00000000000E+00 0.  1.
</event>
<event>
 7    1  0.2522928E-009  0.1082242E+03  0.7561462E-02  0.1263894E+00
          4   -1    0    0  501    0  0.00000000000E+00  0.00000000000E+00  0.10385448815E+03  0.10385448815E+03  0.00000000000E+00 0. -1.
         -4   -1    0    0    0  501 -0.00000000000E+00 -0.00000000000E+00 -0.16011578071E+03  0.16011578071E+03  0.00000000000E+00 0.  1.
         25    2    1    2    0    0  0.33559024785E+02 -0.53269724191E+02 -0.17451524813E+01  0.14005201817E+03  0.12509056949E+03 0.  0.
          5    1    3    3  502    0  0.28595431761E+02  0.35927869628E+02  0.16132816418E+02  0.48849265083E+02  0.41800000000E+01 0.  1.
         -5    1    3    3    0  502  0.49635930234E+01 -0.89197593819E+02 -0.17877968899E+02  0.91202753088E+02  0.41800000000E+01 0.  1.
        -11    1    1    2    0    0  0.13237442417E+02  0.65070441510E+01  0.19626445629E+02  0.24551351762E+02  0.00000000000E+00 0. -1.
         11    1    1    2    0    0 -0.46796467201E+02  0.46762680040E+02 -0.74142585702E+02  0.99366898924E+02  0.00000000000E+00 0.  1.
</event>
<event>
 7    1  0.2522928E-009  0.6118401E+02  0.7561462E-02  0.1392929E+00
         -1   -1    0    0    0  501 -0.00000000000E+00  0.00000000000E+00  0.17351432374E+03  0.17351432374E+03  0.00000000000E+00 0.  1.
          1   -1    0    0  501    0  0.00000000000E+00 -0.00000000000E+00 -0.80488523595E+02  0.80488523595E+02  0.00000000000E+00 0. -1.
         25    2    1    2    0    0  0.42753785484E+01  0.34629438921E+01  0.81588688083E+02  0.14944844296E+03  0.12509137555E+03 0.  0.
          5    1    3    3  502    0  0.34457552321E+02 -0.68335750020E+01  0.10425991045E+03  0.11009823789E+03  0.41800000000E+01 0. -1.
         -5    1    3    3    0  502 -0.30182173772E+02  0.10296518894E+02 -0.22671222371E+02  0.39350205066E+02  0.41800000000E+01 0. -1.
        -11    1    1    2    0    0  0.24761219347E+02  0.33958060359E+01 -0.38783905494E+02  0.46139362886E+02  0.00000000000E+00 0. -1.
         11    1    1    2    0    0 -0.29036597896E+02 -0.68587499280E+01  0.50221017555E+02  0.58415041489E+02  0.00000000000E+00 0.  1.
</event>
<event>
 7    1  0.2723177E-009  0.1033520E+03  0.7561462E-02  0.1273401E+00
         -1   -1    0    0    0  501 -0.00000000000E+00  0.00000000000E+00  0.26916935688E+02  0.26916935688E+02  0.00000000000E+00 0.  1.
          1   -1    0    0  501    0  0.00000000000E+00 -0.00000000000E+00 -0.67879051829E+03  0.67879051829E+03  0.00000000000E+00 0. -1.
         25    2    1    2    0    0  0.59437418717E+02 -0.12257623313E+02 -0.49511952786E+03  0.51426218320E+03  0.12505674764E+03 0.  0.
          5    1    3    3  502    0  0.11509853436E+02  0.47551336699E+02 -0.96000618376E+02  0.10782948334E+03  0.41800000000E+01 0.  1.
         -5    1    3    3    0  502  0.47927565281E+02 -0.59808960012E+02 -0.39911890948E+03  0.40643269986E+03  0.41800000000E+01 0.  1.
        -11    1    1    2    0    0 -0.25673468631E+02 -0.21211832368E+02 -0.66075753016E+01  0.33951861147E+02  0.00000000000E+00 0.  1.
         11    1    1    2    0    0 -0.33763950086E+02  0.33469455680E+02 -0.15014647944E+03  0.15749340963E+03  0.00000000000E+00 0. -1.
</event>
<event>
 7    1  0.2522928E-009  0.1563145E+03  0.7561462E-02  0.1192922E+00
          4   -1    0    0  501    0  0.00000000000E+00  0.00000000000E+00  0.30290347427E+03  0.30290347427E+03  0.00000000000E+00 0. -1.
         -4   -1    0    0    0  501 -0.00000000000E+00 -0.00000000000E+00 -0.11579171768E+03  0.11579171768E+03  0.00000000000E+00 0.  1.
         25    2    1    2    0    0 -0.95661666309E+02  0.11257576103E+03  0.58638677328E+02  0.20226439219E+03  0.12509170036E+03 0.  0.
          5    1    3    3  502    0 -0.11664277999E+02  0.47108853957E+02 -0.35331271559E+02  0.60175332590E+02  0.41800000000E+01 0. -1.
         -5    1    3    3    0  502 -0.83997388310E+02  0.65466907069E+02  0.93969948887E+02  0.14208905960E+03  0.41800000000E+01 0. -1.
        -11    1    1    2    0    0  0.52262407703E+02 -0.21615197162E+02  0.46071047237E+01  0.56743294063E+02  0.00000000000E+00 0.  1.
         11    1    1    2    0    0  0.43399258607E+02 -0.90960563864E+02  0.12386597454E+03  0.15968750569E+03  0.00000000000E+00 0. -1.
</event>
<event>
 7    1  0.2522928E-009  0.1191016E+03  0.7561462E-02  0.1244587E+00
          2   -1    0    0  501    0  0.00000000000E+00  0.00000000000E+00  0.17617671007E+03  0.17617671007E+03  0.00000000000E+00 0.  1.
         -2   -1    0    0    0  501 -0.00000000000E+00 -0.00000000000E+00 -0.11785368211E+03  0.11785368211E+03  0.00000000000E+00 0. -1.
         25    2    1    2    0    0 -0.11775468030E+02 -0.84421457267E+02  0.73523977593E+02  0.16828301863E+03  0.12509098682E+03 0.  0.
          5    1    3    3  502    0 -0.48960968807E+02 -0.62435930940E+02 -0.38730172381E+01  0.79548064724E+02  0.41800000000E+01 0. -1.
         -5    1    3    3    0  502  0.37185500777E+02 -0.21985526327E+02  0.77396994831E+02  0.88734953906E+02  0.41800000000E+01 0. -1.
        -11    1    1    2    0    0 -0.29607521541E+02  0.60980779265E+02 -0.32450620949E+02  0.75155196570E+02  0.00000000000E+00 0. -1.
         11    1    1    2    0    0  0.41382989570E+02  0.23440678002E+02  0.17249671320E+02  0.50592176981E+02  0.00000000000E+00 0.  1.
</event>
<event>
 7    1  0.2522928E-009  0.1025062E+03  0.7561462E-02  0.1275112E+00
         -2   -1    0    0    0  501 -0.00000000000E+00  0.00000000000E+00  0.42468877972E+02  0.42468877972E+02  0.00000000000E+00 0.  1.
          2   -1    0    0  501    0  0.00000000000E+00 -0.00000000000E+00 -0.42340747351E+03  0.42340747351E+03  0.00000000000E+00 0. -1.
         25    2    1    2    0    0 -0.59365649474E+01 -0.52485576983E+02 -0.10647985368E+03  0.17255588110E+03  0.12509034442E+03 0.  0.
          5    1    3    3  502    0  0.41379710908E+02 -0.28743771909E+02  0.32405847395E+01  0.50660227870E+02  0.41800000000E+01 0.  1.
         -5    1    3    3    0  502 -0.47316275855E+02 -0.23741805074E+02 -0.10972043842E+03  0.12189565323E+03  0.41800000000E+01 0.  1.
        -11    1    1    2    0    0 -0.18726793627E+02 -0.18427495893E+02 -0.99965618627E+02  0.10336048719E+03  0.00000000000E+00 0. -1.
         11    1    1    2    0    0  0.24663358575E+02  0.70913072875E+02 -0.17449312323E+03  0.18995998319E+03  0.00000000000E+00 0.  1.
</event>
<event>
 7    1  0.2522928E-009  0.1183020E+03  0.7561462E-02  0.1245925E+00
         -2   -1    0    0    0  501 -0.00000000000E+00  0.00000000000E+00  0.24595911477E+02  0.24595911477E+02  0.00000000000E+00 0.  1.
          2   -1    0    0  501    0  0.00000000000E+00 -0.00000000000E+00 -0.67510961292E+03  0.67510961292E+03  0.00000000000E+00 0. -1.
         25    2    1    2    0    0  0.19715308698E+02 -0.63525102006E+02 -0.42807734046E+03  0.45091240891E+03  0.12509060362E+03 0.  0.
          5    1    3    3  502    0 -0.18947441032E+01  0.31262679806E+02 -0.20657392132E+03  0.20897655986E+03  0.41800000000E+01 0.  1.
         -5    1    3    3    0  502  0.21610052802E+02 -0.94787781812E+02 -0.22150341914E+03  0.24193584905E+03  0.41800000000E+01 0.  1.
        -11    1    1    2    0    0  0.12540867242E+02 -0.16899498850E+02 -0.73809046574E+02  0.76750516407E+02  0.00000000000E+00 0. -1.
         11    1    1    2    0    0 -0.32256175940E+02  0.80424600856E+02 -0.14862731441E+03  0.17204259908E+03  0.00000000000E+00 0.  1.
</event>
<event>
 7    1  0.2522928E-009  0.1824087E+03  0.7561462E-02  0.1165492E+00
          2   -1    0    0  501    0  0.00000000000E+00  0.00000000000E+00  0.13838728140E+03  0.13838728140E+03  0.00000000000E+00 0. -1.
         -2   -1    0    0    0  501 -0.00000000000E+00 -0.00000000000E+00 -0.28815783222E+03  0.28815783222E+03  0.00000000000E+00 0.  1.
         25    2    1    2    0    0 -0.91202483571E+02 -0.13958420941E+03 -0.90986129917E+02  0.22743605930E+03  0.12508813175E+03 0.  0.
          5    1    3    3  502    0 -0.10489425434E+03 -0.75171181286E+02 -0.20237815610E+02  0.13069258843E+03  0.41800000000E+01 0. -1.
         -5    1    3    3    0  502  0.13691770767E+02 -0.64413028123E+02 -0.70748314307E+02  0.96743470870E+02  0.41800000000E+01 0. -1.
        -11    1    1    2    0    0  0.31204754666E+02  0.76686151658E+02 -0.73784941237E+02  0.11089959478E+03  0.00000000000E+00 0.  1.
         11    1    1    2    0    0  0.59997728906E+02  0.62898057751E+02  0.15000520330E+02  0.88209459543E+02  0.00000000000E+00 0. -1.
</event>
<event>
 7    1  0.2522928E-009  0.1104522E+03  0.7561462E-02  0.1259735E+00
         -1   -1    0    0    0  501 -0.00000000000E+00  0.00000000000E+00  0.25160612521E+03  0.25160612521E+03  0.00000000000E+00 0.  1.
          1   -1    0    0  501    0  0.00000000000E+00 -0.00000000000E+00 -0.85888131242E+02  0.85888131242E+02  0.00000000000E+00 0. -1.
         25    2    1    2    0    0  0.49580429348E+02  0.71475146760E+02  0.14441734350E+03  0.20992976018E+03  0.12508884653E+03 0.  0.
          5    1    3    3  502    0  0.47437610491E+02  0.18747369670E+02 -0.49901654375E+01  0.51421444065E+02  0.41800000000E+01 0. -1.
         -5    1    3    3    0  502  0.21428188566E+01  0.52727777090E+02  0.14940750894E+03  0.15850831611E+03  0.41800000000E+01 0. -1.
        -11    1    1    2    0    0 -0.62811288567E+02 -0.23566231947E+02  0.35463934064E+02  0.75883567911E+02  0.00000000000E+00 0.  1.
         11    1    1    2    0    0  0.13230859219E+02 -0.47908914812E+02 -0.14163283598E+02  0.51680928363E+02  0.00000000000E+00 0. -1.
</event>
<event>
 7    1  0.2522928E-009  0.1280408E+03  0.7561462E-02  0.1230392E+00
          2   -1    0    0  501    0  0.00000000000E+00  0.00000000000E+00  0.41614380496E+03  0.41614380496E+03  0.00000000000E+00 0. -1.
         -2   -1    0    0    0  501 -0.00000000000E+00 -0.00000000000E+00 -0.51657638542E+02  0.51657638542E+02  0.00000000000E+00 0.  1.
         25    2    1    2    0    0 -0.64456963360E+02  0.59355726050E+02  0.27156972153E+03  0.31157437072E+03  0.12510264783E+03 0.  0.
          5    1    3    3  502    0 -0.55534740665E+02  0.95955585476E+02  0.22974057615E+03  0.25512700079E+03  0.41800000000E+01 0. -1.
         -5    1    3    3    0  502 -0.89222226954E+01 -0.36599859426E+02  0.41829145384E+02  0.56447369924E+02  0.41800000000E+01 0. -1.
        -11    1    1    2    0    0  0.21921340294E+02 -0.60842391550E+02  0.13412198238E+02  0.66047171260E+02  0.00000000000E+00 0.  1.
         11    1    1    2    0    0  0.42535623066E+02  0.14866655006E+01  0.79504246644E+02  0.90179901521E+02  0.00000000000E+00 0. -1.
</event>
<event>
 7    1  0.2522928E-009  0.8827302E+02  0.7561462E-02  0.1307089E+00
          2   -1    0    0  501    0  0.00000000000E+00  0.00000000000E+00  0.26995859459E+03  0.26995859459E+03  0.00000000000E+00 0.  1.
         -2   -1    0    0    0  501 -0.00000000000E+00 -0.00000000000E+00 -0.45326176285E+02  0.45326176285E+02  0.00000000000E+00 0. -1.
         25    2    1    2    0    0  0.34037041611E+02  0.69475316362E+01  0.14796193037E+03  0.19686242165E+03  0.12512110862E+03 0.  0.
          5    1    3    3  502    0 -0.15444385878E+02  0.31224515557E+02 -0.38548723246E+01  0.35296343544E+02  0.41800000000E+01 0. -1.
         -5    1    3    3    0  502  0.49481427489E+02 -0.24276983920E+02  0.15181680269E+03  0.16156607810E+03  0.41800000000E+01 0. -1.
        -11    1    1    2    0    0  0.17359547044E+02  0.21348408289E+02  0.42189831398E+02  0.50369537257E+02  0.00000000000E+00 0.  1.
         11    1    1    2    0    0 -0.51396588655E+02 -0.28295939926E+02  0.34480656542E+02  0.68052811972E+02  0.00000000000E+00 0. -1.
</event>
<event>
 7    1  0.2522928E-009  0.9065580E+02  0.7561462E-02  0.1301271E+00
          1   -1    0    0  501    0  0.00000000000E+00  0.00000000000E+00  0.23268944123E+03  0.23268944123E+03  0.00000000000E+00 0. -1.
         -1   -1    0    0    0  501 -0.00000000000E+00 -0.00000000000E+00 -0.55576281840E+02  0.55576281840E+02  0.00000000000E+00 0.  1.
         25    2    1    2    0    0 -0.14686323106E+01 -0.27203023337E+02  0.14445279844E+03  0.19301777041E+03  0.12508831823E+03 0.  0.
          5    1    3    3  502    0  0.17817157422E+02  0.41175925796E+02  0.98458486370E+02  0.10827951746E+03  0.41800000000E+01 0.  1.
         -5    1    3    3    0  502 -0.19285789732E+02 -0.68378949133E+02  0.45994312068E+02  0.84738252948E+02  0.41800000000E+01 0.  1.
        -11    1    1    2    0    0  0.21592647076E+02  0.36892682731E+02 -0.12778683458E+02  0.44616221240E+02  0.00000000000E+00 0.  1.
         11    1    1    2    0    0 -0.20124014766E+02 -0.96896593940E+01  0.45439044409E+02  0.50631731417E+02  0.00000000000E+00 0. -1.
</event>
<event>
 7    1  0.2522928E-009  0.1379203E+03  0.7561462E-02  0.1216155E+00
         -1   -1    0    0    0  501 -0.00000000000E+00  0.00000000000E+00  0.36085605970E+03  0.36085605970E+03  0.00000000000E+00 0.  1.
          1   -1    0    0  501    0  0.00000000000E+00 -0.00000000000E+00 -0.83654933566E+02  0.83654933566E+02  0.00000000000E+00 0. -1.
         25    2    1    2    0    0 -0.58101836231E+02  0.12110844594E+03  0.12622424761E+03  0.22276007575E+03  0.12508561712E+03 0.  0.
          5    1    3    3  502    0 -0.52630979286E+02  0.62307983431E+02  0.13990524173E+03  0.16199769703E+03  0.41800000000E+01 0.  1.
         -5    1    3    3    0  502 -0.54708569451E+01  0.58800462509E+02 -0.13680994117E+02  0.60762378714E+02  0.41800000000E+01 0.  1.
        -11    1    1    2    0    0  0.42801403962E+02 -0.10105820196E+03  0.16080121569E+03  0.19468372128E+03  0.00000000000E+00 0.  1.
         11    1    1    2    0    0  0.15300432269E+02 -0.20050243980E+02 -0.98243371713E+01  0.27067196237E+02  0.00000000000E+00 0. -1.
</event>
<event>
 7    1  0.2522928E-009  0.1773476E+03  0.7561462E-02  0.1170395E+00
          1   -1    0    0  501    0  0.00000000000E+00  0.00000000000E+00  0.37424503049E+03  0.37424503049E+03  0.00000000000E+00 0. -1.
         -1   -1    0    0    0  501 -0.00000000000E+00 -0.00000000000E+00 -0.96169434628E+02  0.96169434628E+02  0.00000000000E+00 0.  1.
         25    2    1    2    0    0 -0.98586091683E+02 -0.10178236109E+03  0.22467850435E+03  0.29361066657E+03  0.12509167320E+03 0.  0.
          5    1    3    3  502    0  0.17286244500E+02 -0.60516459382E+02  0.53064205933E+02  0.82427777214E+02  0.41800000000E+01 0. -1.
         -5    1    3    3    0  502 -0.11587233618E+03 -0.41265901710E+02  0.17161429842E+03  0.21118288936E+03  0.41800000000E+01 0. -1.
        -11    1    1    2    0    0  0.83018838413E+02  0.20130121835E+02  0.26917411816E+02  0.89565040029E+02  0.00000000000E+00 0.  1.
         11    1    1    2    0    0  0.15567253270E+02  0.81652239257E+02  0.26479679691E+02  0.87238758511E+02  0.00000000000E+00 0. -1.
</event>
<event>
 7    1  0.2522928E-009  0.1199049E+03  0.7561462E-02  0.1243254E+00
          2   -1    0    0  501    0  0.00000000000E+00  0.00000000000E+00  0.84983021937E+03  0.84983021937E+03  0.00000000000E+00 0. -1.
         -2   -1    0    0    0  501 -0.00000000000E+00 -0.00000000000E+00 -0.24078245777E+02  0.24078245777E+02  0.00000000000E+00 0.  1.
         25    2    1    2    0    0 -0.15384298189E+02  0.91882103983E+02  0.47536783753E+03  0.50030111063E+03  0.12509045795E+03 0.  0.
          5    1    3    3  502    0 -0.61042492141E+02  0.67445797715E+02  0.38894974684E+03  0.39946777022E+03  0.41800000000E+01 0.  1.
         -5    1    3    3    0  502  0.45658193953E+02  0.24436306269E+02  0.86418090696E+02  0.10083334041E+03  0.41800000000E+01 0.  1.
        -11    1    1    2    0    0  0.18888898236E+02 -0.34748828703E+02  0.34209507738E+02  0.52293039618E+02  0.00000000000E+00 0.  1.
         11    1    1    2    0    0 -0.35046000470E+01 -0.57133275280E+02  0.31617462832E+03  0.32131431490E+03  0.00000000000E+00 0. -1.
</event>
<event>
 7    1  0.2522928E-009  0.1145248E+03  0.7561462E-02  0.1252413E+00
          2   -1    0    0  501    0  0.00000000000E+00  0.00000000000E+00  0.64717812729E+03  0.64717812729E+03  0.00000000000E+00 0. -1.
         -2   -1    0    0    0  501 -0.00000000000E+00 -0.00000000000E+00 -0.35117515242E+02  0.35117515242E+02  0.00000000000E+00 0.  1.
         25    2    1    2    0    0  0.20326469985E+02 -0.55227770667E+02  0.52547592477E+03  0.54335621205E+03  0.12509098138E+03 0.  0.
          5    1    3    3  502    0 -0.31270864145E+02  0.21246498948E+02  0.24841954241E+03  0.25131458794E+03  0.41800000000E+01 0. -1.
         -5    1    3    3    0  502  0.51597334130E+02 -0.76474269615E+02  0.27705638236E+03  0.29204162411E+03  0.41800000000E+01 0. -1.
        -11    1    1    2    0    0 -0.10513275947E+02 -0.20109601513E+02 -0.13479976312E+01  0.22731962999E+02  0.00000000000E+00 0. -1.
         11    1    1    2    0    0 -0.98131940384E+01  0.75337372180E+02  0.87932684906E+02  0.11620746748E+03  0.00000000000E+00 0.  1.
</event>
<event>
 6    1  0.2522928E-009  0.1323876E+03  0.7561462E-02  0.1223955E+00
          1   -1    0    0  501    0  0.00000000000E+00  0.00000000000E+00  0.11124666626E+03  0.11124666626E+03  0.00000000000E+00 0. -1.
         -1   -1    0    0    0  501 -0.00000000000E+00 -0.00000000000E+00 -0.24015026163E+03  0.24015026163E+03  0.00000000000E+00 0.  1.
          5    1    1    2  502    0 -0.40188874024E+02  0.15046175438E+02  0.41060619229E+02  0.59539733306E+02  0.41800000000E+01 0.  1.
         -5    1    1    2    0  502 -0.30647878397E+02  0.79549961078E+02 -0.80147634346E+02  0.11708374972E+03  0.41800000000E+01 0.  1.
        -11    1    1    2    0    0  0.58294426752E+02 -0.21484814319E+02 -0.53489156246E+01  0.62357424057E+02  0.00000000000E+00 0.  1.
         11    1    1    2    0    0  0.12542325669E+02 -0.73111322197E+02 -0.84467664630E+02  0.11241602081E+03  0.00000000000E+00 0. -1.
</event>
<event>
 7    1  0.2522928E-009  0.1223202E+03  0.7561462E-02  0.1239318E+00
          1   -1    0    0  501    0  0.00000000000E+00  0.00000000000E+00  0.13315986631E+03  0.13315986631E+03  0.00000000000E+00 0.  1.
         -1   -1    0    0    0  501 -0.00000000000E+00 -0.00000000000E+00 -0.16958153364E+03  0.16958153364E+03  0.00000000000E+00 0. -1.
         25    2    1    2    0    0 -0.66291073267E+02 -0.76989224161E+02 -0.44403944689E+02  0.16715619604E+03  0.12509051338E+03 0.  0.
          5    1    3    3  502    0 -0.27468680881E+02 -0.87398308809E+02 -0.73362057085E+02  0.11744129015E+03  0.41800000000E+01 0.  1.
         -5    1    3    3    0  502 -0.38822392386E+02  0.10409084648E+02  0.28958112396E+02  0.49714905887E+02  0.41800000000E+01 0.  1.
        -11    1    1    2    0    0 -0.52493223435E+01  0.21085486271E+02  0.34701183219E+02  0.40942950958E+02  0.00000000000E+00 0.  1.
         11    1    1    2    0    0  0.71540395611E+02  0.55903737889E+02 -0.26718905853E+02  0.94642252954E+02  0.00000000000E+00 0. -1.
</event>
<event>
 7    1  0.2522928E-009  0.2004139E+03  0.7561462E-02  0.1149390E+00
          2   -1    0    0  501    0  0.00000000000E+00  0.00000000000E+00  0.74276684719E+03  0.74276684719E+03  0.00000000000E+00 0.  1.
         -2   -1    0    0    0  501 -0.00000000000E+00 -0.00000000000E+00 -0.61529664930E+02  0.61529664930E+02  0.00000000000E+00 0. -1.
         25    2    1    2    0    0  0.15048730497E+03 -0.95638373748E+02  0.28078540720E+03  0.35536058155E+03  0.12509024955E+03 0.  0.
          5    1    3    3  502    0  0.82291698839E+02 -0.11937062301E+03  0.17661008980E+03  0.22853854282E+03  0.41800000000E+01 0. -1.
         -5    1    3    3    0  502  0.68195606136E+02  0.23732249266E+02  0.10417531740E+03  0.12682203873E+03  0.41800000000E+01 0. -1.
        -11    1    1    2    0    0 -0.94670185195E+02  0.83717490280E+02  0.35223420282E+03  0.37421918147E+03  0.00000000000E+00 0. -1.
         11    1    1    2    0    0 -0.55817119780E+02  0.11920883468E+02  0.48217572236E+02  0.74716749096E+02  0.00000000000E+00 0.  1.
</event>
<event>
 7    1  0.2522928E-009  0.3340982E+03  0.7561462E-02  0.1069338E+00
          2   -1    0    0  501    0  0.00000000000E+00  0.00000000000E+00  0.10994424264E+04  0.10994424264E+04  0.00000000000E+00 0. -1.
         -2   -1    0    0    0  501 -0.00000000000E+00 -0.00000000000E+00 -0.11124561951E+03  0.11124561951E+03  0.00000000000E+00 0.  1.
         25    2    1    2    0    0  0.28901976612E+03  0.15275140143E+03  0.40027275998E+03  0.53172414598E+03  0.12508744614E+03 0.  0.
          5    1    3    3  502    0  0.10005007979E+03  0.93655143159E+02  0.91278643284E+02  0.16471359211E+03  0.41800000000E+01 0.  1.
         -5    1    3    3    0  502  0.18896968633E+03  0.59096258270E+02  0.30899411670E+03  0.36701055386E+03  0.41800000000E+01 0.  1.
        -11    1    1    2    0    0 -0.12322179948E+03 -0.10110848199E+03  0.21549094814E+03  0.26803523225E+03  0.00000000000E+00 0.  1.
         11    1    1    2    0    0 -0.16579796664E+03 -0.51642919438E+02  0.37243309878E+03  0.41092866770E+03  0.00000000000E+00 0. -1.
</event>
<event>
 7    1  0.2522928E-009  0.5327424E+02  0.7561462E-02  0.1428441E+00
         -1   -1    0    0    0  501 -0.00000000000E+00  0.00000000000E+00  0.42572734029E+03  0.42572734029E+03  0.00000000000E+00 0.  1.
          1   -1    0    0  501    0  0.00000000000E+00 -0.00000000000E+00 -0.30047693610E+02  0.30047693610E+02  0.00000000000E+00 0. -1.
         25    2    1    2    0    0 -0.62167734931E+01  0.29408178059E+02  0.21021717624E+03  0.24646128448E+03  0.12509362235E+03 0.  0.
          5    1    3    3  502    0 -0.73413368891E+01 -0.26724229673E+01  0.21371766014E+03  0.21390125696E+03  0.41800000000E+01 0. -1.
         -5    1    3    3    0  502  0.11245633959E+01  0.32080601026E+02 -0.35004838979E+01  0.32560027527E+02  0.41800000000E+01 0. -1.
        -11    1    1    2    0    0  0.27125962991E+02 -0.34411189345E+02  0.18240977251E+03  0.18759870183E+03  0.00000000000E+00 0.  1.
         11    1    1    2    0    0 -0.20909189498E+02  0.50030112866E+01  0.30526979342E+01  0.21715047595E+02  0.00000000000E+00 0. -1.
</event>
<event>
 7    1  0.2522928E-009  0.8754151E+02  0.7561462E-02  0.1308917E+00
         -1   -1    0    0    0  501 -0.00000000000E+00  0.00000000000E+00  0.98320237139E+02  0.98320237139E+02  0.00000000000E+00 0. -1.
          1   -1    0    0  501    0  0.00000000000E+00 -0.00000000000E+00 -0.11641655581E+03  0.11641655581E+03  0.00000000000E+00 0.  1.
         25    2    1    2    0    0 -0.15789876732E+02 -0.20504888025E+00 -0.36553432063E+01  0.12614424139E+03  0.12509854456E+03 0.  0.
          5    1    3    3  502    0 -0.63899589520E+02  0.12936557730E+02  0.23224817523E+02  0.69335248004E+02  0.41800000000E+01 0. -1.
         -5    1    3    3    0  502  0.48109712789E+02 -0.13141606610E+02 -0.26880160730E+02  0.56808993388E+02  0.41800000000E+01 0. -1.
        -11    1    1    2    0    0  0.24821447054E+02 -0.23597084202E+02 -0.39904160522E+02  0.52585821699E+02  0.00000000000E+00 0. -1.
         11    1    1    2    0    0 -0.90315703226E+01  0.23802133082E+02  0.25463185058E+02  0.36006729858E+02  0.00000000000E+00 0.  1.
</event>
<event>
 7    1  0.2766746E-009  0.1081353E+03  0.7561462E-02  0.1264063E+00
          1   -1    0    0  501    0  0.00000000000E+00  0.00000000000E+00  0.41232206378E+03  0.41232206378E+03  0.00000000000E+00 0. -1.
         -1   -1    0    0    0  501 -0.00000000000E+00 -0.00000000000E+00 -0.46622191480E+02  0.46622191480E+02  0.00000000000E+00 0.  1.
         25    2    1    2    0    0  0.46100703467E+02 -0.49161477253E+02  0.28999704181E+03  0.32293517973E+03  0.12508685118E+03 0.  0.
          5    1    3    3  502    0 -0.34613552583E+02 -0.49609140516E+02  0.10947103365E+03  0.12514209705E+03  0.41800000000E+01 0. -1.
         -5    1    3    3    0  502  0.80714256050E+02  0.44766326315E+00  0.18052600816E+03  0.19779308268E+03  0.41800000000E+01 0. -1.
        -11    1    1    2    0    0 -0.48157202126E+02  0.32671875667E+02 -0.31612451922E+00  0.58195081501E+02  0.00000000000E+00 0.  1.
         11    1    1    2    0    0  0.20564986594E+01  0.16489601586E+02  0.76018955004E+02  0.77813994031E+02  0.00000000000E+00 0. -1.
</event>
<event>
 7    1  0.2522928E-009  0.8340867E+02  0.7561462E-02  0.1319647E+00
          1   -1    0    0  501    0  0.00000000000E+00  0.00000000000E+00  0.60563189649E+02  0.60563189649E+02  0.00000000000E+00 0. -1.
         -1   -1    0    0    0  501 -0.00000000000E+00 -0.00000000000E+00 -0.21486850261E+03  0.21486850261E+03  0.00000000000E+00 0.  1.
         25    2    1    2    0    0  0.27758750209E+01 -0.15401550063E+02 -0.12530607291E+03  0.17775664024E+03  0.12510354917E+03 0.  0.
          5    1    3    3  502    0 -0.12260887196E+02  0.28956823752E+02 -0.12680122894E+03  0.13070903204E+03  0.41800000000E+01 0. -1.
         -5    1    3    3    0  502  0.15036762217E+02 -0.44358373814E+02  0.14951560298E+01  0.47047608196E+02  0.41800000000E+01 0. -1.
        -11    1    1    2    0    0 -0.40244985548E+02 -0.11603801110E+02  0.21932054625E+01  0.41941831292E+02  0.00000000000E+00 0. -1.
         11    1    1    2    0    0  0.37469110527E+02  0.27005351172E+02 -0.31192445513E+02  0.55733220728E+02  0.00000000000E+00 0.  1.
</event>
<event>
 7    1  0.2522928E-009  0.9739524E+02  0.7561462E-02  0.1285871E+00
         -2   -1    0    0    0  501 -0.00000000000E+00  0.00000000000E+00  0.19478293098E+02  0.19478293098E+02  0.00000000000E+00 0.  1.
          2   -1    0    0  501    0  0.00000000000E+00 -0.00000000000E+00 -0.12690151526E+04  0.12690151526E+04  0.00000000000E+00 0. -1.
         25    2    1    2    0    0 -0.34305625025E+02 -0.46975203044E+02 -0.10706669785E+04  0.10795175850E+04  0.12508753653E+03 0.  0.
          5    1    3    3  502    0 -0.52258210835E+02 -0.44471031370E+02 -0.26934914246E+03  0.27798385955E+03  0.41800000000E+01 0.  1.
         -5    1    3    3    0  502  0.17952585810E+02 -0.25041716744E+01 -0.80131783604E+03  0.80153372541E+03  0.41800000000E+01 0.  1.
        -11    1    1    2    0    0  0.21031325286E+01 -0.26832666275E+02 -0.54986443415E+02  0.61220291614E+02  0.00000000000E+00 0.  1.
         11    1    1    2    0    0  0.32202492496E+02  0.73807869319E+02 -0.12388343758E+03  0.14775556911E+03  0.00000000000E+00 0. -1.
</event>
<event>
 7    1  0.2522928E-009  0.2160820E+03  0.7561462E-02  0.1136838E+00
         -2   -1    0    0    0  501 -0.00000000000E+00  0.00000000000E+00  0.29525838285E+02  0.29525838285E+02  0.00000000000E+00 0.  1.
          2   -1    0    0  501    0  0.00000000000E+00 -0.00000000000E+00 -0.21348717748E+04  0.21348717748E+04  0.00000000000E+00 0. -1.
         25    2    1    2    0    0  0.14834438530E+03 -0.13171399185E+03 -0.15509451048E+04  0.15685767169E+04  0.12509023323E+03 0.  0.
          5    1    3    3  502    0  0.11259811512E+03 -0.24215477460E+02 -0.95655988073E+03  0.96347755693E+03  0.41800000000E+01 0. -1.
         -5    1    3    3    0  502  0.35746270175E+02 -0.10749851439E+03 -0.59438522407E+03  0.60509915999E+03  0.41800000000E+01 0. -1.
        -11    1    1    2    0    0 -0.65322636312E+02  0.88384610889E+02 -0.18920678973E+03  0.21881063854E+03  0.00000000000E+00 0.  1.
         11    1    1    2    0    0 -0.83021748987E+02  0.43329380966E+02 -0.36519404201E+03  0.37701025766E+03  0.00000000000E+00 0. -1.
</event>
<event>
 7    1  0.2522928E-009  0.9107384E+02  0.7561462E-02  0.1300272E+00
         -2   -1    0    0    0  501 -0.00000000000E+00  0.00000000000E+00  0.21879881349E+02  0.21879881349E+02  0.00000000000E+00 0.  1.
          2   -1    0    0  501    0  0.00000000000E+00 -0.00000000000E+00 -0.69932269395E+03  0.69932269395E+03  0.00000000000E+00 0. -1.
         25    2    1    2    0    0  0.10878034939E+02 -0.51514605230E+02 -0.41751340784E+03  0.43901805953E+03  0.12508926678E+03 0.  0.
          5    1    3    3  502    0 -0.30408629676E+01 -0.70973051379E+02 -0.40591257345E+03  0.41210303391E+03  0.41800000000E+01 0.  1.
         -5    1    3    3    0  502  0.13918897907E+02  0.19458446150E+02 -0.11600834394E+02  0.26915025620E+02  0.41800000000E+01 0.  1.
        -11    1    1    2    0    0 -0.65630440688E+01 -0.16910284399E+02 -0.59136414104E+01  0.19078847466E+02  0.00000000000E+00 0.  1.
         11    1    1    2    0    0 -0.43149908704E+01  0.68424889629E+02 -0.25401576334E+03  0.26310566830E+03  0.00000000000E+00 0. -1.
</event>
<event>
 7    1  0.2522928E-009  0.1073226E+03  0.7561462E-02  0.1265610E+00
         -4   -1    0    0    0  501 -0.00000000000E+00  0.00000000000E+00  0.11183506240E+03  0.11183506240E+03  0.00000000000E+00 0.  1.
          4   -1    0    0  501    0  0.00000000000E+00 -0.00000000000E+00 -0.13408177796E+03  0.13408177796E+03  0.00000000000E+00 0. -1.
         25    2    1    2    0    0 -0.73878591016E+01  0.55160650087E+02 -0.27696808982E+02  0.13969138211E+03  0.12509712718E+03 0.  0.
          5    1    3    3  502    0  0.49556782476E+02  0.19674937451E+02 -0.45420870514E+02  0.70167697207E+02  0.41800000000E+01 0. -1.
         -5    1    3    3    0  502 -0.56944641578E+02  0.35485712636E+02  0.17724061532E+02  0.69523684906E+02  0.41800000000E+01 0. -1.
        -11    1    1    2    0    0  0.41361685273E+02 -0.23913056519E+02 -0.21916569486E+02  0.52563859245E+02  0.00000000000E+00 0. -1.
         11    1    1    2    0    0 -0.33973826171E+02 -0.31247593568E+02  0.27366662904E+02  0.53661598998E+02  0.00000000000E+00 0.  1.
</event>
<event>
 7    1  0.2522928E-009  0.4463301E+02  0.7561462E-02  0.1476646E+00
          1   -1    0    0  501    0  0.00000000000E+00  0.00000000000E+00  0.17200566775E+03  0.17200566775E+03  0.00000000000E+00 0.  1.
         -1   -1    0    0    0  501 -0.00000000000E+00 -0.00000000000E+00 -0.71885008756E+02  0.71885008756E+02  0.00000000000E+00 0. -1.
         25    2    1    2    0    0 -0.18797175332E+02 -0.19460776283E+02  0.57704384806E+02  0.14039061791E+03  0.12509066295E+03 0.  0.
          5    1    3    3  502    0 -0.27793514392E+01  0.13643911838E+02 -0.36439303603E+02  0.39232338342E+02  0.41800000000E+01 0.  1.
         -5    1    3    3    0  502 -0.16017823893E+02 -0.33104688121E+02  0.94143688409E+02  0.10115827957E+03  0.41800000000E+01 0.  1.
        -11    1    1    2    0    0  0.31484999123E+01  0.21682056034E+02  0.69097978633E+02  0.72488311173E+02  0.00000000000E+00 0.  1.
         11    1    1    2    0    0  0.15648675420E+02 -0.22212797503E+01 -0.26681704446E+02  0.31011747423E+02  0.00000000000E+00 0. -1.
</event>
<event>
 7    1  0.2522928E-009  0.1249588E+03  0.7561462E-02  0.1235134E+00
          1   -1    0    0  501    0  0.00000000000E+00  0.00000000000E+00  0.24825403329E+03  0.24825403329E+03  0.00000000000E+00 0. -1.
         -1   -1    0    0    0  501 -0.00000000000E+00 -0.00000000000E+00 -0.16736690720E+03  0.16736690720E+03  0.00000000000E+00 0.  1.
         25    2    1    2    0    0 -0.59947357230E+02 -0.46561402445E+02 -0.11537240680E+03  0.18633842799E+03  0.12509823204E+03 0.  0.
          5    1    3    3  502    0 -0.17004259583E+02  0.40876787920E+02 -0.16379143440E+02  0.47389929041E+02  0.41800000000E+01 0.  1.
         -5    1    3    3    0  502 -0.42943097648E+02 -0.87438190365E+02 -0.98993263356E+02  0.13894849895E+03  0.41800000000E+01 0.  1.
        -11    1    1    2    0    0 -0.16242811169E+02  0.23070625834E+02  0.16623497988E+02  0.32747875906E+02  0.00000000000E+00 0.  1.
         11    1    1    2    0    0  0.76190168399E+02  0.23490776611E+02  0.17963603490E+03  0.19653463660E+03  0.00000000000E+00 0. -1.
</event>
<event>
 7    1  0.2522928E-009  0.2673666E+03  0.7561462E-02  0.1102796E+00
          1   -1    0    0  501    0  0.00000000000E+00  0.00000000000E+00  0.89627707446E+02  0.89627707446E+02  0.00000000000E+00 0. -1.
         -1   -1    0    0    0  501 -0.00000000000E+00 -0.00000000000E+00 -0.90209291820E+03  0.90209291820E+03  0.00000000000E+00 0.  1.
         25    2    1    2    0    0 -0.21536302160E+03 -0.12130216431E+03 -0.57136192439E+03  0.63497761555E+03  0.12508667985E+03 0.  0.
          5    1    3    3  502    0 -0.11160450239E+02  0.20515966596E+02 -0.23820396944E+02  0.33620592580E+02  0.41800000000E+01 0.  1.
         -5    1    3    3    0  502 -0.20420257136E+03 -0.14181813091E+03 -0.54754152744E+03  0.60135702297E+03  0.41800000000E+01 0.  1.
        -11    1    1    2    0    0  0.46524550076E+02 -0.11054394647E+02 -0.53453210857E+02  0.71721538967E+02  0.00000000000E+00 0.  1.
         11    1    1    2    0    0  0.16883847152E+03  0.13235655896E+03 -0.18765007551E+03  0.28502147113E+03  0.00000000000E+00 0. -1.
</event>
<event>
 7    1  0.2522928E-009  0.1063601E+03  0.7561462E-02  0.1267463E+00
          1   -1    0    0  501    0  0.00000000000E+00  0.00000000000E+00  0.17061168616E+03  0.17061168616E+03  0.00000000000E+00 0. -1.
         -1   -1    0    0    0  501 -0.00000000000E+00 -0.00000000000E+00 -0.93154494127E+02  0.93154494127E+02  0.00000000000E+00 0.  1.
         25    2    1    2    0    0 -0.18635066675E+02  0.18338869891E+02 -0.17439530514E+02  0.12898054038E+03  0.12509301625E+03 0.  0.
          5    1    3    3  502    0 -0.17285091736E+02 -0.53114128267E+02 -0.11203192335E+02  0.57121527784E+02  0.41800000000E+01 0.  1.
         -5    1    3    3    0  502 -0.13499749389E+01  0.71452998158E+02 -0.62363381789E+01  0.71859012600E+02  0.41800000000E+01 0.  1.
        -11    1    1    2    0    0  0.50442380172E+02 -0.17193937815E+02  0.86947494132E+02  0.10198005663E+03  0.00000000000E+00 0. -1.
         11    1    1    2    0    0 -0.31807313497E+02 -0.11449320762E+01  0.79492284149E+01  0.32805583271E+02  0.00000000000E+00 0.  1.
</event>
<event>
 7    1  0.2522928E-009  0.1023104E+03  0.7561462E-02  0.1275511E+00
         -2   -1    0    0    0  501 -0.00000000000E+00  0.00000000000E+00  0.40468475223E+02  0.40468475223E+02  0.00000000000E+00 0.  1.
          2   -1    0    0  501    0  0.00000000000E+00 -0.00000000000E+00 -0.48947172246E+03  0.48947172246E+03  0.00000000000E+00 0. -1.
         25    2    1    2    0    0 -0.38058798683E+02  0.41368752485E+02 -0.37652886329E+03  0.40072578419E+03  0.12508926167E+03 0.  0.
          5    1    3    3  502    0  0.34870387725E+02 -0.14275163019E+02 -0.17794301187E+03  0.18193656063E+03  0.41800000000E+01 0.  1.
         -5    1    3    3    0  502 -0.72929186408E+02  0.55643915504E+02 -0.19858585142E+03  0.21878922356E+03  0.41800000000E+01 0.  1.
        -11    1    1    2    0    0 -0.43534124325E+01 -0.30889374127E+02 -0.79098395744E+02  0.85027418185E+02  0.00000000000E+00 0. -1.
         11    1    1    2    0    0  0.42412211116E+02 -0.10479378357E+02  0.66240117938E+01  0.44186995312E+02  0.00000000000E+00 0.  1.
</event>
<event>
 7    1  0.2522928E-009  0.1018757E+03  0.7561462E-02  0.1276400E+00
         -1   -1    0    0    0  501 -0.00000000000E+00  0.00000000000E+00  0.45680780436E+02  0.45680780436E+02  0.00000000000E+00 0.  1.
          1   -1    0    0  501    0  0.00000000000E+00 -0.00000000000E+00 -0.49802514850E+03  0.49802514850E+03  0.00000000000E+00 0. -1.
         25    2    1    2    0    0  0.22488984579E+02 -0.25418054760E+02 -0.42102815165E+03  0.44052670549E+03  0.12508893572E+03 0.  0.
          5    1    3    3  502    0  0.72159160528E+02 -0.32509244894E+02 -0.26001403482E+03  0.27182451353E+03  0.41800000000E+01 0. -1.
         -5    1    3    3    0  502 -0.49670175949E+02  0.70911901336E+01 -0.16101411683E+03  0.16870219197E+03  0.41800000000E+01 0. -1.
        -11    1    1    2    0    0 -0.27658722278E+02 -0.16305218793E+02 -0.48165744431E+02  0.57886129725E+02  0.00000000000E+00 0. -1.
         11    1    1    2    0    0  0.51697376986E+01  0.41723273553E+02  0.16849528017E+02  0.45293093715E+02  0.00000000000E+00 0.  1.
</event>
<event>
 7    1  0.2522928E-009  0.6341182E+02  0.7561462E-02  0.1384047E+00
         -2   -1    0    0    0  501 -0.00000000000E+00  0.00000000000E+00  0.75964780516E+02  0.75964780516E+02  0.00000000000E+00 0.  1.
          2   -1    0    0  501    0  0.00000000000E+00 -0.00000000000E+00 -0.17557955284E+03  0.17557955284E+03  0.00000000000E+00 0. -1.
         25    2    1    2    0    0  0.51679591449E+01  0.33125484445E+02 -0.30883665975E+02  0.13317222195E+03  0.12512807181E+03 0.  0.
          5    1    3    3  502    0 -0.37176158005E+02  0.32640780541E+02 -0.62746019038E+02  0.80012640148E+02  0.41800000000E+01 0. -1.
         -5    1    3    3    0  502  0.42344117150E+02  0.48470390388E+00  0.31862353063E+02  0.53159581806E+02  0.41800000000E+01 0. -1.
        -11    1    1    2    0    0  0.21808675228E+01 -0.13326139213E+02  0.21672163856E+02  0.25534777377E+02  0.00000000000E+00 0.  1.
         11    1    1    2    0    0 -0.73488266677E+01 -0.19799345232E+02 -0.90403270206E+02  0.92837334026E+02  0.00000000000E+00 0. -1.
</event>
<event>
 7    1  0.2522928E-009  0.2144949E+03  0.7561462E-02  0.1138055E+00
          1   -1    0    0  501    0  0.00000000000E+00  0.00000000000E+00  0.75335223012E+03  0.75335223012E+03  0.00000000000E+00 0. -1.
         -1   -1    0    0    0  501 -0.00000000000E+00 -0.00000000000E+00 -0.71387381195E+02  0.71387381195E+02  0.00000000000E+00 0.  1.
         25    2    1    2    0    0 -0.18901892619E+03  0.55445625726E+02  0.25621301649E+03  0.34654409439E+03  0.12508128424E+03 0.  0.
          5    1    3    3  502    0  0.54731326190E+01 -0.10537833531E+02  0.63972517644E+02  0.65199359889E+02  0.41800000000E+01 0.  1.
         -5    1    3    3    0  502 -0.19449205881E+03  0.65983459257E+02  0.19224049884E+03  0.28134473450E+03  0.41800000000E+01 0.  1.
        -11    1    1    2    0    0  0.57879998131E+02  0.18074879964E+02  0.74057780298E+02  0.95714942887E+02  0.00000000000E+00 0.  1.
         11    1    1    2    0    0  0.13113892806E+03 -0.73520505690E+02  0.35169405214E+03  0.38248057405E+03  0.00000000000E+00 0. -1.
</event>
<event>
 7    1  0.2522928E-009  0.1446291E+03  0.7561462E-02  0.1207232E+00
         -1   -1    0    0    0  501 -0.00000000000E+00  0.00000000000E+00  0.29436827880E+02  0.29436827880E+02  0.00000000000E+00 0.  1.
          1   -1    0    0  501    0  0.00000000000E+00 -0.00000000000E+00 -0.84063847552E+03  0.84063847552E+03  0.00000000000E+00 0. -1.
         25    2    1    2    0    0 -0.86786276765E+02  0.47693476020E+02 -0.28199035197E+03  0.32399680871E+03  0.12509535549E+03 0.  0.
          5    1    3    3  502    0  0.30460191337E+02  0.20848423988E+02 -0.46339529585E+02  0.59391114161E+02  0.41800000000E+01 0.  1.
         -5    1    3    3    0  502 -0.11724646810E+03  0.26845052032E+02 -0.23565082238E+03  0.26460569455E+03  0.41800000000E+01 0.  1.
        -11    1    1    2    0    0 -0.94804616052E+01  0.14372173436E+02 -0.38463746756E+02  0.42141408805E+02  0.00000000000E+00 0.  1.
         11    1    1    2    0    0  0.96266738370E+02 -0.62065649456E+02 -0.49074754891E+03  0.50393708588E+03  0.00000000000E+00 0. -1.
</event>
<event>
 7    1  0.2522928E-009  0.9834726E+02  0.7561462E-02  0.1283810E+00
         -2   -1    0    0    0  501 -0.00000000000E+00  0.00000000000E+00  0.10306484621E+03  0.10306484621E+03  0.00000000000E+00 0.  1.
          2   -1    0    0  501    0  0.00000000000E+00 -0.00000000000E+00 -0.13780965501E+03  0.13780965501E+03  0.00000000000E+00 0. -1.
         25    2    1    2    0    0  0.21526424357E+02 -0.25168862729E+02 -0.60228478638E+02  0.14273732254E+03  0.12509842129E+03 0.  0.
          5    1    3    3  502    0 -0.44529162440E+02  0.70864319962E+01  0.34193608882E+01  0.45411763398E+02  0.41800000000E+01 0.  1.
         -5    1    3    3    0  502  0.66055586797E+02 -0.32255294725E+02 -0.63647839526E+02  0.97325559137E+02  0.41800000000E+01 0.  1.
        -11    1    1    2    0    0  0.13007025395E+02 -0.18183848393E+02  0.35363307858E+02  0.41837765173E+02  0.00000000000E+00 0.  1.
         11    1    1    2    0    0 -0.34533449752E+02  0.43352711123E+02 -0.98796380197E+01  0.56299413504E+02  0.00000000000E+00 0. -1.
</event>
<event>
 7    1  0.2522928E-009  0.1218019E+03  0.7561462E-02  0.1240154E+00
          2   -1    0    0  501    0  0.00000000000E+00  0.00000000000E+00  0.10107115241E+03  0.10107115241E+03  0.00000000000E+00 0. -1.
         -2   -1    0    0    0  501 -0.00000000000E+00 -0.00000000000E+00 -0.21395917943E+03  0.21395917943E+03  0.00000000000E+00 0.  1.
         25    2    1    2    0    0  0.18564375070E+02  0.86216399530E+02 -0.10939086372E+03  0.18812787327E+03  0.12509129492E+03 0.  0.
          5    1    3    3  502    0  0.60858886111E+02  0.48744501844E+02 -0.10560851882E+03  0.13134101464E+03  0.41800000000E+01 0. -1.
         -5    1    3    3    0  502 -0.42294511042E+02  0.37471897686E+02 -0.37823449006E+01  0.56786858633E+02  0.41800000000E+01 0. -1.
        -11    1    1    2    0    0 -0.23401645844E+02 -0.91509850596E+00 -0.29433720566E+02  0.37614071035E+02  0.00000000000E+00 0.  1.
         11    1    1    2    0    0  0.48372707741E+01 -0.85301301024E+02  0.25936557263E+02  0.89288387529E+02  0.00000000000E+00 0. -1.
</event>
<event>
 7    1  0.2522928E-009  0.1273927E+03  0.7561462E-02  0.1231377E+00
         -2   -1    0    0    0  501 -0.00000000000E+00  0.00000000000E+00  0.61311797043E+02  0.61311797043E+02  0.00000000000E+00 0.  1.
          2   -1    0    0  501    0  0.00000000000E+00 -0.00000000000E+00 -0.90072937673E+03  0.90072937673E+03  0.00000000000E+00 0. -1.
         25    2    1    2    0    0 -0.87225150719E+02  0.34914133265E+02 -0.81304088104E+03  0.82795558871E+03  0.12509100293E+03 0.  0.
          5    1    3    3  502    0 -0.33996924629E+01 -0.23840405597E+02 -0.45198980136E+03  0.45265016931E+03  0.41800000000E+01 0.  1.
         -5    1    3    3    0  502 -0.83825458256E+02  0.58754538862E+02 -0.36105107968E+03  0.37530541939E+03  0.41800000000E+01 0.  1.
        -11    1    1    2    0    0  0.45339075467E+02  0.27276458991E+02 -0.26339006732E+02  0.59104824295E+02  0.00000000000E+00 0. -1.
         11    1    1    2    0    0  0.41886075252E+02 -0.62190592256E+02 -0.37691917323E-01  0.74980760771E+02  0.00000000000E+00 0.  1.
</event>
<event>
 7    1  0.2522928E-009  0.1235254E+03  0.7561462E-02  0.1237392E+00
          2   -1    0    0  501    0  0.00000000000E+00  0.00000000000E+00  0.36479615332E+03  0.36479615332E+03  0.00000000000E+00 0. -1.
         -2   -1    0    0    0  501 -0.00000000000E+00 -0.00000000000E+00 -0.64362214628E+02  0.64362214628E+02  0.00000000000E+00 0.  1.
         25    2    1    2    0    0 -0.84079107545E+00  0.10643529638E+03  0.18590347885E+03  0.24806391066E+03  0.12508565496E+03 0.  0.
          5    1    3    3  502    0  0.14585813944E+02  0.21355392622E+02  0.15335915463E+03  0.15558053051E+03  0.41800000000E+01 0. -1.
         -5    1    3    3    0  502 -0.15426605019E+02  0.85079903757E+02  0.32544324221E+02  0.92483380154E+02  0.41800000000E+01 0. -1.
        -11    1    1    2    0    0 -0.30813438732E+02 -0.93959801724E+01  0.52670587115E+02  0.61740936151E+02  0.00000000000E+00 0.  1.
         11    1    1    2    0    0  0.31654229807E+02 -0.97039316207E+02  0.61859872725E+02  0.11935352114E+03  0.00000000000E+00 0. -1.
</event>
<event>
 7    1  0.2522928E-009  0.1624252E+03  0.7561462E-02  0.1185986E+00
          3   -1    0    0  501    0  0.00000000000E+00  0.00000000000E+00  0.19103671924E+03  0.19103671924E+03  0.00000000000E+00 0. -1.
         -3   -1    0    0    0  501 -0.00000000000E+00 -0.00000000000E+00 -0.16069506927E+03  0.16069506927E+03  0.00000000000E+00 0.  1.
         25    2    1    2    0    0 -0.13458629218E+03  0.81741104543E+01  0.37481523238E+02  0.18769148273E+03  0.12507174733E+03 0.  0.
          5    1    3    3  502    0  0.17356690267E+02  0.42987580604E+01 -0.18116410339E+02  0.25795556622E+02  0.41800000000E+01 0. -1.
         -5    1    3    3    0  502 -0.15194298245E+03  0.38753523939E+01  0.55597933577E+02  0.16189592610E+03  0.41800000000E+01 0. -1.
        -11    1    1    2    0    0  0.38522431952E+01 -0.22585168016E+02 -0.21892881596E+02  0.31689554376E+02  0.00000000000E+00 0.  1.
         11    1    1    2    0    0  0.13073404899E+03  0.14411057562E+02  0.14753008326E+02  0.13235075141E+03  0.00000000000E+00 0. -1.
</event>
<event>
 7    1  0.2522928E-009  0.8178277E+02  0.7561462E-02  0.1324067E+00
          2   -1    0    0  501    0  0.00000000000E+00  0.00000000000E+00  0.13572904083E+04  0.13572904083E+04  0.00000000000E+00 0. -1.
         -2   -1    0    0    0  501 -0.00000000000E+00 -0.00000000000E+00 -0.14381890143E+02  0.14381890143E+02  0.00000000000E+00 0.  1.
         25    2    1    2    0    0  0.46371652685E+02 -0.35686064773E+02  0.10706978556E+04  0.10795675967E+04  0.12509385412E+03 0.  0.
          5    1    3    3  502    0 -0.25952573133E+01 -0.51073041511E+02  0.17438990760E+03  0.18178147101E+03  0.41800000000E+01 0. -1.
         -5    1    3    3    0  502  0.48966909998E+02  0.15386976738E+02  0.89630794804E+03  0.89778612567E+03  0.41800000000E+01 0. -1.
        -11    1    1    2    0    0 -0.60372702958E+01  0.13352166970E+02 -0.13224893141E+01  0.14713190457E+02  0.00000000000E+00 0.  1.
         11    1    1    2    0    0 -0.40334382389E+02  0.22333897803E+02  0.27353315181E+03  0.27739151129E+03  0.00000000000E+00 0. -1.
</event>
<event>
 7    1  0.2522928E-009  0.1108222E+03  0.7561462E-02  0.1259055E+00
          2   -1    0    0  501    0  0.00000000000E+00  0.00000000000E+00  0.76231301926E+03  0.76231301926E+03  0.00000000000E+00 0. -1.
         -2   -1    0    0    0  501 -0.00000000000E+00 -0.00000000000E+00 -0.19906280705E+02  0.19906280705E+02  0.00000000000E+00 0.  1.
         25    2    1    2    0    0 -0.43464957259E+02  0.26152687701E+02  0.32776882769E+03  0.35447982800E+03  0.12510147270E+03 0.  0.
          5    1    3    3  502    0 -0.80040428292E+00  0.61143166977E+02  0.80959767129E+02  0.10154350697E+03  0.41800000000E+01 0.  1.
         -5    1    3    3    0  502 -0.42664552976E+02 -0.34990479276E+02  0.24680906056E+03  0.25293632103E+03  0.41800000000E+01 0.  1.
        -11    1    1    2    0    0  0.19066357204E+02 -0.60190510370E+02  0.25483430468E+03  0.26253941867E+03  0.00000000000E+00 0.  1.
         11    1    1    2    0    0  0.24398600055E+02  0.34037822668E+02  0.15980360618E+03  0.16520005328E+03  0.00000000000E+00 0. -1.
</event>
<event>
 7    1  0.2522928E-009  0.3098408E+03  0.7561462E-02  0.1080422E+00
          2   -1    0    0  501    0  0.00000000000E+00  0.00000000000E+00  0.11059338797E+04  0.11059338797E+04  0.00000000000E+00 0. -1.
         -2   -1    0    0    0  501 -0.00000000000E+00 -0.00000000000E+00 -0.92008798137E+02  0.92008798137E+02  0.00000000000E+00 0.  1.
         25    2    1    2    0    0 -0.28843057434E+03 -0.70932580496E+02  0.44175038605E+03  0.54682114248E+03  0.12508529528E+03 0.  0.
          5    1    3    3  502    0 -0.17065539179E+03  0.11334795054E+02  0.18082732486E+03  0.24893319212E+03  0.41800000000E+01 0. -1.
         -5    1    3    3    0  502 -0.11777518256E+03 -0.82267375550E+02  0.26092306119E+03  0.29788795036E+03  0.41800000000E+01 0. -1.
        -11    1    1    2    0    0  0.63074539114E+02 -0.12994042653E+02  0.17904606326E+03  0.19027541984E+03  0.00000000000E+00 0.  1.
         11    1    1    2    0    0  0.22535603523E+03  0.83926623149E+02  0.39312863227E+03  0.46084611553E+03  0.00000000000E+00 0. -1.
</event>
<event>
 7    1  0.2522928E-009  0.1661963E+03  0.7561462E-02  0.1181874E+00
          2   -1    0    0  501    0  0.00000000000E+00  0.00000000000E+00  0.10560990461E+04  0.10560990461E+04  0.00000000000E+00 0. -1.
         -2   -1    0    0    0  501 -0.00000000000E+00 -0.00000000000E+00 -0.38450676213E+02  0.38450676213E+02  0.00000000000E+00 0.  1.
         25    2    1    2    0    0  0.11795167899E+03  0.11451476891E+03  0.41760492714E+03  0.46590495508E+03  0.12508925260E+03 0.  0.
          5    1    3    3  502    0  0.86174798617E+02  0.81558646174E+02  0.13582234586E+03  0.18039703633E+03  0.41800000000E+01 0. -1.
         -5    1    3    3    0  502  0.31776880376E+02  0.32956122739E+02  0.28178258128E+03  0.28550791874E+03  0.41800000000E+01 0. -1.
        -11    1    1    2    0    0 -0.28585355545E+02 -0.10232595552E+02  0.31503675999E+02  0.43752830364E+02  0.00000000000E+00 0.  1.
         11    1    1    2    0    0 -0.89366323447E+02 -0.10428217336E+03  0.56853976678E+03  0.58489193691E+03  0.00000000000E+00 0. -1.
</event>
<event>
 7    1  0.2522928E-009  0.1419221E+03  0.7561462E-02  0.1210766E+00
          2   -1    0    0  501    0  0.00000000000E+00  0.00000000000E+00  0.26039834529E+04  0.26039834529E+04  0.00000000000E+00 0. -1.
         -2   -1    0    0    0  501 -0.00000000000E+00 -0.00000000000E+00 -0.12418149974E+02  0.12418149974E+02  0.00000000000E+00 0.  1.
         25    2    1    2    0    0  0.89456069848E+02 -0.64659239155E+02  0.20326581395E+04  0.20394926250E+04  0.12509136492E+03 0.  0.
          5    1    3    3  502    0  0.61304965340E+02  0.90833804155E+01  0.38838875793E+03  0.39332442877E+03  0.41800000000E+01 0.  1.
         -5    1    3    3    0  502  0.28151104507E+02 -0.73742619571E+02  0.16442693816E+04  0.16461681962E+04  0.41800000000E+01 0.  1.
        -11    1    1    2    0    0  0.18240662547E+02  0.16927622825E+02  0.83900132985E+02  0.87512847626E+02  0.00000000000E+00 0. -1.
         11    1    1    2    0    0 -0.10769673240E+03  0.47731616331E+02  0.47500703048E+03  0.48939613032E+03  0.00000000000E+00 0.  1.
</event>
<event>
 7    1  0.2522928E-009  0.9915965E+02  0.7561462E-02  0.1282073E+00
         -3   -1    0    0    0  501 -0.00000000000E+00  0.00000000000E+00  0.42250368296E+02  0.42250368296E+02  0.00000000000E+00 0.  1.
          3   -1    0    0  501    0  0.00000000000E+00 -0.00000000000E+00 -0.34748005651E+03  0.34748005651E+03  0.00000000000E+00 0. -1.
         25    2    1    2    0    0 -0.12665359365E+02  0.38499313200E+02 -0.28510013297E+03  0.31396013330E+03  0.12508505523E+03 0.  0.
          5    1    3    3  502    0 -0.65062341615E+02  0.41035383367E+02 -0.19427173113E+03  0.20898801138E+03  0.41800000000E+01 0. -1.
         -5    1    3    3    0  502  0.52396982250E+02 -0.25360701667E+01 -0.90828401832E+02  0.10497212192E+03  0.41800000000E+01 0. -1.
        -11    1    1    2    0    0 -0.18742427901E+02  0.29493637177E+00 -0.17724946522E+02  0.25798048769E+02  0.00000000000E+00 0. -1.
         11    1    1    2    0    0  0.31407787265E+02 -0.38794249572E+02 -0.24046087273E+01  0.49972242734E+02  0.00000000000E+00 0.  1.
</event>
<event>
 7    1  0.2697349E-009  0.1551212E+03  0.7561462E-02  0.1194318E+00
          1   -1    0    0  501    0  0.00000000000E+00  0.00000000000E+00  0.57246032944E+03  0.57246032944E+03  0.00000000000E+00 0. -1.
         -1   -1    0    0    0  501 -0.00000000000E+00 -0.00000000000E+00 -0.48493390238E+02  0.48493390238E+02  0.00000000000E+00 0.  1.
         25    2    1    2    0    0  0.10322339465E+03 -0.54467807660E+02  0.36979742547E+03  0.40745349186E+03  0.12508557420E+03 0.  0.
          5    1    3    3  502    0  0.12629531263E+03 -0.64302972403E+02  0.27623205700E+03  0.31049476641E+03  0.41800000000E+01 0.  1.
         -5    1    3    3    0  502 -0.23071917983E+02  0.98351647429E+01  0.93565368471E+02  0.96958725456E+02  0.41800000000E+01 0.  1.
        -11    1    1    2    0    0 -0.46822713736E+02 -0.18897081926E+02  0.81348941143E+02  0.95745059675E+02  0.00000000000E+00 0. -1.
         11    1    1    2    0    0 -0.56400680913E+02  0.73364889586E+02  0.72820572589E+02  0.11775516814E+03  0.00000000000E+00 0.  1.
</event>
<event>
 7    1  0.2522928E-009  0.6286470E+02  0.7561462E-02  0.1386189E+00
          1   -1    0    0  501    0  0.00000000000E+00  0.00000000000E+00  0.45415306070E+02  0.45415306070E+02  0.00000000000E+00 0. -1.
         -1   -1    0    0    0  501 -0.00000000000E+00 -0.00000000000E+00 -0.31553343664E+03  0.31553343664E+03  0.00000000000E+00 0.  1.
         25    2    1    2    0    0  0.32411947549E+01  0.46945214819E+01 -0.76709829085E+02  0.14684749046E+03  0.12508894315E+03 0.  0.
          5    1    3    3  502    0 -0.10341195304E+02  0.25974968521E+02  0.27562185678E+02  0.39481461337E+02  0.41800000000E+01 0. -1.
         -5    1    3    3    0  502  0.13582390059E+02 -0.21280447039E+02 -0.10427201476E+03  0.10736602912E+03  0.41800000000E+01 0. -1.
        -11    1    1    2    0    0 -0.31959676827E+02 -0.21574063867E+02 -0.16755353091E+03  0.17193326291E+03  0.00000000000E+00 0.  1.
         11    1    1    2    0    0  0.28718482072E+02  0.16879542385E+02 -0.25854770571E+02  0.42167989340E+02  0.00000000000E+00 0. -1.
</event>
<event>
 7    1  0.2522928E-009  0.1188057E+03  0.7561462E-02  0.1245080E+00
         -2   -1    0    0    0  501 -0.00000000000E+00  0.00000000000E+00  0.17023699801E+02  0.17023699801E+02  0.00000000000E+00 0.  1.
          2   -1    0    0  501    0  0.00000000000E+00 -0.00000000000E+00 -0.94027885636E+03  0.94027885636E+03  0.00000000000E+00 0. -1.
         25    2    1    2    0    0 -0.60717629081E+02  0.17251833569E+02 -0.54846189477E+03  0.56607620191E+03  0.12509020785E+03 0.  0.
          5    1    3    3  502    0  0.45473943229E+01  0.51489470074E+02 -0.35926224688E+03  0.36298578313E+03  0.41800000000E+01 0. -1.
         -5    1    3    3    0  502 -0.65265023404E+02 -0.34237636505E+02 -0.18919964790E+03  0.20309041877E+03  0.41800000000E+01 0. -1.
        -11    1    1    2    0    0  0.41144342989E+02  0.36330468413E+02 -0.17043024917E+03  0.17905091379E+03  0.00000000000E+00 0.  1.
         11    1    1    2    0    0  0.19573286092E+02 -0.53582301982E+02 -0.20436301261E+03  0.21217544046E+03  0.00000000000E+00 0. -1.
</event>
<event>
 7    1  0.2522928E-009  0.1027514E+03  0.7561462E-02  0.1274614E+00
         -1   -1    0    0    0  501 -0.00000000000E+00  0.00000000000E+00  0.60888824306E+03  0.60888824306E+03  0.00000000000E+00 0.  1.
          1   -1    0    0  501    0  0.00000000000E+00 -0.00000000000E+00 -0.24075808175E+02  0.24075808175E+02  0.00000000000E+00 0. -1.
         25    2    1    2    0    0  0.11698650987E+02  0.41172105438E+02  0.24824214801E+03  0.28125480413E+03  0.12509236626E+03 0.  0.
          5    1    3    3  502    0 -0.43882353863E+02  0.12641299790E+02  0.19096445819E+03  0.19639338108E+03  0.41800000000E+01 0. -1.
         -5    1    3    3    0  502  0.55581004850E+02  0.28530805648E+02  0.57277689823E+02  0.84861423053E+02  0.41800000000E+01 0. -1.
        -11    1    1    2    0    0  0.36932475268E+02 -0.69934243440E+01  0.80689472112E+02  0.89015204450E+02  0.00000000000E+00 0. -1.
         11    1    1    2    0    0 -0.48631126255E+02 -0.34178681094E+02  0.25588081476E+03  0.26269404265E+03  0.00000000000E+00 0.  1.
</event>
<event>
 7    1  0.2522928E-009  0.8314986E+02  0.7561462E-02  0.1320343E+00
         -2   -1    0    0    0  501 -0.00000000000E+00  0.00000000000E+00  0.62027357218E+03  0.62027357218E+03  0.00000000000E+00 0. -1.
          2   -1    0    0  501    0  0.00000000000E+00 -0.00000000000E+00 -0.20189336215E+02  0.20189336215E+02  0.00000000000E+00 0.  1.
         25    2    1    2    0    0  0.12731051927E+02  0.11771250127E+02  0.28778253403E+03  0.31427120745E+03  0.12508782086E+03 0.  0.
          5    1    3    3  502    0  0.30808087178E+02  0.41362001016E+02  0.43774891528E+02  0.67776595458E+02  0.41800000000E+01 0. -1.
         -5    1    3    3    0  502 -0.18077035251E+02 -0.29590750889E+02  0.24400764251E+03  0.24649461199E+03  0.41800000000E+01 0. -1.
        -11    1    1    2    0    0  0.83228390165E+01  0.30924429440E+02  0.48433418945E+02  0.58063637986E+02  0.00000000000E+00 0.  1.
         11    1    1    2    0    0 -0.21053890944E+02 -0.42695679567E+02  0.26386828299E+03  0.26812806296E+03  0.00000000000E+00 0. -1.
</event>
<event>
 7    1  0.2522928E-009  0.1271855E+03  0.7561462E-02  0.1231693E+00
          1   -1    0    0  501    0  0.00000000000E+00  0.00000000000E+00  0.31011929970E+03  0.31011929970E+03  0.00000000000E+00 0. -1.
         -1   -1    0    0    0  501 -0.00000000000E+00 -0.00000000000E+00 -0.71060937078E+02  0.71060937078E+02  0.00000000000E+00 0.  1.
         25    2    1    2    0    0 -0.36419739973E+02  0.68532268223E+02  0.45695961420E+02  0.15413800792E+03  0.12508930948E+03 0.  0.
          5    1    3    3  502    0 -0.53164422523E+02 -0.15284897593E+02 -0.32189430687E+01  0.55569037342E+02  0.41800000000E+01 0. -1.
         -5    1    3    3    0  502  0.16744682550E+02  0.83817165816E+02  0.48914904489E+02  0.98568970575E+02  0.41800000000E+01 0. -1.
        -11    1    1    2    0    0 -0.23696821135E+02 -0.40648307878E+02  0.47634063714E+02  0.66953926629E+02  0.00000000000E+00 0. -1.
         11    1    1    2    0    0  0.60116561108E+02 -0.27883960345E+02  0.14572833749E+03  0.16008830223E+03  0.00000000000E+00 0.  1.
</event>
<event>
 7    1  0.2522928E-009  0.1011375E+03  0.7561462E-02  0.1277922E+00
          2   -1    0    0  501    0  0.00000000000E+00  0.00000000000E+00  0.10445445932E+04  0.10445445932E+04  0.00000000000E+00 0. -1.
         -2   -1    0    0    0  501 -0.00000000000E+00 -0.00000000000E+00 -0.14194059862E+02  0.14194059862E+02  0.00000000000E+00 0.  1.
         25    2    1    2    0    0  0.37262904543E+02  0.28012259680E+02  0.76105877268E+03  0.77267062191E+03  0.12504488691E+03 0.  0.
          5    1    3    3  502    0  0.52221691066E+02  0.57426816559E+02  0.28376892580E+03  0.29422307851E+03  0.41800000000E+01 0.  1.
         -5    1    3    3    0  502 -0.14958786523E+02 -0.29414556879E+02  0.47728984688E+03  0.47844754340E+03  0.41800000000E+01 0.  1.
        -11    1    1    2    0    0 -0.44875735632E+02  0.15215946396E+02  0.92773148161E+02  0.10417395880E+03  0.00000000000E+00 0.  1.
         11    1    1    2    0    0  0.76128310897E+01 -0.43228206076E+02  0.17651861253E+03  0.18189407238E+03  0.00000000000E+00 0. -1.
</event>
<event>
 7    1  0.2522928E-009  0.6765281E+02  0.7561462E-02  0.1368262E+00
          1   -1    0    0  501    0  0.00000000000E+00  0.00000000000E+00  0.17343093883E+03  0.17343093883E+03  0.00000000000E+00 0. -1.
         -1   -1    0    0    0  501 -0.00000000000E+00 -0.00000000000E+00 -0.98709675666E+02  0.98709675666E+02  0.00000000000E+00 0.  1.
         25    2    1    2    0    0  0.25298962819E+02 -0.44820230806E+02  0.94129121655E+02  0.16479371069E+03  0.12509110652E+03 0.  0.
          5    1    3    3  502    0  0.40913713586E+02 -0.40224775045E+02 -0.10795466597E+02  0.58531862997E+02  0.41800000000E+01 0. -1.
         -5    1    3    3    0  502 -0.15614750766E+02 -0.45954557602E+01  0.10492458825E+03  0.10626184769E+03  0.41800000000E+01 0. -1.
        -11    1    1    2    0    0  0.23294270686E+00  0.32716326476E+02 -0.53719543997E+02  0.62898344078E+02  0.00000000000E+00 0.  1.
         11    1    1    2    0    0 -0.25531905526E+02  0.12103904329E+02  0.34311685511E+02  0.44448559734E+02  0.00000000000E+00 0. -1.
</event>
<event>
 6    1  0.2522928E-009  0.1266448E+03  0.7561462E-02  0.1232521E+00
         -2   -1    0    0    0  501 -0.00000000000E+00  0.00000000000E+00  0.21760255689E+03  0.21760255689E+03  0.00000000000E+00 0.  1.
          2   -1    0    0  501    0  0.00000000000E+00 -0.00000000000E+00 -0.83598930607E+02  0.83598930607E+02  0.00000000000E+00 0. -1.
          5    1    1    2  502    0 -0.32154645412E+02  0.15204594278E+02  0.47395989332E+00  0.35816168788E+02  0.41800000000E+01 0.  1.
         -5    1    1    2    0  502  0.97891410639E+02 -0.43582355340E+02  0.33780117390E+02  0.11243095083E+03  0.41800000000E+01 0.  1.
        -11    1    1    2    0    0  0.88755484429E+01  0.34265266920E+02  0.11448597178E+02  0.37201535648E+02  0.00000000000E+00 0. -1.
         11    1    1    2    0    0 -0.74612313670E+02 -0.58875058575E+01  0.88300951825E+02  0.11575283223E+03  0.00000000000E+00 0.  1.
</event>
<event>
 7    1  0.2522928E-009  0.1208985E+03  0.7561462E-02  0.1241622E+00
         -1   -1    0    0    0  501 -0.00000000000E+00  0.00000000000E+00  0.22814145105E+02  0.22814145105E+02  0.00000000000E+00 0.  1.
          1   -1    0    0  501    0  0.00000000000E+00 -0.00000000000E+00 -0.79103654515E+03  0.79103654515E+03  0.00000000000E+00 0. -1.
         25    2    1    2    0    0 -0.22837913266E+02  0.69932780640E+02 -0.50413503826E+03  0.52460569951E+03  0.12508732578E+03 0.  0.
          5    1    3    3  502    0 -0.51486518629E+02  0.79896983585E+02 -0.46642975171E+03  0.47603421648E+03  0.41800000000E+01 0.  1.
         -5    1    3    3    0  502  0.28648605363E+02 -0.99642029449E+01 -0.37705286550E+02  0.48571483027E+02  0.41800000000E+01 0.  1.
        -11    1    1    2    0    0  0.52593965206E+02 -0.16927935201E+02 -0.15209600764E+03  0.16182050460E+03  0.00000000000E+00 0.  1.
         11    1    1    2    0    0 -0.29756051940E+02 -0.53004845439E+02 -0.11199135414E+03  0.12742448615E+03  0.00000000000E+00 0. -1.
</event>
<event>
 6    1  0.2522928E-009  0.1408167E+03  0.7561462E-02  0.1212234E+00
         -2   -1    0    0    0  501 -0.00000000000E+00  0.00000000000E+00  0.98841355017E+02  0.98841355017E+02  0.00000000000E+00 0.  1.
          2   -1    0    0  501    0  0.00000000000E+00 -0.00000000000E+00 -0.23299566872E+03  0.23299566872E+03  0.00000000000E+00 0. -1.
          5    1    1    2  502    0 -0.57010647913E+02  0.46205493503E+02 -0.40121689219E+02  0.83739978213E+02  0.41800000000E+01 0. -1.
         -5    1    1    2    0  502  0.68304634565E+02  0.58188295604E+02 -0.41990467897E+02  0.99156808352E+02  0.41800000000E+01 0. -1.
        -11    1    1    2    0    0  0.15105453671E+02 -0.82889062615E+02  0.28983016306E+01  0.84304042514E+02  0.00000000000E+00 0.  1.
         11    1    1    2    0    0 -0.26399440323E+02 -0.21504726491E+02 -0.54940458218E+02  0.64636194659E+02  0.00000000000E+00 0. -1.
</event>
<event>
 7    1  0.2522928E-009  0.1498626E+03  0.7561462E-02  0.1200642E+00
         -3   -1    0    0    0  501 -0.00000000000E+00  0.00000000000E+00  0.98027221028E+02  0.98027221028E+02  0.00000000000E+00 0.  1.
          3   -1    0    0  501    0  0.00000000000E+00 -0.00000000000E+00 -0.29857038937E+03  0.29857038937E+03  0.00000000000E+00 0. -1.
         25    2    1    2    0    0 -0.12765720977E+03  0.87050637545E+01 -0.67183364436E+02  0.19113649926E+03  0.12508963008E+03 0.  0.
          5    1    3    3  502    0 -0.41689628475E+02  0.58599045243E+02 -0.17438465404E+01  0.72058216926E+02  0.41800000000E+01 0. -1.
         -5    1    3    3    0  502 -0.85967581290E+02 -0.49893981489E+02 -0.65439517895E+02  0.11907828234E+03  0.41800000000E+01 0. -1.
        -11    1    1    2    0    0  0.40763427630E+02 -0.65197904687E+01  0.54935843529E+01  0.41645457963E+02  0.00000000000E+00 0.  1.
         11    1    1    2    0    0  0.86893782135E+02 -0.21852732858E+01 -0.13885338826E+03  0.16381565317E+03  0.00000000000E+00 0. -1.
</event>
<event>
 7    1  0.2522928E-009  0.1681972E+03  0.7561462E-02  0.1179741E+00
         -1   -1    0    0    0  501 -0.00000000000E+00  0.00000000000E+00  0.57794782937E+02  0.57794782937E+02  0.00000000000E+00 0.  1.
          1   -1    0    0  501    0  0.00000000000E+00 -0.00000000000E+00 -0.56076142616E+03  0.56076142616E+03  0.00000000000E+00 0. -1.
         25    2    1    2    0    0 -0.80553809506E+02  0.11548452251E+03 -0.22113380284E+03  0.29047123637E+03  0.12509112372E+03 0.  0.
          5    1    3    3  502    0 -0.25588472582E+02 -0.24580598443E+02 -0.26803325815E+02  0.44663927544E+02  0.41800000000E+01 0. -1.
         -5    1    3    3    0  502 -0.54965336924E+02  0.14006512096E+03 -0.19433047703E+03  0.24580730883E+03  0.41800000000E+01 0. -1.
        -11    1    1    2    0    0 -0.69663834940E+01 -0.17108326732E+02 -0.17007612301E+01  0.18550415934E+02  0.00000000000E+00 0.  1.
         11    1    1    2    0    0  0.87520193000E+02 -0.98376195780E+02 -0.28013207915E+03  0.30953455679E+03  0.00000000000E+00 0. -1.
</event>
<event>
 7    1  0.2522928E-009  0.9445200E+02  0.7561462E-02  0.1292415E+00
         -4   -1    0    0    0  501 -0.00000000000E+00  0.00000000000E+00  0.11698379277E+03  0.11698379277E+03  0.00000000000E+00 0.  1.
          4   -1    0    0  501    0  0.00000000000E+00 -0.00000000000E+00 -0.14445205522E+03  0.14445205522E+03  0.00000000000E+00 0. -1.
         25    2    1    2    0    0  0.22309966568E+02 -0.92376590373E+01 -0.83495156030E+02  0.15232234519E+03  0.12509031461E+03 0.  0.
          5    1    3    3  502    0 -0.13400495381E+02  0.50127389448E+02 -0.59097866296E+02  0.78755054759E+02  0.41800000000E+01 0.  1.
         -5    1    3    3    0  502  0.35710461949E+02 -0.59365048485E+02 -0.24397289734E+02  0.73567290426E+02  0.41800000000E+01 0.  1.
        -11    1    1    2    0    0 -0.44416313499E+02  0.32169356634E+01  0.69493133857E+02  0.82537586790E+02  0.00000000000E+00 0.  1.
         11    1    1    2    0    0  0.22106346931E+02  0.60207233739E+01 -0.13466240278E+02  0.26575916011E+02  0.00000000000E+00 0. -1.
</event>
<event>
 7    1  0.2522928E-009  0.1221911E+03  0.7561462E-02  0.1239526E+00
          1   -1    0    0  501    0  0.00000000000E+00  0.00000000000E+00  0.18115306088E+03  0.18115306088E+03  0.00000000000E+00 0. -1.
         -1   -1    0    0    0  501 -0.00000000000E+00 -0.00000000000E+00 -0.16690080026E+03  0.16690080026E+03  0.00000000000E+00 0.  1.
         25    2    1    2    0    0  0.81564855846E+02  0.80449894471E+02 -0.64701451388E+02  0.18154705820E+03  0.12509214724E+03 0.  0.
          5    1    3    3  502    0  0.75064247264E+02  0.58560240465E+02 -0.10074442188E+03  0.13867535441E+03  0.41800000000E+01 0.  1.
         -5    1    3    3    0  502  0.65006085814E+01  0.21889654006E+02  0.36042970490E+02  0.42871703793E+02  0.41800000000E+01 0.  1.
        -11    1    1    2    0    0 -0.71926146351E+02 -0.36082240837E+02  0.89022398466E+02  0.12000119192E+03  0.00000000000E+00 0. -1.
         11    1    1    2    0    0 -0.96387094950E+01 -0.44367653634E+02 -0.10068686455E+02  0.46505611023E+02  0.00000000000E+00 0.  1.
</event>
<event>
 7    1  0.2522928E-009  0.1205752E+03  0.7561462E-02  0.1242151E+00
          1   -1    0    0  501    0  0.00000000000E+00  0.00000000000E+00  0.18334736884E+03  0.18334736884E+03  0.00000000000E+00 0. -1.
         -1   -1    0    0    0  501 -0.00000000000E+00 -0.00000000000E+00 -0.11703877515E+03  0.11703877515E+03  0.00000000000E+00 0.  1.
         25    2    1    2    0    0 -0.39572667928E+02 -0.82341337457E+02  0.79609897429E+00  0.15489865343E+03  0.12508743806E+03 0.  0.
          5    1    3    3  502    0 -0.69311327614E+02 -0.45931695404E+02  0.41089295858E+02  0.92841711598E+02  0.41800000000E+01 0.  1.
         -5    1    3    3    0  502  0.29738659687E+02 -0.36409642054E+02 -0.40293196884E+02  0.62056941832E+02  0.41800000000E+01 0.  1.
        -11    1    1    2    0    0  0.51627694424E+02  0.36314556901E+02 -0.16948487387E+01  0.63142999507E+02  0.00000000000E+00 0.  1.
         11    1    1    2    0    0 -0.12055026496E+02  0.46026780556E+02  0.67207343454E+02  0.82344491050E+02  0.00000000000E+00 0. -1.
</event>
<event>
 7    1  0.2522928E-009  0.1653651E+03  0.7561462E-02  0.1182769E+00
          1   -1    0    0  501    0  0.00000000000E+00  0.00000000000E+00  0.11171754118E+04  0.11171754118E+04  0.00000000000E+00 0. -1.
         -1   -1    0    0    0  501 -0.00000000000E+00 -0.00000000000E+00 -0.31982489358E+02  0.31982489358E+02  0.00000000000E+00 0.  1.
         25    2    1    2    0    0 -0.64277129630E+02 -0.13285834029E+03  0.43107650788E+03  0.47249882533E+03  0.12508115891E+03 0.  0.
          5    1    3    3  502    0 -0.19181208284E+02 -0.11108436922E+03  0.15396226014E+03  0.19086515078E+03  0.41800000000E+01 0. -1.
         -5    1    3    3    0  502 -0.45095921346E+02 -0.21773971071E+02  0.27711424774E+03  0.28163367455E+03  0.41800000000E+01 0. -1.
        -11    1    1    2    0    0  0.54772143186E+02  0.26420272133E+02  0.32463415091E+03  0.33028071452E+03  0.00000000000E+00 0. -1.
         11    1    1    2    0    0  0.95049864440E+01  0.10643806815E+03  0.32948226363E+03  0.34637836129E+03  0.00000000000E+00 0.  1.
</event>
<event>
 7    1  0.2522928E-009  0.1752339E+03  0.7561462E-02  0.1172497E+00
         -1   -1    0    0    0  501 -0.00000000000E+00  0.00000000000E+00  0.13938527720E+03  0.13938527720E+03  0.00000000000E+00 0.  1.
          1   -1    0    0  501    0  0.00000000000E+00 -0.00000000000E+00 -0.23914849228E+03  0.23914849228E+03  0.00000000000E+00 0. -1.
         25    2    1    2    0    0  0.10440753550E+03 -0.10230317413E+03 -0.56075269127E+02  0.20039634449E+03  0.12508951264E+03 0.  0.
          5    1    3    3  502    0  0.51420322746E+02  0.10884495774E+02 -0.53800792224E+02  0.75329406499E+02  0.41800000000E+01 0.  1.
         -5    1    3    3    0  502  0.52987212750E+02 -0.11318766990E+03 -0.22744769030E+01  0.12506693799E+03  0.41800000000E+01 0.  1.
        -11    1    1    2    0    0 -0.14057757125E+02 -0.17624004535E+02 -0.54685365890E+01  0.23197649960E+02  0.00000000000E+00 0.  1.
         11    1    1    2    0    0 -0.90349778372E+02  0.11992717867E+03 -0.38219409357E+02  0.15493977503E+03  0.00000000000E+00 0. -1.
</event>
<event>
 7    1  0.2522928E-009  0.1051879E+03  0.7561462E-02  0.1269750E+00
         -1   -1    0    0    0  501 -0.00000000000E+00  0.00000000000E+00  0.70925845869E+03  0.70925845869E+03  0.00000000000E+00 0.  1.
          1   -1    0    0  501    0  0.00000000000E+00 -0.00000000000E+00 -0.17694773457E+02  0.17694773457E+02  0.00000000000E+00 0. -1.
         25    2    1    2    0    0  0.33470243350E+01 -0.14629164023E+02  0.31565394176E+03  0.33986910108E+03  0.12509348469E+03 0.  0.
          5    1    3    3  502    0 -0.43179962712E+02 -0.45014975748E+02  0.22439172982E+03  0.23293771278E+03  0.41800000000E+01 0.  1.
         -5    1    3    3    0  502  0.46526987047E+02  0.30385811726E+02  0.91262211934E+02  0.10693138831E+03  0.41800000000E+01 0.  1.
        -11    1    1    2    0    0  0.43804851014E+02  0.65008065743E+01  0.19357775127E+03  0.19857862736E+03  0.00000000000E+00 0. -1.
         11    1    1    2    0    0 -0.47151875349E+02  0.81283574483E+01  0.18233199221E+03  0.18850550370E+03  0.00000000000E+00 0.  1.
</event>
<event>
 7    1  0.2522928E-009  0.1142537E+03  0.7561462E-02  0.1252889E+00
          2   -1    0    0  501    0  0.00000000000E+00  0.00000000000E+00  0.35090336415E+02  0.35090336415E+02  0.00000000000E+00 0. -1.
         -2   -1    0    0    0  501 -0.00000000000E+00 -0.00000000000E+00 -0.43818093354E+03  0.43818093354E+03  0.00000000000E+00 0.  1.
         25    2    1    2    0    0  0.49444387256E+02  0.41527722147E+02 -0.21781737279E+03  0.25934541447E+03  0.12508531879E+03 0.  0.
          5    1    3    3  502    0  0.49111708151E+02  0.74527766894E+02 -0.88288689841E+02  0.12561334750E+03  0.41800000000E+01 0. -1.
         -5    1    3    3    0  502  0.33267910476E+00 -0.33000044747E+02 -0.12952868295E+03  0.13373206697E+03  0.41800000000E+01 0. -1.
        -11    1    1    2    0    0  0.35282197633E+01 -0.51808740699E+02 -0.10590804332E+03  0.11795383668E+03  0.00000000000E+00 0.  1.
         11    1    1    2    0    0 -0.52972607019E+02  0.10281018552E+02 -0.79365181011E+02  0.95972018807E+02  0.00000000000E+00 0. -1.
</event>
<event>
 7    1  0.3037277E-009  0.2920481E+03  0.7561462E-02  0.1089285E+00
         -1   -1    0    0    0  501 -0.00000000000E+00  0.00000000000E+00  0.71682586894E+02  0.71682586894E+02  0.00000000000E+00 0.  1.
          1   -1    0    0  501    0  0.00000000000E+00 -0.00000000000E+00 -0.12151007473E+04  0.12151007473E+04  0.00000000000E+00 0. -1.
         25    2    1    2    0    0  0.27361218713E+03 -0.85723915913E+01 -0.55031992544E+03  0.62724550055E+03  0.12509109791E+03 0.  0.
          5    1    3    3  502    0  0.15222623882E+03  0.53882196083E+02 -0.25475130902E+03  0.30164850520E+03  0.41800000000E+01 0. -1.
         -5    1    3    3    0  502  0.12138594831E+03 -0.62454587674E+02 -0.29556861642E+03  0.32559699535E+03  0.41800000000E+01 0. -1.
        -11    1    1    2    0    0 -0.17226273974E+03  0.45414261398E+02 -0.41021410825E+03  0.44722759446E+03  0.00000000000E+00 0. -1.
         11    1    1    2    0    0 -0.10134944739E+03 -0.36841869806E+02 -0.18288412671E+03  0.21231023917E+03  0.00000000000E+00 0.  1.
</event>
<event>
 7    1  0.2522928E-009  0.1075542E+03  0.7561462E-02  0.1265167E+00
          2   -1    0    0  501    0  0.00000000000E+00  0.00000000000E+00  0.90715680918E+03  0.90715680918E+03  0.00000000000E+00 0. -1.
         -2   -1    0    0    0  501 -0.00000000000E+00 -0.00000000000E+00 -0.14395649183E+02  0.14395649183E+02  0.00000000000E+00 0.  1.
         25    2    1    2    0    0 -0.30654201725E+02  0.12805392847E+02  0.49521094239E+03  0.51184488343E+03  0.12509056344E+03 0.  0.
          5    1    3    3  502    0  0.42805994642E+02 -0.73260145022E+01  0.96533010460E+02  0.10593449945E+03  0.41800000000E+01 0.  1.
         -5    1    3    3    0  502 -0.73460196368E+02  0.20131407349E+02  0.39867793193E+03  0.40591038398E+03  0.41800000000E+01 0.  1.
        -11    1    1    2    0    0 -0.23907515935E+02  0.20311126509E+02  0.18976990586E+03  0.19234533617E+03  0.00000000000E+00 0. -1.
         11    1    1    2    0    0  0.54561717660E+02 -0.33116519356E+02  0.20778031175E+03  0.21736223876E+03  0.00000000000E+00 0.  1.
</event>
<event>
 7    1  0.2522928E-009  0.1102662E+03  0.7561462E-02  0.1260078E+00
         -2   -1    0    0    0  501 -0.00000000000E+00  0.00000000000E+00  0.11973608577E+03  0.11973608577E+03  0.00000000000E+00 0.  1.
          2   -1    0    0  501    0  0.00000000000E+00 -0.00000000000E+00 -0.20583080724E+03  0.20583080724E+03  0.00000000000E+00 0. -1.
         25    2    1    2    0    0 -0.60046891049E+02  0.45117176614E+02  0.40092029873E+02  0.15133272880E+03  0.12511209053E+03 0.  0.
          5    1    3    3  502    0 -0.97827858942E+02  0.23180728444E+02  0.37447972476E+02  0.10736600579E+03  0.41800000000E+01 0. -1.
         -5    1    3    3    0  502  0.37780967894E+02  0.21936448170E+02  0.26440573971E+01  0.43966723016E+02  0.41800000000E+01 0. -1.
        -11    1    1    2    0    0  0.47730803688E+02 -0.29419001602E+02 -0.10755411224E+02  0.57091033854E+02  0.00000000000E+00 0.  1.
         11    1    1    2    0    0  0.12316087361E+02 -0.15698175012E+02 -0.11543134012E+03  0.11714313035E+03  0.00000000000E+00 0. -1.
</event>
<event>
 7    1  0.2522928E-009  0.1191776E+03  0.7561462E-02  0.1244460E+00
          1   -1    0    0  501    0  0.00000000000E+00  0.00000000000E+00  0.15429971008E+03  0.15429971008E+03  0.00000000000E+00 0. -1.
         -1   -1    0    0    0  501 -0.00000000000E+00 -0.00000000000E+00 -0.12683803509E+03  0.12683803509E+03  0.00000000000E+00 0.  1.
         25    2    1    2    0    0 -0.31895993133E+02 -0.79564425173E+02  0.18750499294E+02  0.15279843057E+03  0.12509167450E+03 0.  0.
          5    1    3    3  502    0 -0.26967030746E+02 -0.97630025003E+02 -0.25531949760E+02  0.10453800930E+03  0.41800000000E+01 0. -1.
         -5    1    3    3    0  502 -0.49289623874E+01  0.18065599829E+02  0.44282449054E+02  0.48260421275E+02  0.41800000000E+01 0. -1.
        -11    1    1    2    0    0 -0.27453522733E+02  0.27246257789E+02  0.26956284762E+02  0.47145474461E+02  0.00000000000E+00 0. -1.
         11    1    1    2    0    0  0.59349515867E+02  0.52318167385E+02 -0.18245109062E+02  0.81193840141E+02  0.00000000000E+00 0.  1.
</event>
<event>
 7    1  0.2597338E-009  0.1222649E+03  0.7561462E-02  0.1239407E+00
          1   -1    0    0  501    0  0.00000000000E+00  0.00000000000E+00  0.57325209592E+03  0.57325209592E+03  0.00000000000E+00 0. -1.
         -1   -1    0    0    0  501 -0.00000000000E+00 -0.00000000000E+00 -0.47192631998E+02  0.47192631998E+02  0.00000000000E+00 0.  1.
         25    2    1    2    0    0 -0.30563313725E+02 -0.97524315731E+02  0.40938697514E+03  0.44010266899E+03  0.12509018961E+03 0.  0.
          5    1    3    3  502    0 -0.26243155549E+01 -0.88271254394E+02  0.11925497167E+03  0.14845174992E+03  0.41800000000E+01 0.  1.
         -5    1    3    3    0  502 -0.27938998171E+02 -0.92530613372E+01  0.29013200347E+03  0.29165091908E+03  0.41800000000E+01 0.  1.
        -11    1    1    2    0    0  0.49988236783E+02  0.35266964652E+02  0.21250500461E+02  0.64762384007E+02  0.00000000000E+00 0. -1.
         11    1    1    2    0    0 -0.19424923057E+02  0.62257351079E+02  0.95421988324E+02  0.11557967492E+03  0.00000000000E+00 0.  1.
</event>
<event>
 7    1  0.2522928E-009  0.1893998E+03  0.7561462E-02  0.1159004E+00
          1   -1    0    0  501    0  0.00000000000E+00  0.00000000000E+00  0.86936198198E+02  0.86936198198E+02  0.00000000000E+00 0. -1.
         -1   -1    0    0    0  501 -0.00000000000E+00 -0.00000000000E+00 -0.57037697328E+03  0.57037697328E+03  0.00000000000E+00 0.  1.
         25    2    1    2    0    0  0.14619088130E+03  0.84175731681E+02 -0.10956172398E+03  0.23687465233E+03  0.12509397257E+03 0.  0.
          5    1    3    3  502    0 -0.18564777786E+02  0.29584217726E+02 -0.28477840143E+02  0.45258553798E+02  0.41800000000E+01 0. -1.
         -5    1    3    3    0  502  0.16475565909E+03  0.54591513956E+02 -0.81083883838E+02  0.19161609853E+03  0.41800000000E+01 0. -1.
        -11    1    1    2    0    0 -0.98459295183E+02 -0.67803379604E+02 -0.33800936606E+03  0.35852735270E+03  0.00000000000E+00 0.  1.
         11    1    1    2    0    0 -0.47731586117E+02 -0.16372352078E+02 -0.35869685041E+02  0.61911166446E+02  0.00000000000E+00 0. -1.
</event>
<event>
 7    1  0.2522928E-009  0.8495042E+02  0.7561462E-02  0.1315562E+00
          1   -1    0    0  501    0  0.00000000000E+00  0.00000000000E+00  0.44972112164E+02  0.44972112164E+02  0.00000000000E+00 0. -1.
         -1   -1    0    0    0  501 -0.00000000000E+00 -0.00000000000E+00 -0.36007970569E+03  0.36007970569E+03  0.00000000000E+00 0.  1.
         25    2    1    2    0    0  0.48240381670E+02  0.46188047331E+02 -0.16981289393E+03  0.22123366105E+03  0.12508974258E+03 0.  0.
          5    1    3    3  502    0  0.66225814896E+02  0.49349202505E+02 -0.18129247254E+03  0.19926272945E+03  0.41800000000E+01 0.  1.
         -5    1    3    3    0  502 -0.17985433226E+02 -0.31611551736E+01  0.11479578615E+02  0.21970931604E+02  0.41800000000E+01 0.  1.
        -11    1    1    2    0    0 -0.25618935686E+02 -0.34606279920E+02 -0.15163139734E+03  0.15762615625E+03  0.00000000000E+00 0.  1.
         11    1    1    2    0    0 -0.22621445984E+02 -0.11581767411E+02  0.63366977374E+01  0.26192000553E+02  0.00000000000E+00 0. -1.
</event>
<event>
 7    1  0.2522928E-009  0.1078659E+03  0.7561462E-02  0.1264574E+00
          2   -1    0    0  501    0  0.00000000000E+00  0.00000000000E+00  0.49432844620E+03  0.49432844620E+03  0.00000000000E+00 0.  1.
         -2   -1    0    0    0  501 -0.00000000000E+00 -0.00000000000E+00 -0.64462678032E+02  0.64462678032E+02  0.00000000000E+00 0. -1.
         25    2    1    2    0    0  0.55901206497E+02  0.49674196872E+02  0.41488204703E+03  0.43973237487E+03  0.12507988583E+03 0.  0.
          5    1    3    3  502    0 -0.29164856960E+02 -0.11574062603E+02  0.43371158871E+02  0.53694297913E+02  0.41800000000E+01 0. -1.
         -5    1    3    3    0  502  0.85066063457E+02  0.61248259476E+02  0.37151088816E+03  0.38603807696E+03  0.41800000000E+01 0. -1.
        -11    1    1    2    0    0 -0.20156633866E+02 -0.35291982323E+02 -0.36586731883E+02  0.54684576025E+02  0.00000000000E+00 0. -1.
         11    1    1    2    0    0 -0.35744572631E+02 -0.14382214549E+02  0.51570453023E+02  0.64374173338E+02  0.00000000000E+00 0.  1.
</event>
<event>
 7    1  0.2522928E-009  0.1128379E+03  0.7561462E-02  0.1255403E+00
          3   -1    0    0  501    0  0.00000000000E+00  0.00000000000E+00  0.47910700966E+02  0.47910700966E+02  0.00000000000E+00 0. -1.
         -3   -1    0    0    0  501 -0.00000000000E+00 -0.00000000000E+00 -0.34452476066E+03  0.34452476066E+03  0.00000000000E+00 0.  1.
         25    2    1    2    0    0 -0.20102936504E+02 -0.54671163455E+02 -0.10749585819E+03  0.17491867262E+03  0.12509243915E+03 0.  0.
          5    1    3    3  502    0 -0.65149184047E+02 -0.61412723068E+02 -0.54433933084E+02  0.10486402723E+03  0.41800000000E+01 0. -1.
         -5    1    3    3    0  502  0.45046247543E+02  0.67415596130E+01 -0.53061925107E+02  0.70054645383E+02  0.41800000000E+01 0. -1.
        -11    1    1    2    0    0 -0.21383564951E+02 -0.36424480957E+00 -0.11227680629E+03  0.11429554127E+03  0.00000000000E+00 0.  1.
         11    1    1    2    0    0  0.41486501455E+02  0.55035408265E+02 -0.76841395213E+02  0.10322124774E+03  0.00000000000E+00 0. -1.
</event>
<event>
 7    1  0.2522928E-009  0.1368890E+03  0.7561462E-02  0.1217577E+00
          2   -1    0    0  501    0  0.00000000000E+00  0.00000000000E+00  0.54535961873E+03  0.54535961873E+03  0.00000000000E+00 0. -1.
         -2   -1    0    0    0  501 -0.00000000000E+00 -0.00000000000E+00 -0.58819059663E+02  0.58819059663E+02  0.00000000000E+00 0.  1.
         25    2    1    2    0    0  0.48662402287E+01  0.27888745782E+02  0.36687408635E+03  0.38864529592E+03  0.12508840225E+03 0.  0.
          5    1    3    3  502    0 -0.53375673930E+02  0.31611423524E+02  0.12263623201E+03  0.13749677257E+03  0.41800000000E+01 0. -1.
         -5    1    3    3    0  502  0.58241914158E+02 -0.37226777420E+01  0.24423785433E+03  0.25114852335E+03  0.41800000000E+01 0. -1.
        -11    1    1    2    0    0 -0.62402498135E+02  0.31928021058E+02  0.11207477838E+03  0.13219011404E+03  0.00000000000E+00 0. -1.
         11    1    1    2    0    0  0.57536257906E+02 -0.59816766840E+02  0.75916943444E+01  0.83343268427E+02  0.00000000000E+00 0.  1.
</event>
<event>
 7    1  0.2522928E-009  0.1167994E+03  0.7561462E-02  0.1248472E+00
         -2   -1    0    0    0  501 -0.00000000000E+00  0.00000000000E+00  0.98345251362E+01  0.98345251362E+01  0.00000000000E+00 0.  1.
          2   -1    0    0  501    0  0.00000000000E+00 -0.00000000000E+00 -0.15626025112E+04  0.15626025112E+04  0.00000000000E+00 0. -1.
         25    2    1    2    0    0 -0.22667023672E+02 -0.47990296165E+02 -0.10515889352E+04  0.10603319854E+04  0.12509103929E+03 0.  0.
          5    1    3    3  502    0 -0.57002499404E+02  0.13689181429E+02 -0.32162867390E+03  0.32695436210E+03  0.41800000000E+01 0. -1.
         -5    1    3    3    0  502  0.34335475732E+02 -0.61679477594E+02 -0.72996026131E+03  0.73337762329E+03  0.41800000000E+01 0. -1.
        -11    1    1    2    0    0  0.53337764955E+02  0.83451118066E+01 -0.29673843619E+03  0.30160944543E+03  0.00000000000E+00 0.  1.
         11    1    1    2    0    0 -0.30670741283E+02  0.39645184359E+02 -0.20444061467E+03  0.21049560551E+03  0.00000000000E+00 0. -1.
</event>
<event>
 7    1  0.2522928E-009  0.1067395E+03  0.7561462E-02  0.1266730E+00
          2   -1    0    0  501    0  0.00000000000E+00  0.00000000000E+00  0.28691512438E+03  0.28691512438E+03  0.00000000000E+00 0.  1.
         -2   -1    0    0    0  501 -0.00000000000E+00 -0.00000000000E+00 -0.62011950004E+02  0.62011950004E+02  0.00000000000E+00 0. -1.
         25    2    1    2    0    0  0.58207834924E+02  0.45570893435E+02  0.14625604480E+03  0.20616064979E+03  0.12508606841E+03 0.  0.
          5    1    3    3  502    0 -0.29525638268E+02  0.36269146117E+02  0.89800440513E+02  0.10133511628E+03  0.41800000000E+01 0. -1.
         -5    1    3    3    0  502  0.87733473192E+02  0.93017473182E+01  0.56455604282E+02  0.10482553351E+03  0.41800000000E+01 0. -1.
        -11    1    1    2    0    0 -0.36307727969E+02 -0.12233127275E+02 -0.14870243414E+02  0.41097745101E+02  0.00000000000E+00 0. -1.
         11    1    1    2    0    0 -0.21900106955E+02 -0.33337766160E+02  0.93517372991E+02  0.10166867949E+03  0.00000000000E+00 0.  1.
</event>
<event>
 7    1  0.2522928E-009  0.1257077E+03  0.7561462E-02  0.1233967E+00
          1   -1    0    0  501    0  0.00000000000E+00  0.00000000000E+00  0.21655128134E+03  0.21655128134E+03  0.00000000000E+00 0.  1.
         -1   -1    0    0    0  501 -0.00000000000E+00 -0.00000000000E+00 -0.26866597484E+03  0.26866597484E+03  0.00000000000E+00 0. -1.
         25    2    1    2    0    0  0.10576695227E+03  0.29122403622E+02  0.15901645215E+03  0.23014060058E+03  0.12507478323E+03 0.  0.
          5    1    3    3  502    0  0.40992463615E+02  0.29090140648E+02 -0.78941842407E+01  0.51053000901E+02  0.41800000000E+01 0. -1.
         -5    1    3    3    0  502  0.64774488653E+02  0.32262973204E-01  0.16691063639E+03  0.17908759968E+03  0.41800000000E+01 0. -1.
        -11    1    1    2    0    0 -0.69432534474E+02 -0.57351140295E+02 -0.98782625217E+02  0.13367137757E+03  0.00000000000E+00 0. -1.
         11    1    1    2    0    0 -0.36334417794E+02  0.28228736673E+02 -0.11234852043E+03  0.12140527803E+03  0.00000000000E+00 0.  1.
</event>
<event>
 7    1  0.2522928E-009  0.1079533E+03  0.7561462E-02  0.1264408E+00
         -2   -1    0    0    0  501 -0.00000000000E+00  0.00000000000E+00  0.20368088342E+02  0.20368088342E+02  0.00000000000E+00 0.  1.
          2   -1    0    0  501    0  0.00000000000E+00 -0.00000000000E+00 -0.63151221792E+03  0.63151221792E+03  0.00000000000E+00 0. -1.
         25    2    1    2    0    0 -0.90666709979E+01 -0.10844267359E+01 -0.27112550393E+03  0.29873204511E+03  0.12509362650E+03 0.  0.
          5    1    3    3  502    0 -0.64677400375E+02 -0.28926927524E-01 -0.10397960797E+03  0.12252509224E+03  0.41800000000E+01 0.  1.
         -5    1    3    3    0  502  0.55610729377E+02 -0.10554998084E+01 -0.16714589597E+03  0.17620695287E+03  0.41800000000E+01 0.  1.
        -11    1    1    2    0    0 -0.33663013223E+02 -0.27868447490E+02 -0.16324180060E+03  0.16899033785E+03  0.00000000000E+00 0.  1.
         11    1    1    2    0    0  0.42729684221E+02  0.28952874226E+02 -0.17677682505E+03  0.18415792330E+03  0.00000000000E+00 0. -1.
</event>
<event>
 7    1  0.2522928E-009  0.1575866E+03  0.7561462E-02  0.1191449E+00
          3   -1    0    0  501    0  0.00000000000E+00  0.00000000000E+00  0.45786246466E+03  0.45786246466E+03  0.00000000000E+00 0. -1.
         -3   -1    0    0    0  501 -0.00000000000E+00 -0.00000000000E+00 -0.74256222761E+02  0.74256222761E+02  0.00000000000E+00 0.  1.
         25    2    1    2    0    0 -0.39986272984E+02  0.12446541596E+03  0.10178198045E+03  0.20760083996E+03  0.12509194783E+03 0.  0.
          5    1    3    3  502    0 -0.41265454742E+02  0.14002934103E+02  0.85236039634E+02  0.95820534183E+02  0.41800000000E+01 0. -1.
         -5    1    3    3    0  502  0.12791817575E+01  0.11046248185E+03  0.16545940817E+02  0.11178030578E+03  0.41800000000E+01 0. -1.
        -11    1    1    2    0    0  0.14212590150E+02  0.14032121110E+02  0.37625732425E+02  0.42598050215E+02  0.00000000000E+00 0.  1.
         11    1    1    2    0    0  0.25773682834E+02 -0.13849753707E+03  0.24419852902E+03  0.28191979724E+03  0.00000000000E+00 0. -1.
</event>
<event>
 6    1  0.2522928E-009  0.1110747E+03  0.7561462E-02  0.1258593E+00
          2   -1    0    0  501    0  0.00000000000E+00  0.00000000000E+00  0.39370679163E+03  0.39370679163E+03  0.00000000000E+00 0. -1.
         -2   -1    0    0    0  501 -0.00000000000E+00 -0.00000000000E+00 -0.44341717973E+02  0.44341717973E+02  0.00000000000E+00 0.  1.
          5    1    1    2  502    0 -0.72929853979E+02  0.41114323737E+02  0.14944716685E+03  0.17135074933E+03  0.41800000000E+01 0.  1.
         -5    1    1    2    0  502  0.19305361204E+02 -0.45850301072E+02  0.13581259089E+03  0.14469788984E+03  0.41800000000E+01 0.  1.
        -11    1    1    2    0    0  0.30984848915E+02  0.37456330687E+02  0.25164431605E+01  0.48676175456E+02  0.00000000000E+00 0.  1.
         11    1    1    2    0    0  0.22639643860E+02 -0.32720353352E+02  0.61588872767E+02  0.73323694986E+02  0.00000000000E+00 0. -1.
</event>
<event>
 7    1  0.2522928E-009  0.8251576E+02  0.7561462E-02  0.1322060E+00
         -1   -1    0    0    0  501 -0.00000000000E+00  0.00000000000E+00  0.16297997445E+02  0.16297997445E+02  0.00000000000E+00 0.  1.
          1   -1    0    0  501    0  0.00000000000E+00 -0.00000000000E+00 -0.72770549958E+03  0.72770549958E+03  0.00000000000E+00 0. -1.
         25    2    1    2    0    0 -0.45681023615E+01 -0.65428728527E+01 -0.42449610914E+03  0.44261681859E+03  0.12509606181E+03 0.  0.
          5    1    3    3  502    0 -0.20282368217E+02  0.34279316983E+02 -0.43629424189E+02  0.59223686886E+02  0.41800000000E+01 0. -1.
         -5    1    3    3    0  502  0.15714265856E+02 -0.40822189835E+02 -0.38086668495E+03  0.38339313170E+03  0.41800000000E+01 0. -1.
        -11    1    1    2    0    0 -0.30565821757E+02  0.26656884173E+02 -0.71478834261E+02  0.82183226274E+02  0.00000000000E+00 0.  1.
         11    1    1    2    0    0  0.35133924118E+02 -0.20114011320E+02 -0.21543255874E+03  0.21920345217E+03  0.00000000000E+00 0. -1.
</event>
<event>
 7    1  0.2522928E-009  0.1033605E+03  0.7561462E-02  0.1273384E+00
          2   -1    0    0  501    0  0.00000000000E+00  0.00000000000E+00  0.12577959404E+04  0.12577959404E+04  0.00000000000E+00 0. -1.
         -2   -1    0    0    0  501 -0.00000000000E+00 -0.00000000000E+00 -0.23139880318E+02  0.23139880318E+02  0.00000000000E+00 0.  1.
         25    2    1    2    0    0 -0.34679830145E+02  0.59254776118E+02  0.10772230393E+04  0.10866326355E+04  0.12508872397E+03 0.  0.
          5    1    3    3  502    0 -0.40509757061E+02 -0.22035256989E+01  0.10812336195E+03  0.11555963717E+03  0.41800000000E+01 0.  1.
         -5    1    3    3    0  502  0.58299269159E+01  0.61458301817E+02  0.96909967737E+03  0.97107299828E+03  0.41800000000E+01 0.  1.
        -11    1    1    2    0    0 -0.21734964217E+02 -0.37996701479E+02  0.10733291047E+03  0.11591596811E+03  0.00000000000E+00 0. -1.
         11    1    1    2    0    0  0.56414794362E+02 -0.21258074639E+02  0.50100110239E+02  0.78387217110E+02  0.00000000000E+00 0.  1.
</event>
<event>
 7    1  0.2522928E-009  0.1024531E+03  0.7561462E-02  0.1275220E+00
         -4   -1    0    0    0  501 -0.00000000000E+00  0.00000000000E+00  0.23116556577E+03  0.23116556577E+03  0.00000000000E+00 0.  1.
          4   -1    0    0  501    0  0.00000000000E+00 -0.00000000000E+00 -0.66545604617E+02  0.66545604617E+02  0.00000000000E+00 0. -1.
         25    2    1    2    0    0  0.24864804216E+01  0.14004089860E+02  0.20519252900E+02  0.12755842347E+03  0.12509122487E+03 0.  0.
          5    1    3    3  502    0 -0.54470157721E+02  0.34754914449E+02  0.15570145935E+02  0.66594324120E+02  0.41800000000E+01 0.  1.
         -5    1    3    3    0  502  0.56956638143E+02 -0.20750824588E+02  0.49491069647E+01  0.60964099349E+02  0.41800000000E+01 0.  1.
        -11    1    1    2    0    0  0.16322352058E+02 -0.42344070908E+02  0.12047561273E+03  0.12873932104E+03  0.00000000000E+00 0.  1.
         11    1    1    2    0    0 -0.18808832479E+02  0.28339981047E+02  0.23625095524E+02  0.41413425885E+02  0.00000000000E+00 0. -1.
</event>
<event>
 6    1  0.2522928E-009  0.2721569E+03  0.7561462E-02  0.1100051E+00
          1   -1    0    0  501    0  0.00000000000E+00  0.00000000000E+00  0.94335431713E+03  0.94335431713E+03  0.00000000000E+00 0. -1.
         -1   -1    0    0    0  501 -0.00000000000E+00 -0.00000000000E+00 -0.92453336719E+02  0.92453336719E+02  0.00000000000E+00 0.  1.
          5    1    1    2  502    0  0.11574838973E+03 -0.16792885472E+03  0.34464259386E+03  0.40049192236E+03  0.41800000000E+01 0.  1.
         -5    1    1    2    0  502 -0.18635637200E+02 -0.73256533746E+02  0.23789800637E+03  0.24965324061E+03  0.41800000000E+01 0.  1.
        -11    1    1    2    0    0 -0.84974963179E+02  0.14817610050E+03  0.22455961237E+03  0.28214166767E+03  0.00000000000E+00 0. -1.
         11    1    1    2    0    0 -0.12137789357E+02  0.93009287959E+02  0.43800767804E+02  0.10352082321E+03  0.00000000000E+00 0.  1.
</event>
<event>
 7    1  0.2522928E-009  0.9842028E+02  0.7561462E-02  0.1283653E+00
          2   -1    0    0  501    0  0.00000000000E+00  0.00000000000E+00  0.25205266370E+03  0.25205266370E+03  0.00000000000E+00 0. -1.
         -2   -1    0    0    0  501 -0.00000000000E+00 -0.00000000000E+00 -0.66808430199E+02  0.66808430199E+02  0.00000000000E+00 0.  1.
         25    2    1    2    0    0  0.47027092230E+00  0.42728874173E+02  0.17112169018E+03  0.21623104739E+03  0.12508898896E+03 0.  0.
          5    1    3    3  502    0 -0.32233030298E+02 -0.30186533904E+02  0.99083198288E+02  0.10855941992E+03  0.41800000000E+01 0. -1.
         -5    1    3    3    0  502  0.32703301220E+02  0.72915408077E+02  0.72038491896E+02  0.10767162746E+03  0.41800000000E+01 0. -1.
        -11    1    1    2    0    0 -0.26136966549E+02 -0.38368473345E+02 -0.27187958925E+02  0.53800240499E+02  0.00000000000E+00 0.  1.
         11    1    1    2    0    0  0.25666695627E+02 -0.43604008285E+01  0.41310502245E+02  0.48829806015E+02  0.00000000000E+00 0. -1.
</event>
<event>
 7    1  0.2522928E-009  0.8077381E+02  0.7561462E-02  0.1326870E+00
         -2   -1    0    0    0  501 -0.00000000000E+00  0.00000000000E+00  0.53088957295E+02  0.53088957295E+02  0.00000000000E+00 0.  1.
          2   -1    0    0  501    0  0.00000000000E+00 -0.00000000000E+00 -0.29145467710E+03  0.29145467710E+03  0.00000000000E+00 0. -1.
         25    2    1    2    0    0 -0.18570552958E+02  0.24312477467E+02 -0.63256568548E+02  0.14347180629E+03  0.12508718454E+03 0.  0.
          5    1    3    3  502    0 -0.39094946315E+02  0.14634670521E+02  0.27279180513E+02  0.50042127234E+02  0.41800000000E+01 0. -1.
         -5    1    3    3    0  502  0.20524393357E+02  0.96778069457E+01 -0.90535749061E+02  0.93429679053E+02  0.41800000000E+01 0. -1.
        -11    1    1    2    0    0 -0.27928162015E+02  0.18349321626E+02 -0.41275413704E+02  0.53106869745E+02  0.00000000000E+00 0.  1.
         11    1    1    2    0    0  0.46498714973E+02 -0.42661799093E+02 -0.13383373755E+03  0.14796495836E+03  0.00000000000E+00 0. -1.
</event>
<event>
 7    1  0.2522928E-009  0.6892367E+02  0.7561462E-02  0.1363792E+00
         -1   -1    0    0    0  501 -0.00000000000E+00  0.00000000000E+00  0.86012046953E+02  0.86012046953E+02  0.00000000000E+00 0.  1.
          1   -1    0    0  501    0  0.00000000000E+00 -0.00000000000E+00 -0.13802974399E+03  0.13802974399E+03  0.00000000000E+00 0. -1.
         25    2    1    2    0    0 -0.63575771310E+01 -0.81253486658E+01 -0.35527282035E+02  0.13044505909E+03  0.12508911061E+03 0.  0.
          5    1    3    3  502    0 -0.54525616176E+02 -0.14803887577E+02  0.16598531193E+02  0.59035426182E+02  0.41800000000E+01 0.  1.
         -5    1    3    3    0  502  0.48168039045E+02  0.66785389115E+01 -0.52125813227E+02  0.71409632908E+02  0.41800000000E+01 0.  1.
        -11    1    1    2    0    0 -0.83204281517E+01  0.14233493099E+02  0.35547318355E+02  0.39184610406E+02  0.00000000000E+00 0.  1.
         11    1    1    2    0    0  0.14678005283E+02 -0.61081444330E+01 -0.52037733360E+02  0.54412121450E+02  0.00000000000E+00 0. -1.
</event>
<event>
 7    1  0.2522928E-009  0.1205404E+03  0.7561462E-02  0.1242208E+00
         -1   -1    0    0    0  501 -0.00000000000E+00  0.00000000000E+00  0.98211952315E+01  0.98211952315E+01  0.00000000000E+00 0.  1.
          1   -1    0    0  501    0  0.00000000000E+00 -0.00000000000E+00 -0.18505063944E+04  0.18505063944E+04  0.00000000000E+00 0. -1.
         25    2    1    2    0    0  0.35771441202E+02 -0.48750846880E+02 -0.13962058998E+04  0.14031018562E+04  0.12509061967E+03 0.  0.
          5    1    3    3  502    0  0.72887508360E+02 -0.63977633960E+02 -0.88526748430E+03  0.89057381371E+03  0.41800000000E+01 0.  1.
         -5    1    3    3    0  502 -0.37116067159E+02  0.15226787080E+02 -0.51093841553E+03  0.51252804250E+03  0.41800000000E+01 0.  1.
        -11    1    1    2    0    0 -0.47927003536E+01  0.67362506835E+02 -0.34084378946E+03  0.34746966216E+03  0.00000000000E+00 0. -1.
         11    1    1    2    0    0 -0.30978740848E+02 -0.18611659955E+02 -0.10363550993E+03  0.10975607131E+03  0.00000000000E+00 0.  1.
</event>
<event>
 7    1  0.2522928E-009  0.1133900E+03  0.7561462E-02  0.1254418E+00
         -2   -1    0    0    0  501 -0.00000000000E+00  0.00000000000E+00  0.10980204196E+04  0.10980204196E+04  0.00000000000E+00 0. -1.
          2   -1    0    0  501    0  0.00000000000E+00 -0.00000000000E+00 -0.38033672008E+02  0.38033672008E+02  0.00000000000E+00 0.  1.
         25    2    1    2    0    0  0.10930057401E+03 -0.44711256584E+01  0.92526834909E+03  0.94007294525E+03  0.12509603556E+03 0.  0.
          5    1    3    3  502    0  0.49081464094E+02 -0.18562122809E+02  0.78446286447E+03  0.78622706685E+03  0.41800000000E+01 0.  1.
         -5    1    3    3    0  502  0.60219109914E+02  0.14090997151E+02  0.14080548462E+03  0.15384587840E+03  0.41800000000E+01 0.  1.
        -11    1    1    2    0    0 -0.79243787292E+02  0.14312099147E+02  0.28927821677E+02  0.85564203223E+02  0.00000000000E+00 0.  1.
         11    1    1    2    0    0 -0.30056786716E+02 -0.98409734881E+01  0.10579057681E+03  0.11041694312E+03  0.00000000000E+00 0. -1.
</event>
<event>
 7    1  0.2522928E-009  0.3126388E+03  0.7561462E-02  0.1079088E+00
          1   -1    0    0  501    0  0.00000000000E+00  0.00000000000E+00  0.34527222718E+03  0.34527222718E+03  0.00000000000E+00 0. -1.
         -1   -1    0    0    0  501 -0.00000000000E+00 -0.00000000000E+00 -0.29229774011E+03  0.29229774011E+03  0.00000000000E+00 0.  1.
         25    2    1    2    0    0 -0.29357045207E+03 -0.32163858828E+02 -0.16189745591E+02  0.32113501368E+03  0.12508982775E+03 0.  0.
          5    1    3    3  502    0 -0.14977421979E+03  0.44555796776E+02  0.69156627844E+01  0.15646991638E+03  0.41800000000E+01 0. -1.
         -5    1    3    3    0  502 -0.14379623228E+03 -0.76719655603E+02 -0.23105408375E+02  0.16466509730E+03  0.41800000000E+01 0. -1.
        -11    1    1    2    0    0  0.43452767542E+02  0.34992731574E+02  0.29710792273E+02  0.63208903230E+02  0.00000000000E+00 0.  1.
         11    1    1    2    0    0  0.25011768453E+03 -0.28288727464E+01  0.39453440388E+02  0.25322605038E+03  0.00000000000E+00 0. -1.
</event>
<event>
 7    1  0.2522928E-009  0.1148626E+03  0.7561462E-02  0.1251821E+00
         -2   -1    0    0    0  501 -0.00000000000E+00  0.00000000000E+00  0.45682798797E+02  0.45682798797E+02  0.00000000000E+00 0.  1.
          2   -1    0    0  501    0  0.00000000000E+00 -0.00000000000E+00 -0.35160405167E+03  0.35160405167E+03  0.00000000000E+00 0. -1.
         25    2    1    2    0    0  0.39214938169E+02 -0.27844597075E+02 -0.23932875905E+03  0.27429443958E+03  0.12508417850E+03 0.  0.
          5    1    3    3  502    0  0.59130042449E+02  0.29045744063E+02 -0.16980730373E+03  0.18218674477E+03  0.41800000000E+01 0. -1.
         -5    1    3    3    0  502 -0.19915104280E+02 -0.56890341138E+02 -0.69521455319E+02  0.92107694809E+02  0.41800000000E+01 0. -1.
        -11    1    1    2    0    0  0.50550237125E+01  0.52417907270E+02 -0.31100030462E+02  0.61158827344E+02  0.00000000000E+00 0. -1.
         11    1    1    2    0    0 -0.44269961881E+02 -0.24573310195E+02 -0.35492463358E+02  0.61833583546E+02  0.00000000000E+00 0.  1.
</event>
<event>
 7    1  0.2522928E-009  0.1055252E+03  0.7561462E-02  0.1269088E+00
         -1   -1    0    0    0  501 -0.00000000000E+00  0.00000000000E+00  0.55654069051E+02  0.55654069051E+02  0.00000000000E+00 0.  1.
          1   -1    0    0  501    0  0.00000000000E+00 -0.00000000000E+00 -0.23456678156E+03  0.23456678156E+03  0.00000000000E+00 0. -1.
         25    2    1    2    0    0  0.26866301103E+02 -0.20149977760E+02 -0.82646990452E+02  0.15364287139E+03  0.12509111543E+03 0.  0.
          5    1    3    3  502    0 -0.25764700682E+02  0.34550112673E+02 -0.60611777072E+02  0.74490200743E+02  0.41800000000E+01 0. -1.
         -5    1    3    3    0  502  0.52631001785E+02 -0.54700090434E+02 -0.22035213380E+02  0.79152670650E+02  0.41800000000E+01 0. -1.
        -11    1    1    2    0    0 -0.57408218870E+02  0.49806508868E+01 -0.80524336787E+02  0.99018580540E+02  0.00000000000E+00 0. -1.
         11    1    1    2    0    0  0.30541917767E+02  0.15169326874E+02 -0.15741385264E+02  0.37559398673E+02  0.00000000000E+00 0.  1.
</event>
<event>
 7    1  0.2522928E-009  0.2349043E+03  0.7561462E-02  0.1123235E+00
         -2   -1    0    0    0  501 -0.00000000000E+00  0.00000000000E+00  0.19551554675E+03  0.19551554675E+03  0.00000000000E+00 0. -1.
          2   -1    0    0  501    0  0.00000000000E+00 -0.00000000000E+00 -0.33894118553E+03  0.33894118553E+03  0.00000000000E+00 0.  1.
         25    2    1    2    0    0  0.86332504941E+02  0.19735516419E+03 -0.16409104901E+03  0.29828676291E+03  0.12508700301E+03 0.  0.
          5    1    3    3  502    0 -0.11995855971E+02  0.12272341137E+03 -0.10179269756E+03  0.15995049839E+03  0.41800000000E+01 0. -1.
         -5    1    3    3    0  502  0.98328360913E+02  0.74631752814E+02 -0.62298351449E+02  0.13833626452E+03  0.41800000000E+01 0. -1.
        -11    1    1    2    0    0 -0.25490666038E+02 -0.12669424591E+02 -0.23331202325E+02  0.36805344401E+02  0.00000000000E+00 0.  1.
         11    1    1    2    0    0 -0.60841838903E+02 -0.18468573960E+03  0.43996612557E+02  0.19936462497E+03  0.00000000000E+00 0. -1.
</event>
<event>
 7    1  0.2522928E-009  0.1166087E+03  0.7561462E-02  0.1248799E+00
          2   -1    0    0  501    0  0.00000000000E+00  0.00000000000E+00  0.78377784940E+03  0.78377784940E+03  0.00000000000E+00 0. -1.
         -2   -1    0    0    0  501 -0.00000000000E+00 -0.00000000000E+00 -0.21806439659E+02  0.21806439659E+02  0.00000000000E+00 0.  1.
         25    2    1    2    0    0  0.58065935155E+02  0.36509938292E+02  0.50164204286E+03  0.52153312471E+03  0.12508969815E+03 0.  0.
          5    1    3    3  502    0 -0.25579360346E+02 -0.24150249748E+02  0.18722413017E+03  0.19054628193E+03  0.41800000000E+01 0. -1.
         -5    1    3    3    0  502  0.83645295501E+02  0.60660188040E+02  0.31441791269E+03  0.33098684278E+03  0.41800000000E+01 0. -1.
        -11    1    1    2    0    0 -0.54485765873E+01 -0.41196645873E+02  0.19815575732E+03  0.20246618181E+03  0.00000000000E+00 0. -1.
         11    1    1    2    0    0 -0.52617358568E+02  0.46867075809E+01  0.62173609562E+02  0.81584982543E+02  0.00000000000E+00 0.  1.
</event>
<event>
 7    1  0.2522928E-009  0.1984317E+03  0.7561462E-02  0.1151069E+00
          2   -1    0    0  501    0  0.00000000000E+00  0.00000000000E+00  0.11072878696E+04  0.11072878696E+04  0.00000000000E+00 0. -1.
         -2   -1    0    0    0  501 -0.00000000000E+00 -0.00000000000E+00 -0.41895951224E+02  0.41895951224E+02  0.00000000000E+00 0.  1.
         25    2    1    2    0    0 -0.15574199170E+03 -0.90019510974E+02  0.42074630859E+03  0.47437656652E+03  0.12508633152E+03 0.  0.
          5    1    3    3  502    0 -0.36307394681E+02 -0.90311649292E+02  0.15626969605E+03  0.18415241299E+03  0.41800000000E+01 0.  1.
         -5    1    3    3    0  502 -0.11943459702E+03  0.29213831748E+00  0.26447661255E+03  0.29022415353E+03  0.41800000000E+01 0.  1.
        -11    1    1    2    0    0  0.50274625031E+02  0.26951781541E+02  0.88824282028E+02  0.10556367523E+03  0.00000000000E+00 0.  1.
         11    1    1    2    0    0  0.10546736667E+03  0.63067729434E+02  0.55582132779E+03  0.56924357911E+03  0.00000000000E+00 0. -1.
</event>
<event>
 7    1  0.2522928E-009  0.9792545E+02  0.7561462E-02  0.1284720E+00
         -2   -1    0    0    0  501 -0.00000000000E+00  0.00000000000E+00  0.12093199708E+03  0.12093199708E+03  0.00000000000E+00 0.  1.
          2   -1    0    0  501    0  0.00000000000E+00 -0.00000000000E+00 -0.11297926196E+03  0.11297926196E+03  0.00000000000E+00 0. -1.
         25    2    1    2    0    0 -0.43386130797E+02 -0.42964382333E+01  0.10197172295E+02  0.13287131025E+03  0.12509990823E+03 0.  0.
          5    1    3    3  502    0 -0.55275086018E+02  0.29946302549E+02  0.48844481170E+02  0.79720586497E+02  0.41800000000E+01 0. -1.
         -5    1    3    3    0  502  0.11888955221E+02 -0.34242740783E+02 -0.38647308875E+02  0.53150723757E+02  0.41800000000E+01 0. -1.
        -11    1    1    2    0    0  0.37012549996E+02  0.43227796385E+02 -0.16241581013E+02  0.59180741727E+02  0.00000000000E+00 0. -1.
         11    1    1    2    0    0  0.63735808006E+01 -0.38931358151E+02  0.13997143842E+02  0.41859207057E+02  0.00000000000E+00 0.  1.
</event>
<event>
 7    1  0.2522928E-009  0.1223844E+03  0.7561462E-02  0.1239215E+00
          1   -1    0    0  501    0  0.00000000000E+00  0.00000000000E+00  0.65883091876E+03  0.65883091876E+03  0.00000000000E+00 0. -1.
         -1   -1    0    0    0  501 -0.00000000000E+00 -0.00000000000E+00 -0.26021807418E+02  0.26021807418E+02  0.00000000000E+00 0.  1.
         25    2    1    2    0    0  0.55061436939E+02  0.27223632164E+02  0.24275128771E+03  0.27990739298E+03  0.12508826073E+03 0.  0.
          5    1    3    3  502    0  0.69254537412E+02 -0.33120020464E+02  0.14396276125E+03  0.16320501137E+03  0.41800000000E+01 0.  1.
         -5    1    3    3    0  502 -0.14193100474E+02  0.60343652628E+02  0.98788526461E+02  0.11670238161E+03  0.41800000000E+01 0.  1.
        -11    1    1    2    0    0  0.35603463468E+01 -0.44500400886E+02  0.11938449313E+03  0.12745830277E+03  0.00000000000E+00 0.  1.
         11    1    1    2    0    0 -0.58621783285E+02  0.17276768721E+02  0.27067333049E+03  0.27748703042E+03  0.00000000000E+00 0. -1.
</event>
<event>
 7    1  0.2522928E-009  0.1285536E+03  0.7561462E-02  0.1229618E+00
          3   -1    0    0  501    0  0.00000000000E+00  0.00000000000E+00  0.11905468098E+03  0.11905468098E+03  0.00000000000E+00 0. -1.
         -3   -1    0    0    0  501 -0.00000000000E+00 -0.00000000000E+00 -0.15692180159E+03  0.15692180159E+03  0.00000000000E+00 0.  1.
         25    2    1    2    0    0  0.24255133066E+02  0.64909294025E+02 -0.64399862208E+02  0.15683510539E+03  0.12509348544E+03 0.  0.
          5    1    3    3  502    0 -0.17558933166E+02 -0.31670512719E+02 -0.78507047139E+01  0.37288650744E+02  0.41800000000E+01 0. -1.
         -5    1    3    3    0  502  0.41814066231E+02  0.96579806744E+02 -0.56549157494E+02  0.11954645465E+03  0.41800000000E+01 0. -1.
        -11    1    1    2    0    0 -0.17588597009E+01 -0.85089184212E+02  0.13259901954E+02  0.86134127135E+02  0.00000000000E+00 0. -1.
         11    1    1    2    0    0 -0.22496273365E+02  0.20179890187E+02  0.13272839641E+02  0.33007250043E+02  0.00000000000E+00 0.  1.
</event>
<event>
 7    1  0.2522928E-009  0.1425552E+03  0.7561462E-02  0.1209932E+00
          2   -1    0    0  501    0  0.00000000000E+00  0.00000000000E+00  0.27185313749E+03  0.27185313749E+03  0.00000000000E+00 0. -1.
         -2   -1    0    0    0  501 -0.00000000000E+00 -0.00000000000E+00 -0.11749856488E+03  0.11749856488E+03  0.00000000000E+00 0.  1.
         25    2    1    2    0    0  0.10554540374E+03  0.26037719079E+02 -0.17625710689E+02  0.16666120126E+03  0.12508994868E+03 0.  0.
          5    1    3    3  502    0 -0.21824916241E+02  0.11869053134E+02 -0.28426005753E+02  0.37983043510E+02  0.41800000000E+01 0. -1.
         -5    1    3    3    0  502  0.12737031999E+03  0.14168665945E+02  0.10800295064E+02  0.12867815775E+03  0.41800000000E+01 0. -1.
        -11    1    1    2    0    0 -0.80100436460E+02 -0.51874531631E+02  0.15641447043E+03  0.18322809150E+03  0.00000000000E+00 0.  1.
         11    1    1    2    0    0 -0.25444967285E+02  0.25836812551E+02  0.15565812870E+02  0.39462409623E+02  0.00000000000E+00 0. -1.
</event>
<event>
 7    1  0.2522928E-009  0.1007876E+03  0.7561462E-02  0.1278648E+00
          1   -1    0    0  501    0  0.00000000000E+00  0.00000000000E+00  0.89952399866E+03  0.89952399866E+03  0.00000000000E+00 0. -1.
         -1   -1    0    0    0  501 -0.00000000000E+00 -0.00000000000E+00 -0.19576091523E+02  0.19576091523E+02  0.00000000000E+00 0.  1.
         25    2    1    2    0    0  0.38748107003E+02  0.65304549972E+02  0.45279293232E+03  0.47585148312E+03  0.12508834633E+03 0.  0.
          5    1    3    3  502    0  0.11026636304E+02  0.49902604169E+02  0.49431088987E+02  0.71223321809E+02  0.41800000000E+01 0.  1.
         -5    1    3    3    0  502  0.27721470699E+02  0.15401945803E+02  0.40336184333E+03  0.40462816131E+03  0.41800000000E+01 0.  1.
        -11    1    1    2    0    0 -0.29080414423E+02  0.18162329943E+02  0.11836293856E+03  0.12322875458E+03  0.00000000000E+00 0. -1.
         11    1    1    2    0    0 -0.96676925808E+01 -0.83466879915E+02  0.30879203626E+03  0.32001985248E+03  0.00000000000E+00 0.  1.
</event>
<event>
 7    1  0.2522928E-009  0.1417325E+03  0.7561462E-02  0.1211017E+00
          2   -1    0    0  501    0  0.00000000000E+00  0.00000000000E+00  0.13167022721E+04  0.13167022721E+04  0.00000000000E+00 0.  1.
         -2   -1    0    0    0  501 -0.00000000000E+00 -0.00000000000E+00 -0.17928494230E+02  0.17928494230E+02  0.00000000000E+00 0. -1.
         25    2    1    2    0    0 -0.79814516191E+02  0.71666146017E+02  0.78710554293E+03  0.80417022669E+03  0.12509286273E+03 0.  0.
          5    1    3    3  502    0 -0.23610719244E+02  0.99167743776E+02  0.49704812398E+03  0.50741109312E+03  0.41800000000E+01 0. -1.
         -5    1    3    3    0  502 -0.56203796947E+02 -0.27501597759E+02  0.29005741894E+03  0.29675913357E+03  0.41800000000E+01 0. -1.
        -11    1    1    2    0    0  0.81949167201E+02 -0.48011215847E+02  0.48715891970E+03  0.49633109503E+03  0.00000000000E+00 0.  1.
         11    1    1    2    0    0 -0.21346510095E+01 -0.23654930170E+02  0.24509315276E+02  0.34129444642E+02  0.00000000000E+00 0. -1.
</event>
<event>
 7    1  0.2522928E-009  0.1211150E+03  0.7561462E-02  0.1241269E+00
          1   -1    0    0  501    0  0.00000000000E+00  0.00000000000E+00  0.38921027292E+03  0.38921027292E+03  0.00000000000E+00 0. -1.
         -1   -1    0    0    0  501 -0.00000000000E+00 -0.00000000000E+00 -0.66197476227E+02  0.66197476227E+02  0.00000000000E+00 0.  1.
         25    2    1    2    0    0  0.78074802492E+02  0.45918997858E+02  0.69718874087E+02  0.16944742194E+03  0.12508988068E+03 0.  0.
          5    1    3    3  502    0  0.39482594105E+02  0.68841204620E+02 -0.77185085761E+01  0.79843812944E+02  0.41800000000E+01 0.  1.
         -5    1    3    3    0  502  0.38592208387E+02 -0.22922206762E+02  0.77437382663E+02  0.89603608994E+02  0.41800000000E+01 0.  1.
        -11    1    1    2    0    0  0.13705930470E+02  0.24660372235E+01  0.19729944411E+01  0.14065083601E+02  0.00000000000E+00 0.  1.
         11    1    1    2    0    0 -0.91780732962E+02 -0.48385035082E+02  0.25132092817E+03  0.27189524361E+03  0.00000000000E+00 0. -1.
</event>
<event>
 7    1  0.2522928E-009  0.1063998E+03  0.7561462E-02  0.1267386E+00
          3   -1    0    0  501    0  0.00000000000E+00  0.00000000000E+00  0.41304969466E+03  0.41304969466E+03  0.00000000000E+00 0. -1.
         -3   -1    0    0    0  501 -0.00000000000E+00 -0.00000000000E+00 -0.39720259307E+02  0.39720259307E+02  0.00000000000E+00 0.  1.
         25    2    1    2    0    0 -0.30865841108E+02  0.16536526265E+02  0.10304324351E+03  0.16580856746E+03  0.12509362159E+03 0.  0.
          5    1    3    3  502    0 -0.69920912923E+02 -0.22438303084E+02  0.68940267056E+02  0.10080994163E+03  0.41800000000E+01 0. -1.
         -5    1    3    3    0  502  0.39055071815E+02  0.38974829349E+02  0.34102976450E+02  0.64998625832E+02  0.41800000000E+01 0. -1.
        -11    1    1    2    0    0  0.35617134082E+02  0.24097525408E+02  0.67099711490E+02  0.79697190998E+02  0.00000000000E+00 0.  1.
         11    1    1    2    0    0 -0.47512929742E+01 -0.40634051673E+02  0.20318648036E+03  0.20726419551E+03  0.00000000000E+00 0. -1.
</event>
<event>
 7    1  0.2522928E-009  0.1323847E+03  0.7561462E-02  0.1223960E+00
         -4   -1    0    0    0  501 -0.00000000000E+00  0.00000000000E+00  0.25730796667E+03  0.25730796667E+03  0.00000000000E+00 0. -1.
          4   -1    0    0  501    0  0.00000000000E+00 -0.00000000000E+00 -0.10554901840E+03  0.10554901840E+03  0.00000000000E+00 0.  1.
         25    2    1    2    0    0  0.20947493908E+02  0.11474746152E+03  0.37939806598E+02  0.17518870546E+03  0.12508347680E+03 0.  0.
          5    1    3    3  502    0  0.12540693062E+02  0.92153153754E+02 -0.34070681249E+02  0.99135041484E+02  0.41800000000E+01 0.  1.
         -5    1    3    3    0  502  0.84068008459E+01  0.22594307764E+02  0.72010487847E+02  0.76053663973E+02  0.41800000000E+01 0.  1.
        -11    1    1    2    0    0  0.18569652246E+02 -0.10483142116E+03  0.67865918170E+02  0.12625467000E+03  0.00000000000E+00 0.  1.
         11    1    1    2    0    0 -0.39517146154E+02 -0.99160403591E+01  0.45953223498E+02  0.61413609619E+02  0.00000000000E+00 0. -1.
</event>
<event>
 7    1  0.2522928E-009  0.1069671E+03  0.7561462E-02  0.1266292E+00
          1   -1    0    0  501    0  0.00000000000E+00  0.00000000000E+00  0.36822845798E+03  0.36822845798E+03  0.00000000000E+00 0. -1.
         -1   -1    0    0    0  501 -0.00000000000E+00 -0.00000000000E+00 -0.58529827443E+02  0.58529827443E+02  0.00000000000E+00 0.  1.
         25    2    1    2    0    0  0.85049557858E+02  0.30137077722E+02  0.24111827753E+03  0.28622928473E+03  0.12509000333E+03 0.  0.
          5    1    3    3  502    0  0.76659113352E+01 -0.15801376439E+02  0.17131080509E+03  0.17225943815E+03  0.41800000000E+01 0.  1.
         -5    1    3    3    0  502  0.77383646523E+02  0.45938454161E+02  0.69807472448E+02  0.11396984658E+03  0.41800000000E+01 0.  1.
        -11    1    1    2    0    0 -0.17354846303E+02 -0.33803197228E+02  0.61599778545E+02  0.72376650585E+02  0.00000000000E+00 0. -1.
         11    1    1    2    0    0 -0.67694711555E+02  0.36661195063E+01  0.69805744550E+01  0.68152350102E+02  0.00000000000E+00 0.  1.
</event>
<event>
 7    1  0.2522928E-009  0.1167880E+03  0.7561462E-02  0.1248492E+00
          2   -1    0    0  501    0  0.00000000000E+00  0.00000000000E+00  0.19313574151E+02  0.19313574151E+02  0.00000000000E+00 0. -1.
         -2   -1    0    0    0  501 -0.00000000000E+00 -0.00000000000E+00 -0.91845918698E+03  0.91845918698E+03  0.00000000000E+00 0.  1.
         25    2    1    2    0    0  0.27583013587E+02 -0.20249475634E+02 -0.55404212905E+03  0.56901567465E+03  0.12508114698E+03 0.  0.
          5    1    3    3  502    0  0.71700017091E+02 -0.12501773936E+02 -0.21548715037E+03  0.22748488120E+03  0.41800000000E+01 0. -1.
         -5    1    3    3    0  502 -0.44117003504E+02 -0.77477016981E+01 -0.33855497868E+03  0.34153079344E+03  0.41800000000E+01 0. -1.
        -11    1    1    2    0    0 -0.58166386091E+02 -0.23142232506E+02 -0.10006038699E+03  0.11802954054E+03  0.00000000000E+00 0.  1.
         11    1    1    2    0    0  0.30583372505E+02  0.43391708140E+02 -0.24504309679E+03  0.25072754594E+03  0.00000000000E+00 0. -1.
</event>
<event>
 7    1  0.2522928E-009  0.9060154E+02  0.7561462E-02  0.1301401E+00
          1   -1    0    0  501    0  0.00000000000E+00  0.00000000000E+00  0.66581967776E+03  0.66581967776E+03  0.00000000000E+00 0. -1.
         -1   -1    0    0    0  501 -0.00000000000E+00 -0.00000000000E+00 -0.22596292469E+02  0.22596292469E+02  0.00000000000E+00 0.  1.
         25    2    1    2    0    0  0.25692377776E+01  0.13352786666E+02  0.20519529490E+03  0.24070303618E+03  0.12509174505E+03 0.  0.
          5    1    3    3  502    0 -0.42497079951E+02  0.14935956839E+02  0.18978652141E+02  0.49058600144E+02  0.41800000000E+01 0. -1.
         -5    1    3    3    0  502  0.45066317728E+02 -0.15831701727E+01  0.18621664276E+03  0.19164443603E+03  0.41800000000E+01 0. -1.
        -11    1    1    2    0    0  0.37749455242E+02  0.15799904074E+02  0.15317337093E+03  0.15854570288E+03  0.00000000000E+00 0.  1.
         11    1    1    2    0    0 -0.40318693020E+02 -0.29152690740E+02  0.28485471946E+03  0.28916723117E+03  0.00000000000E+00 0. -1.
</event>
<event>
 7    1  0.3090470E-009  0.1066093E+03  0.7561462E-02  0.1266981E+00
          2   -1    0    0  501    0  0.00000000000E+00  0.00000000000E+00  0.40253657640E+03  0.40253657640E+03  0.00000000000E+00 0. -1.
         -2   -1    0    0    0  501 -0.00000000000E+00 -0.00000000000E+00 -0.38776087405E+02  0.38776087405E+02  0.00000000000E+00 0.  1.
         25    2    1    2    0    0 -0.93953792991E+01 -0.60077727621E+02  0.22309699557E+03  0.26291776899E+03  0.12512344827E+03 0.  0.
          5    1    3    3  502    0 -0.22321089317E+02 -0.85120610050E+02  0.86799548284E+02  0.12367450532E+03  0.41800000000E+01 0.  1.
         -5    1    3    3    0  502  0.12925710018E+02  0.25042882429E+02  0.13629744729E+03  0.13924326367E+03  0.41800000000E+01 0.  1.
        -11    1    1    2    0    0  0.26637831483E+02 -0.68607253475E+01  0.77444451105E+01  0.28576564673E+02  0.00000000000E+00 0.  1.
         11    1    1    2    0    0 -0.17242452184E+02  0.66938452969E+02  0.13291904831E+03  0.14981833015E+03  0.00000000000E+00 0. -1.
</event>
<event>
 7    1  0.2522928E-009  0.9101897E+02  0.7561462E-02  0.1300403E+00
          1   -1    0    0  501    0  0.00000000000E+00  0.00000000000E+00  0.28075803168E+03  0.28075803168E+03  0.00000000000E+00 0. -1.
         -1   -1    0    0    0  501 -0.00000000000E+00 -0.00000000000E+00 -0.62120955919E+02  0.62120955919E+02  0.00000000000E+00 0.  1.
         25    2    1    2    0    0  0.67286249227E+02 -0.11333967159E+02  0.75939998420E+02  0.16146317130E+03  0.12509026413E+03 0.  0.
          5    1    3    3  502    0  0.28135211148E+02 -0.50240548846E+02  0.87581837084E+02  0.10489877712E+03  0.41800000000E+01 0.  1.
         -5    1    3    3    0  502  0.39151038079E+02  0.38906581687E+02 -0.11641838664E+02  0.56564394178E+02  0.41800000000E+01 0.  1.
        -11    1    1    2    0    0 -0.38583496464E+02  0.15084045369E+01  0.32978924550E+01  0.38753549235E+02  0.00000000000E+00 0.  1.
         11    1    1    2    0    0 -0.28702752763E+02  0.98255626222E+01  0.13939918488E+03  0.14266226706E+03  0.00000000000E+00 0. -1.
</event>
<event>
 7    1  0.2522928E-009  0.1080118E+03  0.7561462E-02  0.1264297E+00
         -1   -1    0    0    0  501 -0.00000000000E+00  0.00000000000E+00  0.82216321689E+03  0.82216321689E+03  0.00000000000E+00 0.  1.
          1   -1    0    0  501    0  0.00000000000E+00 -0.00000000000E+00 -0.22009833857E+02  0.22009833857E+02  0.00000000000E+00 0. -1.
         25    2    1    2    0    0 -0.39967730237E+02  0.60347249330E+01  0.66881672075E+03  0.68161706931E+03  0.12510869614E+03 0.  0.
          5    1    3    3  502    0 -0.58727593545E+02 -0.39453061654E+02  0.52032550015E+03  0.52513005325E+03  0.41800000000E+01 0. -1.
         -5    1    3    3    0  502  0.18759863308E+02  0.45487786587E+02  0.14849122059E+03  0.15648701605E+03  0.41800000000E+01 0. -1.
        -11    1    1    2    0    0 -0.23313169186E+02  0.16537586423E+02  0.37782974694E+02  0.47376669352E+02  0.00000000000E+00 0.  1.
         11    1    1    2    0    0  0.63280899423E+02 -0.22572311356E+02  0.93553687592E+02  0.11517931209E+03  0.00000000000E+00 0. -1.
</event>
<event>
 7    1  0.2522928E-009  0.1120003E+03  0.7561462E-02  0.1256910E+00
          1   -1    0    0  501    0  0.00000000000E+00  0.00000000000E+00  0.35684943609E+03  0.35684943609E+03  0.00000000000E+00 0. -1.
         -1   -1    0    0    0  501 -0.00000000000E+00 -0.00000000000E+00 -0.58781437126E+02  0.58781437126E+02  0.00000000000E+00 0.  1.
         25    2    1    2    0    0  0.69419022398E+02 -0.61244031972E+02  0.13901204273E+03  0.20866394026E+03  0.12508580983E+03 0.  0.
          5    1    3    3  502    0  0.38665228311E+02 -0.83571677113E+02  0.36301565378E+02  0.99068164133E+02  0.41800000000E+01 0.  1.
         -5    1    3    3    0  502  0.30753794087E+02  0.22327645140E+02  0.10271047735E+03  0.10959577613E+03  0.41800000000E+01 0.  1.
        -11    1    1    2    0    0 -0.32220717027E+02  0.19436216899E+02 -0.75997439366E+00  0.37636666885E+02  0.00000000000E+00 0.  1.
         11    1    1    2    0    0 -0.37198305371E+02  0.41807815073E+02  0.15981593063E+03  0.16933026607E+03  0.00000000000E+00 0. -1.
</event>
<event>
 7    1  0.2522928E-009  0.1938698E+03  0.7561462E-02  0.1155017E+00
          2   -1    0    0  501    0  0.00000000000E+00  0.00000000000E+00  0.41773706245E+03  0.41773706245E+03  0.00000000000E+00 0. -1.
         -2   -1    0    0    0  501 -0.00000000000E+00 -0.00000000000E+00 -0.10519178125E+03  0.10519178125E+03  0.00000000000E+00 0.  1.
         25    2    1    2    0    0  0.90824824171E+02  0.14809228669E+03  0.21342552454E+03  0.30229002585E+03  0.12509328975E+03 0.  0.
          5    1    3    3  502    0  0.12050004033E+03  0.13578610305E+03  0.17794009516E+03  0.25424058560E+03  0.41800000000E+01 0.  1.
         -5    1    3    3    0  502 -0.29675216159E+02  0.12306183636E+02  0.35485429379E+02  0.48049440246E+02  0.41800000000E+01 0.  1.
        -11    1    1    2    0    0 -0.42724442989E+02 -0.72530818248E+02 -0.37185267824E+01  0.84261053078E+02  0.00000000000E+00 0. -1.
         11    1    1    2    0    0 -0.48100381182E+02 -0.75561468439E+02  0.10283828344E+03  0.13637776477E+03  0.00000000000E+00 0.  1.
</event>
<event>
 7    1  0.2651588E-009  0.1465146E+03  0.7561462E-02  0.1204822E+00
          2   -1    0    0  501    0  0.00000000000E+00  0.00000000000E+00  0.92534339637E+03  0.92534339637E+03  0.00000000000E+00 0. -1.
         -2   -1    0    0    0  501 -0.00000000000E+00 -0.00000000000E+00 -0.28417716353E+02  0.28417716353E+02  0.00000000000E+00 0.  1.
         25    2    1    2    0    0  0.55291852614E+01 -0.11938252240E+03  0.49439777756E+03  0.52379141938E+03  0.12508209310E+03 0.  0.
          5    1    3    3  502    0  0.43951405926E+02 -0.33691992339E+01  0.76708083557E+02  0.88570198539E+02  0.41800000000E+01 0. -1.
         -5    1    3    3    0  502 -0.38422220664E+02 -0.11601332317E+03  0.41768969400E+03  0.43522122084E+03  0.41800000000E+01 0. -1.
        -11    1    1    2    0    0  0.17610394162E+02  0.65549209761E+02  0.32910671781E+03  0.33603282071E+03  0.00000000000E+00 0. -1.
         11    1    1    2    0    0 -0.23139579423E+02  0.53833312644E+02  0.73421184650E+02  0.93936872641E+02  0.00000000000E+00 0.  1.
</event>
<event>
 7    1  0.2522928E-009  0.1178845E+03  0.7561462E-02  0.1246628E+00
          1   -1    0    0  501    0  0.00000000000E+00  0.00000000000E+00  0.33691860318E+03  0.33691860318E+03  0.00000000000E+00 0.  1.
         -1   -1    0    0    0  501 -0.00000000000E+00 -0.00000000000E+00 -0.51327495445E+02  0.51327495445E+02  0.00000000000E+00 0. -1.
         25    2    1    2    0    0  0.67291200475E+02  0.54288492710E+02  0.19213532677E+03  0.24502821593E+03  0.12508995445E+03 0.  0.
          5    1    3    3  502    0  0.86549980106E+02  0.79287364865E+02  0.16843493107E+03  0.20534162678E+03  0.41800000000E+01 0. -1.
         -5    1    3    3    0  502 -0.19258779630E+02 -0.24998872155E+02  0.23700395704E+02  0.39686589151E+02  0.41800000000E+01 0. -1.
        -11    1    1    2    0    0 -0.56905853313E+02 -0.46853792360E+02  0.10343233965E+03  0.12701103450E+03  0.00000000000E+00 0.  1.
         11    1    1    2    0    0 -0.10385347162E+02 -0.74347003502E+01 -0.99765586924E+01  0.16206848192E+02  0.00000000000E+00 0. -1.
</event>
<event>
 7    1  0.2522928E-009  0.6835705E+02  0.7561462E-02  0.1365771E+00
         -2   -1    0    0    0  501 -0.00000000000E+00  0.00000000000E+00  0.49783424633E+02  0.49783424633E+02  0.00000000000E+00 0.  1.
          2   -1    0    0  501    0  0.00000000000E+00 -0.00000000000E+00 -0.48530353050E+03  0.48530353050E+03  0.00000000000E+00 0. -1.
         25    2    1    2    0    0  0.30240781935E+02 -0.65618340374E+00 -0.41495323635E+03  0.43445151144E+03  0.12508793693E+03 0.  0.
          5    1    3    3  502    0  0.12176204037E+02 -0.27660728586E+02 -0.39482960922E+03  0.39600665217E+03  0.41800000000E+01 0.  1.
         -5    1    3    3    0  502  0.18064577898E+02  0.27004545182E+02 -0.20123627137E+02  0.38444859270E+02  0.41800000000E+01 0.  1.
        -11    1    1    2    0    0 -0.32914051444E+02 -0.28881195387E+02 -0.44569675920E+02  0.62481311134E+02  0.00000000000E+00 0. -1.
         11    1    1    2    0    0  0.26732695093E+01  0.29537378790E+02  0.24002806407E+02  0.38154132556E+02  0.00000000000E+00 0.  1.
</event>
<event>
 7    1  0.2522928E-009  0.1825389E+03  0.7561462E-02  0.1165368E+00
          1   -1    0    0  501    0  0.00000000000E+00  0.00000000000E+00  0.31022872762E+03  0.31022872762E+03  0.00000000000E+00 0. -1.
         -1   -1    0    0    0  501 -0.00000000000E+00 -0.00000000000E+00 -0.16006636204E+03  0.16006636204E+03  0.00000000000E+00 0.  1.
         25    2    1    2    0    0  0.70038958933E+01  0.15613353424E+03 -0.44992416880E+02  0.20518058168E+03  0.12509203992E+03 0.  0.
          5    1    3    3  502    0  0.56255660148E+02  0.12886429541E+03 -0.15593215703E+02  0.14153206954E+03  0.41800000000E+01 0.  1.
         -5    1    3    3    0  502 -0.49251764255E+02  0.27269238823E+02 -0.29399201177E+02  0.63648512143E+02  0.41800000000E+01 0.  1.
        -11    1    1    2    0    0  0.23398026290E+02 -0.11164977895E+03  0.17217922259E+03  0.20654013040E+03  0.00000000000E+00 0. -1.
         11    1    1    2    0    0 -0.30401922183E+02 -0.44483755288E+02  0.22975559873E+02  0.58574377576E+02  0.00000000000E+00 0.  1.
</event>
<event>
 7    1  0.2522928E-009  0.6403242E+02  0.7561462E-02  0.1381649E+00
          1   -1    0    0  501    0  0.00000000000E+00  0.00000000000E+00  0.24143701655E+02  0.24143701655E+02  0.00000000000E+00 0. -1.
         -1   -1    0    0    0  501 -0.00000000000E+00 -0.00000000000E+00 -0.51920870006E+03  0.51920870006E+03  0.00000000000E+00 0.  1.
         25    2    1    2    0    0 -0.13550867744E+02  0.21234204390E+02 -0.29507128721E+03  0.32147951992E+03  0.12508996657E+03 0.  0.
          5    1    3    3  502    0 -0.18805965697E+02 -0.19508529060E+02 -0.42542293135E+01  0.27745592784E+02  0.41800000000E+01 0.  1.
         -5    1    3    3    0  502  0.52550979531E+01  0.40742733450E+02 -0.29081705790E+03  0.29373392713E+03  0.41800000000E+01 0.  1.
        -11    1    1    2    0    0  0.32337967283E+02 -0.24126697419E+02 -0.19877176283E+03  0.20282518422E+03  0.00000000000E+00 0.  1.
         11    1    1    2    0    0 -0.18787099539E+02  0.28924930288E+01 -0.12219483590E+01  0.19047697572E+02  0.00000000000E+00 0. -1.
</event>
<event>
 7    1  0.2522928E-009  0.1081355E+03  0.7561462E-02  0.1264062E+00
         -2   -1    0    0    0  501 -0.00000000000E+00  0.00000000000E+00  0.19641574119E+03  0.19641574119E+03  0.00000000000E+00 0. -1.
          2   -1    0    0  501    0  0.00000000000E+00 -0.00000000000E+00 -0.90768194568E+02  0.90768194568E+02  0.00000000000E+00 0.  1.
         25    2    1    2    0    0  0.51315799681E+02  0.12930904502E+02  0.11485909863E+03  0.17787622789E+03  0.12508725084E+03 0.  0.
          5    1    3    3  502    0  0.57236457567E+02 -0.47338277645E+02  0.72311919856E+02  0.10374685903E+03  0.41800000000E+01 0.  1.
         -5    1    3    3    0  502 -0.59206578862E+01  0.60269182146E+02  0.42547178777E+02  0.74129368865E+02  0.41800000000E+01 0.  1.
        -11    1    1    2    0    0 -0.48002586095E+02  0.17102681749E+02 -0.41033640870E+02  0.65425604146E+02  0.00000000000E+00 0.  1.
         11    1    1    2    0    0 -0.33132135852E+01 -0.30033586251E+02  0.31822088858E+02  0.43882103717E+02  0.00000000000E+00 0. -1.
</event>
<event>
 7    1  0.2522928E-009  0.1607633E+03  0.7561462E-02  0.1187838E+00
          2   -1    0    0  501    0  0.00000000000E+00  0.00000000000E+00  0.13244740358E+04  0.13244740358E+04  0.00000000000E+00 0. -1.
         -2   -1    0    0    0  501 -0.00000000000E+00 -0.00000000000E+00 -0.25014742210E+02  0.25014742210E+02  0.00000000000E+00 0.  1.
         25    2    1    2    0    0  0.13277103424E+03  0.56119178573E+02  0.80643690983E+03  0.82871344771E+03  0.12509188284E+03 0.  0.
          5    1    3    3  502    0  0.98520969462E+02  0.68967053168E+02  0.75992063720E+03  0.76938916232E+03  0.41800000000E+01 0. -1.
         -5    1    3    3    0  502  0.34250064776E+02 -0.12847874595E+02  0.46516272624E+02  0.59324285395E+02  0.41800000000E+01 0. -1.
        -11    1    1    2    0    0 -0.14704903671E+02 -0.43162952062E+02  0.94440354847E+02  0.10487256670E+03  0.00000000000E+00 0.  1.
         11    1    1    2    0    0 -0.11806613057E+03 -0.12956226511E+02  0.39858202893E+03  0.41590276361E+03  0.00000000000E+00 0. -1.
</event>
<event>
 7    1  0.2522928E-009  0.1130845E+03  0.7561462E-02  0.1254962E+00
         -2   -1    0    0    0  501 -0.00000000000E+00  0.00000000000E+00  0.11195410347E+03  0.11195410347E+03  0.00000000000E+00 0.  1.
          2   -1    0    0  501    0  0.00000000000E+00 -0.00000000000E+00 -0.25291964964E+03  0.25291964964E+03  0.00000000000E+00 0. -1.
         25    2    1    2    0    0  0.52028495025E+02  0.36051849169E+01 -0.20241703772E+03  0.24359832293E+03  0.12509006404E+03 0.  0.
          5    1    3    3  502    0  0.77557247978E+02  0.35107315923E+02 -0.17446411784E+03  0.19417222036E+03  0.41800000000E+01 0. -1.
         -5    1    3    3    0  502 -0.25528752953E+02 -0.31502131006E+02 -0.27952919875E+02  0.49426102566E+02  0.41800000000E+01 0. -1.
        -11    1    1    2    0    0 -0.17943121503E+02 -0.43880949462E+02  0.46567410766E+02  0.66453119418E+02  0.00000000000E+00 0.  1.
         11    1    1    2    0    0 -0.34085373522E+02  0.40275764545E+02  0.14884080774E+02  0.54822310771E+02  0.00000000000E+00 0. -1.
</event>
<event>
 7    1  0.2522928E-009  0.9579867E+02  0.7561462E-02  0.1289387E+00
          2   -1    0    0  501    0  0.00000000000E+00  0.00000000000E+00  0.11998599077E+03  0.11998599077E+03  0.00000000000E+00 0. -1.
         -2   -1    0    0    0  501 -0.00000000000E+00 -0.00000000000E+00 -0.17420091086E+03  0.17420091086E+03  0.00000000000E+00 0.  1.
         25    2    1    2    0    0  0.13883731255E+02 -0.90482516142E+02 -0.59658747908E+02  0.16609198782E+03  0.12509012149E+03 0.  0.
          5    1    3    3  502    0 -0.92231136540E+01 -0.57782060006E+02  0.31395085998E+02  0.66535374868E+02  0.41800000000E+01 0. -1.
         -5    1    3    3    0  502  0.23106844909E+02 -0.32700456136E+02 -0.91053833905E+02  0.99556612950E+02  0.41800000000E+01 0. -1.
        -11    1    1    2    0    0 -0.13128900237E+02  0.38284424285E+02 -0.41442434907E+02  0.57927028021E+02  0.00000000000E+00 0. -1.
         11    1    1    2    0    0 -0.75483101760E+00  0.52198091857E+02  0.46886262727E+02  0.70167885787E+02  0.00000000000E+00 0.  1.
</event>
<event>
 7    1  0.2522928E-009  0.6066237E+02  0.7561462E-02  0.1395073E+00
         -1   -1    0    0    0  501 -0.00000000000E+00  0.00000000000E+00  0.48484145491E+02  0.48484145491E+02  0.00000000000E+00 0.  1.
          1   -1    0    0  501    0  0.00000000000E+00 -0.00000000000E+00 -0.30641649111E+03  0.30641649111E+03  0.00000000000E+00 0. -1.
         25    2    1    2    0    0  0.42247650073E+02  0.31267568717E+02 -0.16133563628E+03  0.21080824110E+03  0.12509357374E+03 0.  0.
          5    1    3    3  502    0  0.34376035303E+02  0.51352307621E+01  0.10672204960E+02  0.36598507577E+02  0.41800000000E+01 0. -1.
         -5    1    3    3    0  502  0.78716147701E+01  0.26132337955E+02 -0.17200784124E+03  0.17420973353E+03  0.41800000000E+01 0. -1.
        -11    1    1    2    0    0 -0.10981430870E+02 -0.24310282151E+02  0.13168738834E+02  0.29748904596E+02  0.00000000000E+00 0.  1.
         11    1    1    2    0    0 -0.31266219204E+02 -0.69572865659E+01 -0.10976544817E+03  0.11434349090E+03  0.00000000000E+00 0. -1.
</event>
<event>
 7    1  0.2522928E-009  0.1940503E+03  0.7561462E-02  0.1154858E+00
          1   -1    0    0  501    0  0.00000000000E+00  0.00000000000E+00  0.15553746014E+03  0.15553746014E+03  0.00000000000E+00 0. -1.
         -1   -1    0    0    0  501 -0.00000000000E+00 -0.00000000000E+00 -0.28139983174E+03  0.28139983174E+03  0.00000000000E+00 0.  1.
         25    2    1    2    0    0  0.12688642148E+03  0.12476969230E+03 -0.52801491976E+02  0.22382326581E+03  0.12506484995E+03 0.  0.
          5    1    3    3  502    0  0.14556855461E+03  0.95028494345E+02 -0.66107832855E+02  0.18603316047E+03  0.41800000000E+01 0.  1.
         -5    1    3    3    0  502 -0.18682133133E+02  0.29741197959E+02  0.13306340879E+02  0.37790105346E+02  0.41800000000E+01 0.  1.
        -11    1    1    2    0    0 -0.73424127677E+02 -0.84264703497E+02 -0.90498167291E+02  0.14381085169E+03  0.00000000000E+00 0.  1.
         11    1    1    2    0    0 -0.53462293802E+02 -0.40504988807E+02  0.17437287669E+02  0.69303174372E+02  0.00000000000E+00 0. -1.
</event>
<event>
 7    1  0.2522928E-009  0.1128059E+03  0.7561462E-02  0.1255460E+00
         -2   -1    0    0    0  501 -0.00000000000E+00  0.00000000000E+00  0.26029233673E+02  0.26029233673E+02  0.00000000000E+00 0.  1.
          2   -1    0    0  501    0  0.00000000000E+00 -0.00000000000E+00 -0.61375356887E+03  0.61375356887E+03  0.00000000000E+00 0. -1.
         25    2    1    2    0    0 -0.61970563875E+02  0.94810308035E+01 -0.30928430480E+03  0.33946120918E+03  0.12508753181E+03 0.  0.
          5    1    3    3  502    0 -0.43487814407E+02  0.51371552866E+02 -0.27209193407E+03  0.28032431117E+03  0.41800000000E+01 0.  1.
         -5    1    3    3    0  502 -0.18482749468E+02 -0.41890522062E+02 -0.37192370731E+02  0.59136898018E+02  0.41800000000E+01 0.  1.
        -11    1    1    2    0    0  0.64950479892E+02  0.30746361928E+02 -0.16694572612E+03  0.18175472230E+03  0.00000000000E+00 0.  1.
         11    1    1    2    0    0 -0.29799160164E+01 -0.40227392732E+02 -0.11149430428E+03  0.11856687106E+03  0.00000000000E+00 0. -1.
</event>
<event>
 7    1  0.2522928E-009  0.1305093E+03  0.7561462E-02  0.1226702E+00
         -4   -1    0    0    0  501 -0.00000000000E+00  0.00000000000E+00  0.12382718886E+03  0.12382718886E+03  0.00000000000E+00 0.  1.
          4   -1    0    0  501    0  0.00000000000E+00 -0.00000000000E+00 -0.17044137545E+03  0.17044137545E+03  0.00000000000E+00 0. -1.
         25    2    1    2    0    0  0.91640492671E+02  0.12249710071E+02 -0.50891269831E+02  0.16365727738E+03  0.12508296367E+03 0.  0.
          5    1    3    3  502    0  0.97495211593E+02 -0.22233829298E+02  0.20042851857E+01  0.10010568919E+03  0.41800000000E+01 0.  1.
         -5    1    3    3    0  502 -0.58547189213E+01  0.34483539370E+02 -0.52895555017E+02  0.63551588191E+02  0.41800000000E+01 0.  1.
        -11    1    1    2    0    0 -0.40963949273E+02 -0.48437003151E+02  0.19763492107E+02  0.66443841208E+02  0.00000000000E+00 0.  1.
         11    1    1    2    0    0 -0.50676543399E+02  0.36187293080E+02 -0.15486408869E+02  0.64167445726E+02  0.00000000000E+00 0. -1.
</event>
<event>
 7    1  0.2522928E-009  0.8583516E+02  0.7561462E-02  0.1313263E+00
          1   -1    0    0  501    0  0.00000000000E+00  0.00000000000E+00  0.44276400305E+03  0.44276400305E+03  0.00000000000E+00 0. -1.
         -1   -1    0    0    0  501 -0.00000000000E+00 -0.00000000000E+00 -0.32677522810E+02  0.32677522810E+02  0.00000000000E+00 0.  1.
         25    2    1    2    0    0  0.38310086817E+02 -0.67361524559E+00  0.29293369603E+03  0.32082034787E+03  0.12508968314E+03 0.  0.
          5    1    3    3  502    0 -0.12477660068E+02 -0.40474184842E+02  0.35595463880E+02  0.55482980167E+02  0.41800000000E+01 0. -1.
         -5    1    3    3    0  502  0.50787746884E+02  0.39800569596E+02  0.25733823215E+03  0.26533736770E+03  0.41800000000E+01 0. -1.
        -11    1    1    2    0    0  0.50788725101E+01 -0.16893218129E+02  0.10470995535E+03  0.10618545340E+03  0.00000000000E+00 0. -1.
         11    1    1    2    0    0 -0.43388959327E+02  0.17566833375E+02  0.12442828858E+02  0.48435724587E+02  0.00000000000E+00 0.  1.
</event>
<event>
 7    1  0.2522928E-009  0.1080267E+03  0.7561462E-02  0.1264268E+00
          1   -1    0    0  501    0  0.00000000000E+00  0.00000000000E+00  0.17980812674E+03  0.17980812674E+03  0.00000000000E+00 0. -1.
         -1   -1    0    0    0  501 -0.00000000000E+00 -0.00000000000E+00 -0.81152280270E+02  0.81152280270E+02  0.00000000000E+00 0.  1.
         25    2    1    2    0    0  0.42369593131E+02 -0.27149526144E+02  0.34403574140E+02  0.13914919245E+03  0.12508642074E+03 0.  0.
          5    1    3    3  502    0  0.32560551134E+02  0.40822467424E+02  0.45587198933E+02  0.69442986999E+02  0.41800000000E+01 0.  1.
         -5    1    3    3    0  502  0.98090419963E+01 -0.67971993568E+02 -0.11183624793E+02  0.69706205448E+02  0.41800000000E+01 0.  1.
        -11    1    1    2    0    0  0.21169625303E+02 -0.75416836343E+01  0.39239482822E+02  0.45219100385E+02  0.00000000000E+00 0. -1.
         11    1    1    2    0    0 -0.63539218434E+02  0.34691209778E+02  0.25012789506E+02  0.76592114176E+02  0.00000000000E+00 0.  1.
</event>
<event>
 7    1  0.2522928E-009  0.1192430E+03  0.7561462E-02  0.1244351E+00
          3   -1    0    0  501    0  0.00000000000E+00  0.00000000000E+00  0.11709404476E+03  0.11709404476E+03  0.00000000000E+00 0. -1.
         -3   -1    0    0    0  501 -0.00000000000E+00 -0.00000000000E+00 -0.19868145942E+03  0.19868145942E+03  0.00000000000E+00 0.  1.
         25    2    1    2    0    0  0.46925815619E+02 -0.71152444681E+02 -0.11045888542E+03  0.18740404961E+03  0.12511758425E+03 0.  0.
          5    1    3    3  502    0 -0.21970498911E+02  0.13811670694E+02  0.66352496857E+01  0.27110219625E+02  0.41800000000E+01 0.  1.
         -5    1    3    3    0  502  0.68896314530E+02 -0.84964115374E+02 -0.11709413510E+03  0.16029382999E+03  0.41800000000E+01 0.  1.
        -11    1    1    2    0    0  0.13580447599E+02  0.12190948386E+02  0.39218508733E+02  0.43256666617E+02  0.00000000000E+00 0. -1.
         11    1    1    2    0    0 -0.60506263218E+02  0.58961496295E+02 -0.10347037976E+02  0.85114787956E+02  0.00000000000E+00 0.  1.
</event>
<event>
 7    1  0.2522928E-009  0.1140890E+03  0.7561462E-02  0.1253180E+00
          1   -1    0    0  501    0  0.00000000000E+00  0.00000000000E+00  0.81377181631E+03  0.81377181631E+03  0.00000000000E+00 0. -1.
         -1   -1    0    0    0  501 -0.00000000000E+00 -0.00000000000E+00 -0.28340638483E+02  0.28340638483E+02  0.00000000000E+00 0.  1.
         25    2    1    2    0    0  0.55092958350E+02 -0.51495128864E+01  0.67800983388E+03  0.69166973245E+03  0.12509169598E+03 0.  0.
          5    1    3    3  502    0  0.85997580763E+02  0.14114027055E+02  0.58869865109E+03  0.59512886323E+03  0.41800000000E+01 0.  1.
         -5    1    3    3    0  502 -0.30904622412E+02 -0.19263539942E+02  0.89311182789E+02  0.96540869214E+02  0.41800000000E+01 0.  1.
        -11    1    1    2    0    0 -0.13674182895E+02  0.44857815219E+02  0.58973463260E+02  0.75346375049E+02  0.00000000000E+00 0.  1.
         11    1    1    2    0    0 -0.41418775456E+02 -0.39708302333E+02  0.48447880688E+02  0.75096347298E+02  0.00000000000E+00 0. -1.
</event>
<event>
 7    1  0.2522928E-009  0.9839396E+02  0.7561462E-02  0.1283710E+00
         -1   -1    0    0    0  501 -0.00000000000E+00  0.00000000000E+00  0.51555387102E+02  0.51555387102E+02  0.00000000000E+00 0.  1.
          1   -1    0    0  501    0  0.00000000000E+00 -0.00000000000E+00 -0.33395489302E+03  0.33395489302E+03  0.00000000000E+00 0. -1.
         25    2    1    2    0    0 -0.70852055879E+02  0.29275818427E+01 -0.19513052310E+03  0.24239029005E+03  0.12509415298E+03 0.  0.
          5    1    3    3  502    0 -0.42752734548E+02 -0.35409668014E+02 -0.17339440674E+02  0.58307542420E+02  0.41800000000E+01 0.  1.
         -5    1    3    3    0  502 -0.28099321331E+02  0.38337249856E+02 -0.17779108242E+03  0.18408274763E+03  0.41800000000E+01 0.  1.
        -11    1    1    2    0    0  0.23371799698E+01 -0.22125681540E+02  0.84949632955E+01  0.23815385682E+02  0.00000000000E+00 0.  1.
         11    1    1    2    0    0  0.68514875909E+02  0.19198099697E+02 -0.95763946116E+02  0.11930460439E+03  0.00000000000E+00 0. -1.
</event>
<event>
 7    1  0.2527456E-009  0.1479608E+03  0.7561462E-02  0.1203001E+00
          2   -1    0    0  501    0  0.00000000000E+00  0.00000000000E+00  0.10275746927E+04  0.10275746927E+04  0.00000000000E+00 0. -1.
         -2   -1    0    0    0  501 -0.00000000000E+00 -0.00000000000E+00 -0.22770603723E+02  0.22770603723E+02  0.00000000000E+00 0.  1.
         25    2    1    2    0    0  0.10307919945E+03  0.28680527386E+02  0.50054924907E+03  0.52691813634E+03  0.12508108431E+03 0.  0.
          5    1    3    3  502    0  0.10928719703E+03 -0.23492494811E+02  0.33541843469E+03  0.35357967628E+03  0.41800000000E+01 0. -1.
         -5    1    3    3    0  502 -0.62079975872E+01  0.52173022197E+02  0.16513081438E+03  0.17333846006E+03  0.41800000000E+01 0. -1.
        -11    1    1    2    0    0  0.81163443828E+01 -0.17877510141E+02  0.27701296268E+02  0.33953530448E+02  0.00000000000E+00 0. -1.
         11    1    1    2    0    0 -0.11119554383E+03 -0.10803017246E+02  0.47655354361E+03  0.48947362960E+03  0.00000000000E+00 0.  1.
</event>
<event>
 7    1  0.2522928E-009  0.8593911E+02  0.7561462E-02  0.1312995E+00
          2   -1    0    0  501    0  0.00000000000E+00  0.00000000000E+00  0.18516513122E+02  0.18516513122E+02  0.00000000000E+00 0. -1.
         -2   -1    0    0    0  501 -0.00000000000E+00 -0.00000000000E+00 -0.66628539511E+03  0.66628539511E+03  0.00000000000E+00 0.  1.
         25    2    1    2    0    0 -0.18173780735E+02 -0.39877329944E+01 -0.39378799672E+03  0.41359042602E+03  0.12506744506E+03 0.  0.
          5    1    3    3  502    0  0.98244288444E+01  0.34259551671E+02 -0.30198721477E+02  0.46900655237E+02  0.41800000000E+01 0. -1.
         -5    1    3    3    0  502 -0.27998209580E+02 -0.38247284666E+02 -0.36358927524E+03  0.36668977078E+03  0.41800000000E+01 0. -1.
        -11    1    1    2    0    0  0.50978926793E+02  0.16067635529E+02 -0.19903592870E+03  0.20608813843E+03  0.00000000000E+00 0.  1.
         11    1    1    2    0    0 -0.32805146058E+02 -0.12079902534E+02 -0.54944956571E+02  0.65123343785E+02  0.00000000000E+00 0. -1.
</event>
<event>
 7    1  0.2522928E-009  0.7627020E+02  0.7561462E-02  0.1339982E+00
          3   -1    0    0  501    0  0.00000000000E+00  0.00000000000E+00  0.28697278420E+03  0.28697278420E+03  0.00000000000E+00 0. -1.
         -3   -1    0    0    0  501 -0.00000000000E+00 -0.00000000000E+00 -0.43207632828E+02  0.43207632828E+02  0.00000000000E+00 0.  1.
         25    2    1    2    0    0  0.31006724044E+02 -0.75158510645E+01  0.12459607040E+03  0.17941493369E+03  0.12509049811E+03 0.  0.
          5    1    3    3  502    0  0.48278467027E+02 -0.64079586528E+00  0.14417050238E+03  0.15209808399E+03  0.41800000000E+01 0. -1.
         -5    1    3    3    0  502 -0.17271742984E+02 -0.68750551992E+01 -0.19574431984E+02  0.27316849693E+02  0.41800000000E+01 0. -1.
        -11    1    1    2    0    0 -0.26289620956E+02 -0.34146619794E+02  0.89705309135E+02  0.99519738245E+02  0.00000000000E+00 0. -1.
         11    1    1    2    0    0 -0.47171030880E+01  0.41662470859E+02  0.29463771846E+02  0.51245745101E+02  0.00000000000E+00 0.  1.
</event>
<event>
 7    1  0.2522928E-009  0.1061825E+03  0.7561462E-02  0.1267807E+00
         -1   -1    0    0    0  501 -0.00000000000E+00  0.00000000000E+00  0.25591198751E+03  0.25591198751E+03  0.00000000000E+00 0.  1.
          1   -1    0    0  501    0  0.00000000000E+00 -0.00000000000E+00 -0.69675558419E+02  0.69675558419E+02  0.00000000000E+00 0. -1.
         25    2    1    2    0    0  0.75405442974E+01 -0.19912942757E+02  0.18317733540E+03  0.22283453827E+03  0.12509160701E+03 0.  0.
          5    1    3    3  502    0 -0.20417743793E+02  0.44448390241E+02  0.11440255277E+03  0.12449080342E+03  0.41800000000E+01 0.  1.
         -5    1    3    3    0  502  0.27958288090E+02 -0.64361332998E+02  0.68774782637E+02  0.98343734854E+02  0.41800000000E+01 0.  1.
        -11    1    1    2    0    0  0.26449287272E+01  0.55703067019E+02 -0.19688769037E+02  0.59139453408E+02  0.00000000000E+00 0. -1.
         11    1    1    2    0    0 -0.10185473025E+02 -0.35790124261E+02  0.22747862721E+02  0.43613554244E+02  0.00000000000E+00 0.  1.
</event>
<event>
 7    1  0.2522928E-009  0.8926040E+02  0.7561462E-02  0.1304653E+00
         -2   -1    0    0    0  501 -0.00000000000E+00  0.00000000000E+00  0.67409405066E+02  0.67409405066E+02  0.00000000000E+00 0. -1.
          2   -1    0    0  501    0  0.00000000000E+00 -0.00000000000E+00 -0.18393970567E+03  0.18393970567E+03  0.00000000000E+00 0.  1.
         25    2    1    2    0    0  0.16168203555E+02  0.20437639355E+02 -0.61356178917E+02  0.14174386217E+03  0.12509050269E+03 0.  0.
          5    1    3    3  502    0 -0.20842694845E+02  0.51176580076E+02  0.92695911478E+01  0.56185923475E+02  0.41800000000E+01 0.  1.
         -5    1    3    3    0  502  0.37010898400E+02 -0.30738940721E+02 -0.70625770065E+02  0.85557938698E+02  0.41800000000E+01 0.  1.
        -11    1    1    2    0    0  0.19366660059E+02  0.15099137409E+02 -0.54016572991E+02  0.59336680309E+02  0.00000000000E+00 0.  1.
         11    1    1    2    0    0 -0.35534863614E+02 -0.35536776765E+02 -0.11575486908E+01  0.50268568250E+02  0.00000000000E+00 0. -1.
</event>
<event>
 7    1  0.2522928E-009  0.1600272E+03  0.7561462E-02  0.1188666E+00
         -1   -1    0    0    0  501 -0.00000000000E+00  0.00000000000E+00  0.10429949148E+04  0.10429949148E+04  0.00000000000E+00 0.  1.
          1   -1    0    0  501    0  0.00000000000E+00 -0.00000000000E+00 -0.43464481863E+02  0.43464481863E+02  0.00000000000E+00 0. -1.
         25    2    1    2    0    0 -0.13510155058E+03 -0.40036906973E+02  0.81792298737E+03  0.83934562624E+03  0.12509070361E+03 0.  0.
          5    1    3    3  502    0 -0.79148287689E+02 -0.65361255546E+02  0.28636619252E+03  0.30423611519E+03  0.41800000000E+01 0. -1.
         -5    1    3    3    0  502 -0.55953262895E+02  0.25324348573E+02  0.53155679485E+03  0.53510951104E+03  0.41800000000E+01 0. -1.
        -11    1    1    2    0    0  0.97979556713E+02  0.58694956117E+02  0.86328091201E+02  0.14316993657E+03  0.00000000000E+00 0. -1.
         11    1    1    2    0    0  0.37121993872E+02 -0.18658049145E+02  0.95279354323E+02  0.10394383381E+03  0.00000000000E+00 0.  1.
</event>
<event>
 7    1  0.2522928E-009  0.1108735E+03  0.7561462E-02  0.1258961E+00
         -2   -1    0    0    0  501 -0.00000000000E+00  0.00000000000E+00  0.26037677366E+03  0.26037677366E+03  0.00000000000E+00 0.  1.
          2   -1    0    0  501    0  0.00000000000E+00 -0.00000000000E+00 -0.57048018521E+02  0.57048018521E+02  0.00000000000E+00 0. -1.
         25    2    1    2    0    0  0.38118661812E+02 -0.33231811376E+02  0.83622592016E+02  0.15872633649E+03  0.12507568242E+03 0.  0.
          5    1    3    3  502    0  0.58954076440E+02  0.28819693442E+02  0.23728525475E+02  0.69904743617E+02  0.41800000000E+01 0. -1.
         -5    1    3    3    0  502 -0.20835414628E+02 -0.62051504819E+02  0.59894066542E+02  0.88821592869E+02  0.41800000000E+01 0. -1.
        -11    1    1    2    0    0 -0.44182072903E+02 -0.11183793653E+02  0.20779582154E+02  0.50089158917E+02  0.00000000000E+00 0. -1.
         11    1    1    2    0    0  0.60634110918E+01  0.44415605029E+02  0.98926580965E+02  0.10860929677E+03  0.00000000000E+00 0.  1.
</event>
<event>
 7    1  0.2522928E-009  0.2192501E+03  0.7561462E-02  0.1134443E+00
          1   -1    0    0  501    0  0.00000000000E+00  0.00000000000E+00  0.34384622545E+03  0.34384622545E+03  0.00000000000E+00 0. -1.
         -1   -1    0    0    0  501 -0.00000000000E+00 -0.00000000000E+00 -0.21432618899E+03  0.21432618899E+03  0.00000000000E+00 0.  1.
         25    2    1    2    0    0  0.13152253549E+03  0.16787045650E+03  0.20823207036E+03  0.32324447865E+03  0.12509088833E+03 0.  0.
          5    1    3    3  502    0  0.21768771910E+02  0.56876929589E+02 -0.23449929722E+01  0.61088754628E+02  0.41800000000E+01 0. -1.
         -5    1    3    3    0  502  0.10975376358E+03  0.11099352691E+03  0.21057706333E+03  0.26215572402E+03  0.41800000000E+01 0. -1.
        -11    1    1    2    0    0 -0.40406190960E+02 -0.99498069173E+02 -0.35874138607E+02  0.11322314188E+03  0.00000000000E+00 0. -1.
         11    1    1    2    0    0 -0.91116344529E+02 -0.68372387323E+02 -0.42837895290E+02  0.12170479391E+03  0.00000000000E+00 0.  1.
</event>
<event>
 7    1  0.3383749E-009  0.1446174E+03  0.7561462E-02  0.1207248E+00
          2   -1    0    0  501    0  0.00000000000E+00  0.00000000000E+00  0.12580720699E+04  0.12580720699E+04  0.00000000000E+00 0.  1.
         -2   -1    0    0    0  501 -0.00000000000E+00 -0.00000000000E+00 -0.20392333444E+02  0.20392333444E+02  0.00000000000E+00 0. -1.
         25    2    1    2    0    0 -0.11572523024E+03 -0.16047637730E+02  0.70735150212E+03  0.72776661332E+03  0.12509292675E+03 0.  0.
          5    1    3    3  502    0 -0.12195225899E+03  0.19427964682E+02  0.41004477567E+03  0.42825692025E+03  0.41800000000E+01 0. -1.
         -5    1    3    3    0  502  0.62270287509E+01 -0.35475602412E+02  0.29730672645E+03  0.29950969308E+03  0.41800000000E+01 0. -1.
        -11    1    1    2    0    0  0.32495590993E+02  0.30932534718E+02  0.73495935545E+02  0.86107129088E+02  0.00000000000E+00 0.  1.
         11    1    1    2    0    0  0.83229639250E+02 -0.14884896988E+02  0.45683229881E+03  0.46459066095E+03  0.00000000000E+00 0. -1.
</event>
<event>
 7    1  0.2522928E-009  0.2253685E+03  0.7561462E-02  0.1129943E+00
          1   -1    0    0  501    0  0.00000000000E+00  0.00000000000E+00  0.76683271704E+03  0.76683271704E+03  0.00000000000E+00 0. -1.
         -1   -1    0    0    0  501 -0.00000000000E+00 -0.00000000000E+00 -0.17725908529E+03  0.17725908529E+03  0.00000000000E+00 0.  1.
         25    2    1    2    0    0  0.88028299646E+02  0.19016620286E+03  0.66024469606E+03  0.70390521816E+03  0.12508929303E+03 0.  0.
          5    1    3    3  502    0  0.99146892251E+02  0.14980294042E+03  0.62061755615E+03  0.64610730580E+03  0.41800000000E+01 0.  1.
         -5    1    3    3    0  502 -0.11118592605E+02  0.40363262440E+02  0.39627139908E+02  0.57797912364E+02  0.41800000000E+01 0.  1.
        -11    1    1    2    0    0 -0.10629180816E+03 -0.14137843679E+03 -0.47320214481E+02  0.18309837130E+03  0.00000000000E+00 0.  1.
         11    1    1    2    0    0  0.18263508518E+02 -0.48787766069E+02 -0.23350849825E+02  0.57088212872E+02  0.00000000000E+00 0. -1.
</event>
<event>
 7    1  0.2522928E-009  0.1374300E+03  0.7561462E-02  0.1216830E+00
          1   -1    0    0  501    0  0.00000000000E+00  0.00000000000E+00  0.60118174100E+03  0.60118174100E+03  0.00000000000E+00 0. -1.
         -1   -1    0    0    0  501 -0.00000000000E+00 -0.00000000000E+00 -0.39609684109E+02  0.39609684109E+02  0.00000000000E+00 0.  1.
         25    2    1    2    0    0  0.24084119465E+02  0.81427603470E+02  0.15861635307E+03  0.21912924745E+03  0.12509188707E+03 0.  0.
          5    1    3    3  502    0 -0.22478118663E+02 -0.25489474282E+02  0.41497133136E+02  0.53800219110E+02  0.41800000000E+01 0.  1.
         -5    1    3    3    0  502  0.46562238128E+02  0.10691707775E+03  0.11711921994E+03  0.16532902834E+03  0.41800000000E+01 0.  1.
        -11    1    1    2    0    0  0.27349509060E+02  0.31363321043E+00  0.10101060180E+03  0.10464815186E+03  0.00000000000E+00 0.  1.
         11    1    1    2    0    0 -0.51433628526E+02 -0.81741236680E+02  0.30194510201E+03  0.31701402579E+03  0.00000000000E+00 0. -1.
</event>
<event>
 7    1  0.2522928E-009  0.1361860E+03  0.7561462E-02  0.1218555E+00
         -2   -1    0    0    0  501 -0.00000000000E+00  0.00000000000E+00  0.64400499805E+02  0.64400499805E+02  0.00000000000E+00 0.  1.
          2   -1    0    0  501    0  0.00000000000E+00 -0.00000000000E+00 -0.51857045685E+03  0.51857045685E+03  0.00000000000E+00 0. -1.
         25    2    1    2    0    0 -0.18514852335E+02 -0.89213013503E+02 -0.42560980405E+03  0.45287184352E+03  0.12508972707E+03 0.  0.
          5    1    3    3  502    0  0.11388855334E+02  0.27198680802E+02 -0.47193855919E+02  0.55805077723E+02  0.41800000000E+01 0.  1.
         -5    1    3    3    0  502 -0.29903707669E+02 -0.11641169430E+03 -0.37841594813E+03  0.39706676580E+03  0.41800000000E+01 0.  1.
        -11    1    1    2    0    0  0.43352538936E+02  0.87230994718E+02 -0.78973312346E+01  0.97729508912E+02  0.00000000000E+00 0.  1.
         11    1    1    2    0    0 -0.24837686601E+02  0.19820187856E+01 -0.20662821758E+02  0.32369604217E+02  0.00000000000E+00 0. -1.
</event>
<event>
 7    1  0.2522928E-009  0.9369549E+02  0.7561462E-02  0.1294141E+00
          2   -1    0    0  501    0  0.00000000000E+00  0.00000000000E+00  0.22591283928E+03  0.22591283928E+03  0.00000000000E+00 0. -1.
         -2   -1    0    0    0  501 -0.00000000000E+00 -0.00000000000E+00 -0.66250115802E+02  0.66250115802E+02  0.00000000000E+00 0.  1.
         25    2    1    2    0    0  0.11529119737E+02  0.64243487950E+01  0.22509764533E+02  0.12778091128E+03  0.12508828453E+03 0.  0.
          5    1    3    3  502    0  0.54109268002E+02 -0.39422783131E+01 -0.27655726819E+02  0.61038234475E+02  0.41800000000E+01 0.  1.
         -5    1    3    3    0  502 -0.42580148265E+02  0.10366627108E+02  0.50165491352E+02  0.66742676800E+02  0.41800000000E+01 0.  1.
        -11    1    1    2    0    0 -0.31159868044E+02  0.32707874369E+02  0.53966840603E+02  0.70378706346E+02  0.00000000000E+00 0.  1.
         11    1    1    2    0    0  0.19630748307E+02 -0.39132223164E+02  0.83186118346E+02  0.94003337464E+02  0.00000000000E+00 0. -1.
</event>
<event>
 6    1  0.2629147E-009  0.1781265E+03  0.7561462E-02  0.1169629E+00
          1   -1    0    0  501    0  0.00000000000E+00  0.00000000000E+00  0.45310860834E+03  0.45310860834E+03  0.00000000000E+00 0. -1.
         -1   -1    0    0    0  501 -0.00000000000E+00 -0.00000000000E+00 -0.70203132756E+02  0.70203132756E+02  0.00000000000E+00 0.  1.
          5    1    1    2  502    0  0.46125956471E+02  0.81013706272E+02  0.10477507017E+03  0.14030720649E+03  0.41800000000E+01 0. -1.
         -5    1    1    2    0  502  0.87637275037E+02 -0.35813014776E+02  0.92148857276E+02  0.13218074104E+03  0.41800000000E+01 0. -1.
        -11    1    1    2    0    0 -0.21778059702E+02 -0.51594534815E+02  0.66547534214E+02  0.86976170398E+02  0.00000000000E+00 0. -1.
         11    1    1    2    0    0 -0.11198517181E+03  0.63938433189E+01  0.11943401392E+03  0.16384762317E+03  0.00000000000E+00 0.  1.
</event>
<event>
 7    1  0.2522928E-009  0.1022969E+03  0.7561462E-02  0.1275539E+00
          2   -1    0    0  501    0  0.00000000000E+00  0.00000000000E+00  0.11764229280E+04  0.11764229280E+04  0.00000000000E+00 0.  1.
         -2   -1    0    0    0  501 -0.00000000000E+00 -0.00000000000E+00 -0.12367864889E+02  0.12367864889E+02  0.00000000000E+00 0. -1.
         25    2    1    2    0    0 -0.50503593367E+02 -0.30953953949E+01  0.74123035048E+03  0.75340904975E+03  0.12507025769E+03 0.  0.
          5    1    3    3  502    0 -0.31564123793E+02 -0.47326245181E+02  0.62425604470E+03  0.62685656185E+03  0.41800000000E+01 0.  1.
         -5    1    3    3    0  502 -0.18939469573E+02  0.44230849787E+02  0.11697430579E+03  0.12655248790E+03  0.41800000000E+01 0.  1.
        -11    1    1    2    0    0  0.55261577286E+02  0.36037365762E+02  0.33558271991E+03  0.34200627999E+03  0.00000000000E+00 0.  1.
         11    1    1    2    0    0 -0.47579839193E+01 -0.32941970367E+02  0.87241992701E+02  0.93375463121E+02  0.00000000000E+00 0. -1.
</event>
<event>
 7    1  0.2522928E-009  0.9287140E+02  0.7561462E-02  0.1296043E+00
          1   -1    0    0  501    0  0.00000000000E+00  0.00000000000E+00  0.14687018062E+03  0.14687018062E+03  0.00000000000E+00 0. -1.
         -1   -1    0    0    0  501 -0.00000000000E+00 -0.00000000000E+00 -0.19623507085E+03  0.19623507085E+03  0.00000000000E+00 0.  1.
         25    2    1    2    0    0  0.66450062076E+02  0.11029267497E+01  0.87475098382E+02  0.16648104279E+03  0.12508883873E+03 0.  0.
          5    1    3    3  502    0  0.51204172746E+02  0.31618058978E+02 -0.11763013658E+02  0.61460636593E+02  0.41800000000E+01 0.  1.
         -5    1    3    3    0  502  0.15245889331E+02 -0.30515132229E+02  0.99238112039E+02  0.10502040620E+03  0.41800000000E+01 0.  1.
        -11    1    1    2    0    0 -0.55524503014E+02  0.26382885320E+02 -0.13335489489E+03  0.14684193905E+03  0.00000000000E+00 0.  1.
         11    1    1    2    0    0 -0.10925559062E+02 -0.27485812070E+02 -0.34850937294E+01  0.29782269629E+02  0.00000000000E+00 0. -1.
</event>
<event>
 7    1  0.2522928E-009  0.9048821E+02  0.7561462E-02  0.1301674E+00
         -1   -1    0    0    0  501 -0.00000000000E+00  0.00000000000E+00  0.26091160784E+03  0.26091160784E+03  0.00000000000E+00 0. -1.
          1   -1    0    0  501    0  0.00000000000E+00 -0.00000000000E+00 -0.58568822001E+02  0.58568822001E+02  0.00000000000E+00 0.  1.
         25    2    1    2    0    0 -0.51673554289E+02 -0.16662985443E+02  0.13655648997E+03  0.19299013274E+03  0.12509878131E+03 0.  0.
          5    1    3    3  502    0 -0.44314077547E+02 -0.48140855263E+02  0.14515808757E+03  0.15927844237E+03  0.41800000000E+01 0. -1.
         -5    1    3    3    0  502 -0.73594767417E+01  0.31477869820E+02 -0.86015976063E+01  0.33711690372E+02  0.41800000000E+01 0. -1.
        -11    1    1    2    0    0 -0.12474891568E+02  0.13800894362E+02  0.59067082521E+02  0.61927440140E+02  0.00000000000E+00 0. -1.
         11    1    1    2    0    0  0.64148445857E+02  0.28620910809E+01  0.67192133497E+01  0.64562856963E+02  0.00000000000E+00 0.  1.
</event>
<event>
 7    1  0.2522928E-009  0.8079801E+02  0.7561462E-02  0.1326802E+00
          4   -1    0    0  501    0  0.00000000000E+00  0.00000000000E+00  0.10371503105E+03  0.10371503105E+03  0.00000000000E+00 0. -1.
         -4   -1    0    0    0  501 -0.00000000000E+00 -0.00000000000E+00 -0.15237642207E+03  0.15237642207E+03  0.00000000000E+00 0.  1.
         25    2    1    2    0    0 -0.57979665509E+02  0.36626017497E+00 -0.53430636835E+02  0.14786528863E+03  0.12509010701E+03 0.  0.
          5    1    3    3  502    0 -0.34298354120E+02 -0.25554874835E+02  0.33194062100E+02  0.54302365343E+02  0.41800000000E+01 0.  1.
         -5    1    3    3    0  502 -0.23681311389E+02  0.25921135010E+02 -0.86624698935E+02  0.93562923291E+02  0.41800000000E+01 0.  1.
        -11    1    1    2    0    0  0.28905139043E+01 -0.23381112964E+02 -0.30764111194E+02  0.38748703870E+02  0.00000000000E+00 0. -1.
         11    1    1    2    0    0  0.55089151605E+02  0.23014852789E+02  0.35533357003E+02  0.69477460614E+02  0.00000000000E+00 0.  1.
</event>
<event>
 7    1  0.2522928E-009  0.1044319E+03  0.7561462E-02  0.1271243E+00
          2   -1    0    0  501    0  0.00000000000E+00  0.00000000000E+00  0.12094724431E+04  0.12094724431E+04  0.00000000000E+00 0. -1.
         -2   -1    0    0    0  501 -0.00000000000E+00 -0.00000000000E+00 -0.10418129941E+02  0.10418129941E+02  0.00000000000E+00 0.  1.
         25    2    1    2    0    0  0.21855369096E+02 -0.16753410115E+02  0.67010998571E+03  0.68224107559E+03  0.12508860205E+03 0.  0.
          5    1    3    3  502    0 -0.44412498274E+02 -0.25573901936E+01  0.44164587766E+03  0.44390039862E+03  0.41800000000E+01 0.  1.
         -5    1    3    3    0  502  0.66267867369E+02 -0.14196019922E+02  0.22846410805E+03  0.23834067697E+03  0.41800000000E+01 0.  1.
        -11    1    1    2    0    0 -0.24268430139E+02  0.53871349110E+02  0.31407729326E+03  0.31958664724E+03  0.00000000000E+00 0. -1.
         11    1    1    2    0    0  0.24130610435E+01 -0.37117938995E+02  0.21486703418E+03  0.21806285020E+03  0.00000000000E+00 0.  1.
</event>
<event>
 7    1  0.2522928E-009  0.1034604E+03  0.7561462E-02  0.1273183E+00
         -1   -1    0    0    0  501 -0.00000000000E+00  0.00000000000E+00  0.17207593013E+02  0.17207593013E+02  0.00000000000E+00 0.  1.
          1   -1    0    0  501    0  0.00000000000E+00 -0.00000000000E+00 -0.82516539797E+03  0.82516539797E+03  0.00000000000E+00 0. -1.
         25    2    1    2    0    0 -0.76771582937E+01 -0.57301974401E+01 -0.61733850364E+03  0.62995742405E+03  0.12509098336E+03 0.  0.
          5    1    3    3  502    0 -0.39092583375E+01 -0.64502864595E+02 -0.37355293696E+03  0.37912421573E+03  0.41800000000E+01 0. -1.
         -5    1    3    3    0  502 -0.37678999561E+01  0.58772667155E+02 -0.24378556668E+03  0.25083320832E+03  0.41800000000E+01 0. -1.
        -11    1    1    2    0    0 -0.30168685641E+01 -0.37992171983E+02 -0.40149980632E+02  0.55358175302E+02  0.00000000000E+00 0.  1.
         11    1    1    2    0    0  0.10694026858E+02  0.43722369423E+02 -0.15046932068E+03  0.15705739163E+03  0.00000000000E+00 0. -1.
</event>
<event>
 7    1  0.2522928E-009  0.9284491E+02  0.7561462E-02  0.1296105E+00
         -3   -1    0    0    0  501 -0.00000000000E+00  0.00000000000E+00  0.11067688351E+03  0.11067688351E+03  0.00000000000E+00 0.  1.
          3   -1    0    0  501    0  0.00000000000E+00 -0.00000000000E+00 -0.19886148422E+03  0.19886148422E+03  0.00000000000E+00 0. -1.
         25    2    1    2    0    0  0.63848384884E+02  0.19904949556E+02  0.31678668286E+02  0.14535544072E+03  0.12510732534E+03 0.  0.
          5    1    3    3  502    0  0.78986365164E+02 -0.13205185193E+01  0.65319744443E+02  0.10259011193E+03  0.41800000000E+01 0. -1.
         -5    1    3    3    0  502 -0.15137980279E+02  0.21225468075E+02 -0.33641076157E+02  0.42765328795E+02  0.41800000000E+01 0. -1.
        -11    1    1    2    0    0 -0.29317479218E+02  0.13371672957E+02  0.29317585606E+01  0.32356010781E+02  0.00000000000E+00 0.  1.
         11    1    1    2    0    0 -0.34530905666E+02 -0.33276622513E+02 -0.12279502755E+03  0.13182691623E+03  0.00000000000E+00 0. -1.
</event>
<event>
 7    1  0.2522928E-009  0.2753540E+03  0.7561462E-02  0.1098254E+00
          2   -1    0    0  501    0  0.00000000000E+00  0.00000000000E+00  0.26191342065E+04  0.26191342065E+04  0.00000000000E+00 0. -1.
         -2   -1    0    0    0  501 -0.00000000000E+00 -0.00000000000E+00 -0.31594164679E+02  0.31594164679E+02  0.00000000000E+00 0.  1.
         25    2    1    2    0    0 -0.26325890270E+03 -0.35945670347E+02  0.13264763666E+04  0.13585963770E+04  0.12508886147E+03 0.  0.
          5    1    3    3  502    0 -0.55799842855E+02 -0.41739580400E+02  0.17235756427E+03  0.18595810656E+03  0.41800000000E+01 0. -1.
         -5    1    3    3    0  502 -0.20745905985E+03  0.57939100535E+01  0.11541188023E+04  0.11726382704E+04  0.41800000000E+01 0. -1.
        -11    1    1    2    0    0  0.97752816430E+02  0.44894347155E+02  0.35155751513E+03  0.36764630009E+03  0.00000000000E+00 0. -1.
         11    1    1    2    0    0  0.16550608627E+03 -0.89486768086E+01  0.90950616009E+03  0.92448569413E+03  0.00000000000E+00 0.  1.
</event>
<event>
 7    1  0.2522928E-009  0.1071302E+03  0.7561462E-02  0.1265978E+00
          2   -1    0    0  501    0  0.00000000000E+00  0.00000000000E+00  0.91994158519E+03  0.91994158519E+03  0.00000000000E+00 0. -1.
         -2   -1    0    0    0  501 -0.00000000000E+00 -0.00000000000E+00 -0.20088758679E+02  0.20088758679E+02  0.00000000000E+00 0.  1.
         25    2    1    2    0    0 -0.64431760149E+02 -0.25827789249E+02  0.64095966273E+03  0.65672967829E+03  0.12508419036E+03 0.  0.
          5    1    3    3  502    0 -0.26750809650E+02  0.40929598013E+02  0.11270724735E+03  0.12292775853E+03  0.41800000000E+01 0.  1.
         -5    1    3    3    0  502 -0.37680950499E+02 -0.66757387262E+02  0.52825241538E+03  0.53380191976E+03  0.41800000000E+01 0.  1.
        -11    1    1    2    0    0  0.30567490769E+02  0.41136779574E+02  0.23157016446E+03  0.23717366463E+03  0.00000000000E+00 0. -1.
         11    1    1    2    0    0  0.33864269380E+02 -0.15308990324E+02  0.27322999324E+02  0.46127000959E+02  0.00000000000E+00 0.  1.
</event>
<event>
 7    1  0.2522928E-009  0.8787499E+02  0.7561462E-02  0.1308081E+00
         -1   -1    0    0    0  501 -0.00000000000E+00  0.00000000000E+00  0.29437896752E+02  0.29437896752E+02  0.00000000000E+00 0.  1.
          1   -1    0    0  501    0  0.00000000000E+00 -0.00000000000E+00 -0.49006586175E+03  0.49006586175E+03  0.00000000000E+00 0. -1.
         25    2    1    2    0    0  0.69092404393E+01  0.23767634520E+02 -0.35723189015E+03  0.37930073379E+03  0.12506712303E+03 0.  0.
          5    1    3    3  502    0 -0.12575370319E+02  0.67378557028E+02 -0.28079496130E+03  0.28906970194E+03  0.41800000000E+01 0. -1.
         -5    1    3    3    0  502  0.19484610758E+02 -0.43610922508E+02 -0.76436928843E+02  0.90231031853E+02  0.41800000000E+01 0. -1.
        -11    1    1    2    0    0  0.13749366356E+02 -0.33562279709E+02 -0.11046929544E+03  0.11627096340E+03  0.00000000000E+00 0. -1.
         11    1    1    2    0    0 -0.20658606795E+02  0.97946451892E+01  0.70732205895E+01  0.23932061311E+02  0.00000000000E+00 0.  1.
</event>
<event>
 7    1  0.2522928E-009  0.1027212E+03  0.7561462E-02  0.1274676E+00
         -2   -1    0    0    0  501 -0.00000000000E+00  0.00000000000E+00  0.12685569230E+03  0.12685569230E+03  0.00000000000E+00 0. -1.
          2   -1    0    0  501    0  0.00000000000E+00 -0.00000000000E+00 -0.14878419566E+03  0.14878419566E+03  0.00000000000E+00 0.  1.
         25    2    1    2    0    0  0.59574198368E+02  0.59458727814E+02  0.93393924623E+00  0.15077319763E+03  0.12508900614E+03 0.  0.
          5    1    3    3  502    0  0.77409566414E+02  0.26221637712E+02  0.44371667038E+02  0.93092064605E+02  0.41800000000E+01 0. -1.
         -5    1    3    3    0  502 -0.17835368046E+02  0.33237090102E+02 -0.43437727792E+02  0.57681133029E+02  0.41800000000E+01 0. -1.
        -11    1    1    2    0    0 -0.48243420583E+02 -0.38090959298E+02 -0.56464038993E+02  0.83465780469E+02  0.00000000000E+00 0.  1.
         11    1    1    2    0    0 -0.11330777785E+02 -0.21367768516E+02  0.33601596396E+02  0.41400909856E+02  0.00000000000E+00 0. -1.
</event>
<event>
 7    1  0.2522928E-009  0.1303794E+03  0.7561462E-02  0.1226894E+00
          2   -1    0    0  501    0  0.00000000000E+00  0.00000000000E+00  0.88451565551E+03  0.88451565551E+03  0.00000000000E+00 0. -1.
         -2   -1    0    0    0  501 -0.00000000000E+00 -0.00000000000E+00 -0.21585742169E+02  0.21585742169E+02  0.00000000000E+00 0.  1.
         25    2    1    2    0    0 -0.74082884649E+02  0.38904578401E+02  0.41964973030E+03  0.44582021266E+03  0.12509166982E+03 0.  0.
          5    1    3    3  502    0  0.28142200085E+02 -0.58833389056E+01  0.36088614363E+02  0.46329877929E+02  0.41800000000E+01 0.  1.
         -5    1    3    3    0  502 -0.10222508473E+03  0.44787917306E+02  0.38356111593E+03  0.39949033473E+03  0.41800000000E+01 0.  1.
        -11    1    1    2    0    0  0.15572084851E+02  0.27446914053E+02  0.17410169284E+03  0.17693847057E+03  0.00000000000E+00 0. -1.
         11    1    1    2    0    0  0.58510799798E+02 -0.66351492454E+02  0.26917849020E+03  0.28334271445E+03  0.00000000000E+00 0.  1.
</event>
<event>
 7    1  0.2522928E-009  0.1033578E+03  0.7561462E-02  0.1273389E+00
         -2   -1    0    0    0  501 -0.00000000000E+00  0.00000000000E+00  0.16518729223E+02  0.16518729223E+02  0.00000000000E+00 0.  1.
          2   -1    0    0  501    0  0.00000000000E+00 -0.00000000000E+00 -0.72198521609E+03  0.72198521609E+03  0.00000000000E+00 0. -1.
         25    2    1    2    0    0 -0.19147769686E+01  0.38596196204E+01 -0.45368240799E+03  0.47063177577E+03  0.12509187827E+03 0.  0.
          5    1    3    3  502    0  0.15972166023E+02 -0.53906272941E+02 -0.30324735953E+03  0.30844356017E+03  0.41800000000E+01 0. -1.
         -5    1    3    3    0  502 -0.17886942991E+02  0.57765892561E+02 -0.15043504846E+03  0.16218821560E+03  0.41800000000E+01 0. -1.
        -11    1    1    2    0    0  0.39730843328E+02 -0.24461947623E+02 -0.10496293364E+03  0.11486576614E+03  0.00000000000E+00 0.  1.
         11    1    1    2    0    0 -0.37816066359E+02  0.20602328002E+02 -0.14682114523E+03  0.15300640340E+03  0.00000000000E+00 0. -1.
</event>
<event>
 7    1  0.2522928E-009  0.1425900E+03  0.7561462E-02  0.1209886E+00
         -2   -1    0    0    0  501 -0.00000000000E+00  0.00000000000E+00  0.42392009937E+03  0.42392009937E+03  0.00000000000E+00 0.  1.
          2   -1    0    0  501    0  0.00000000000E+00 -0.00000000000E+00 -0.57294404588E+02  0.57294404588E+02  0.00000000000E+00 0. -1.
         25    2    1    2    0    0  0.86274512397E+02  0.73467546091E+02  0.19201446394E+03  0.25564820331E+03  0.12508268336E+03 0.  0.
          5    1    3    3  502    0 -0.26106950158E+02 -0.10469379857E+02  0.31194567095E+02  0.42210830096E+02  0.41800000000E+01 0. -1.
         -5    1    3    3    0  502  0.11238146256E+03  0.83936925948E+02  0.16081989684E+03  0.21343737321E+03  0.41800000000E+01 0. -1.
        -11    1    1    2    0    0 -0.54366290399E+02 -0.28810995612E+02  0.15586246182E+03  0.16756752073E+03  0.00000000000E+00 0.  1.
         11    1    1    2    0    0 -0.31908221998E+02 -0.44656550479E+02  0.18748769024E+02  0.57998779915E+02  0.00000000000E+00 0. -1.
</event>
<event>
 7    1  0.2522928E-009  0.1130725E+03  0.7561462E-02  0.1254984E+00
          1   -1    0    0  501    0  0.00000000000E+00  0.00000000000E+00  0.68188530437E+02  0.68188530437E+02  0.00000000000E+00 0. -1.
         -1   -1    0    0    0  501 -0.00000000000E+00 -0.00000000000E+00 -0.22727262991E+03  0.22727262991E+03  0.00000000000E+00 0.  1.
         25    2    1    2    0    0 -0.25464380669E+02  0.52204281259E+02 -0.10948716204E+03  0.17609198987E+03  0.12508888272E+03 0.  0.
          5    1    3    3  502    0  0.48622095638E+02  0.31322696443E+02 -0.64927748428E+02  0.87053457213E+02  0.41800000000E+01 0. -1.
         -5    1    3    3    0  502 -0.74086476307E+02  0.20881584815E+02 -0.44559413613E+02  0.89038532656E+02  0.41800000000E+01 0. -1.
        -11    1    1    2    0    0 -0.56851709432E+01 -0.58929009279E+02 -0.61487330854E+02  0.85355967330E+02  0.00000000000E+00 0.  1.
         11    1    1    2    0    0  0.31149551612E+02  0.67247280201E+01  0.11890393423E+02  0.34013203148E+02  0.00000000000E+00 0. -1.
</event>
<event>
 7    1  0.2522928E-009  0.8430455E+02  0.7561462E-02  0.1317261E+00
          1   -1    0    0  501    0  0.00000000000E+00  0.00000000000E+00  0.19469517833E+04  0.19469517833E+04  0.00000000000E+00 0. -1.
         -1   -1    0    0    0  501 -0.00000000000E+00 -0.00000000000E+00 -0.11652154858E+02  0.11652154858E+02  0.00000000000E+00 0.  1.
         25    2    1    2    0    0 -0.23349400523E+02 -0.31691608785E+02  0.14883504380E+04  0.14941165391E+04  0.12509058086E+03 0.  0.
          5    1    3    3  502    0  0.12792347453E+01 -0.12327782324E+02  0.13046787572E+02  0.18474353155E+02  0.41800000000E+01 0.  1.
         -5    1    3    3    0  502 -0.24628635268E+02 -0.19363826461E+02  0.14753036505E+04  0.14756421859E+04  0.41800000000E+01 0.  1.
        -11    1    1    2    0    0  0.67603342533E+02 -0.30324282484E+01  0.19740680651E+03  0.20868362369E+03  0.00000000000E+00 0.  1.
         11    1    1    2    0    0 -0.44253942010E+02  0.34724037033E+02  0.24954238391E+03  0.25580377538E+03  0.00000000000E+00 0. -1.
</event>
<event>
 7    1  0.2522928E-009  0.1100371E+03  0.7561462E-02  0.1260501E+00
          1   -1    0    0  501    0  0.00000000000E+00  0.00000000000E+00  0.70192288918E+03  0.70192288918E+03  0.00000000000E+00 0. -1.
         -1   -1    0    0    0  501 -0.00000000000E+00 -0.00000000000E+00 -0.25991661129E+02  0.25991661129E+02  0.00000000000E+00 0.  1.
         25    2    1    2    0    0 -0.42629696774E+01 -0.47037600746E+02  0.19637842574E+03  0.23757678043E+03  0.12509009437E+03 0.  0.
          5    1    3    3  502    0  0.23270325398E+02  0.30986832724E+02  0.11509242228E+03  0.12151308536E+03  0.41800000000E+01 0. -1.
         -5    1    3    3    0  502 -0.27533295075E+02 -0.78024433470E+02  0.81286003457E+02  0.11606369507E+03  0.41800000000E+01 0. -1.
        -11    1    1    2    0    0  0.44230809793E+02  0.35318396175E+02  0.34080424416E+03  0.34547255532E+03  0.00000000000E+00 0. -1.
         11    1    1    2    0    0 -0.39967840116E+02  0.11719204571E+02  0.13874855816E+03  0.14486521456E+03  0.00000000000E+00 0.  1.
</event>
<event>
 7    1  0.2522928E-009  0.2394288E+03  0.7561462E-02  0.1120174E+00
          2   -1    0    0  501    0  0.00000000000E+00  0.00000000000E+00  0.42007120395E+03  0.42007120395E+03  0.00000000000E+00 0.  1.
         -2   -1    0    0    0  501 -0.00000000000E+00 -0.00000000000E+00 -0.22181012541E+03  0.22181012541E+03  0.00000000000E+00 0. -1.
         25    2    1    2    0    0 -0.20953635078E+03 -0.10708383996E+03  0.27097245523E+03  0.38004770521E+03  0.12505101223E+03 0.  0.
          5    1    3    3  502    0 -0.11585399248E+03 -0.84709647920E+02  0.75795186585E+02  0.16235841442E+03  0.41800000000E+01 0. -1.
         -5    1    3    3    0  502 -0.93682358302E+02 -0.22374192043E+02  0.19517726865E+03  0.21768929079E+03  0.41800000000E+01 0. -1.
        -11    1    1    2    0    0  0.12343869776E+03  0.85345472722E+02 -0.49817192399E+01  0.15015252028E+03  0.00000000000E+00 0.  1.
         11    1    1    2    0    0  0.86097653018E+02  0.21738367242E+02 -0.67729657450E+02  0.11168110388E+03  0.00000000000E+00 0. -1.
</event>
<event>
 7    1  0.2522928E-009  0.9585714E+02  0.7561462E-02  0.1289257E+00
          2   -1    0    0  501    0  0.00000000000E+00  0.00000000000E+00  0.39717017330E+03  0.39717017330E+03  0.00000000000E+00 0. -1.
         -2   -1    0    0    0  501 -0.00000000000E+00 -0.00000000000E+00 -0.33180421672E+02  0.33180421672E+02  0.00000000000E+00 0.  1.
         25    2    1    2    0    0 -0.35518012667E+01 -0.28719670635E+02  0.16447913070E+03  0.20865896108E+03  0.12509093823E+03 0.  0.
          5    1    3    3  502    0  0.31073924398E+02 -0.46982261731E+02  0.21629085156E+02  0.60483149881E+02  0.41800000000E+01 0.  1.
         -5    1    3    3    0  502 -0.34625725665E+02  0.18262591095E+02  0.14285004555E+03  0.14817581120E+03  0.41800000000E+01 0.  1.
        -11    1    1    2    0    0 -0.33288120798E+02 -0.16811968295E+02  0.64128954260E+02  0.74183987751E+02  0.00000000000E+00 0.  1.
         11    1    1    2    0    0  0.36839922064E+02  0.45531638930E+02  0.13538166667E+03  0.14750764615E+03  0.00000000000E+00 0. -1.
</event>
<event>
 7    1  0.4726909E-009  0.1419869E+03  0.7561462E-02  0.1210680E+00
          2   -1    0    0  501    0  0.00000000000E+00  0.00000000000E+00  0.10946371080E+04  0.10946371080E+04  0.00000000000E+00 0. -1.
         -2   -1    0    0    0  501 -0.00000000000E+00 -0.00000000000E+00 -0.28561781104E+02  0.28561781104E+02  0.00000000000E+00 0.  1.
         25    2    1    2    0    0 -0.86940559820E+02 -0.88989305685E+02  0.36593581741E+03  0.40624403813E+03  0.12508972214E+03 0.  0.
          5    1    3    3  502    0  0.10074807797E+01  0.31351434589E+01  0.18422842622E+03  0.18430526191E+03  0.41800000000E+01 0. -1.
         -5    1    3    3    0  502 -0.87948040599E+02 -0.92124449144E+02  0.18170739119E+03  0.22193877622E+03  0.41800000000E+01 0. -1.
        -11    1    1    2    0    0  0.66559539007E+01  0.67880390389E+02  0.38885751605E+03  0.39479389168E+03  0.00000000000E+00 0. -1.
         11    1    1    2    0    0  0.80284605919E+02  0.21108915296E+02  0.31128199341E+03  0.32216095927E+03  0.00000000000E+00 0.  1.
</event>
<event>
 7    1  0.2522928E-009  0.9627801E+02  0.7561462E-02  0.1288323E+00
         -2   -1    0    0    0  501 -0.00000000000E+00  0.00000000000E+00  0.55444354889E+03  0.55444354889E+03  0.00000000000E+00 0.  1.
          2   -1    0    0  501    0  0.00000000000E+00 -0.00000000000E+00 -0.24907281302E+02  0.24907281302E+02  0.00000000000E+00 0. -1.
         25    2    1    2    0    0 -0.36900690634E+02  0.25826060475E+02  0.32086631572E+03  0.34732024110E+03  0.12509001137E+03 0.  0.
          5    1    3    3  502    0  0.19463188848E+02 -0.15976229037E+02  0.81420967599E+01  0.26792195768E+02  0.41800000000E+01 0. -1.
         -5    1    3    3    0  502 -0.56363879482E+02  0.41802289512E+02  0.31272421896E+03  0.32052804533E+03  0.41800000000E+01 0. -1.
        -11    1    1    2    0    0  0.42670409935E+00 -0.51897514764E+02  0.14619080060E+03  0.15512989491E+03  0.00000000000E+00 0.  1.
         11    1    1    2    0    0  0.36473986535E+02  0.26071454290E+02  0.62479151265E+02  0.76900694180E+02  0.00000000000E+00 0. -1.
</event>
<event>
 7    1  0.2522928E-009  0.1338792E+03  0.7561462E-02  0.1221811E+00
         -2   -1    0    0    0  501 -0.00000000000E+00  0.00000000000E+00  0.24894820465E+02  0.24894820465E+02  0.00000000000E+00 0.  1.
          2   -1    0    0  501    0  0.00000000000E+00 -0.00000000000E+00 -0.12074268107E+04  0.12074268107E+04  0.00000000000E+00 0. -1.
         25    2    1    2    0    0 -0.83509817078E+02  0.86630979366E+02 -0.86079135483E+03  0.87811557969E+03  0.12508556515E+03 0.  0.
          5    1    3    3  502    0 -0.15285503022E+02  0.38225657295E+02 -0.64967919032E+03  0.65099567603E+03  0.41800000000E+01 0. -1.
         -5    1    3    3    0  502 -0.68224314056E+02  0.48405322071E+02 -0.21111216451E+03  0.22711990366E+03  0.41800000000E+01 0. -1.
        -11    1    1    2    0    0  0.55971955090E+02 -0.46792722996E+01 -0.82336773851E+02  0.99669953717E+02  0.00000000000E+00 0. -1.
         11    1    1    2    0    0  0.27537861988E+02 -0.81951707066E+02 -0.23940386152E+03  0.25453609773E+03  0.00000000000E+00 0.  1.
</event>
<event>
 7    1  0.2522928E-009  0.1121246E+03  0.7561462E-02  0.1256685E+00
          1   -1    0    0  501    0  0.00000000000E+00  0.00000000000E+00  0.81383500430E+03  0.81383500430E+03  0.00000000000E+00 0. -1.
         -1   -1    0    0    0  501 -0.00000000000E+00 -0.00000000000E+00 -0.18042363079E+02  0.18042363079E+02  0.00000000000E+00 0.  1.
         25    2    1    2    0    0  0.86812610620E+01 -0.32206542977E+02  0.30609036921E+03  0.33234228560E+03  0.12508978764E+03 0.  0.
          5    1    3    3  502    0 -0.63167196329E+01 -0.77607961995E+02  0.15026513392E+03  0.16929258573E+03  0.41800000000E+01 0.  1.
         -5    1    3    3    0  502  0.14997980695E+02  0.45401419018E+02  0.15582523529E+03  0.16304969987E+03  0.41800000000E+01 0.  1.
        -11    1    1    2    0    0  0.22475186980E+02  0.55169114295E+02  0.27592911896E+03  0.28228645715E+03  0.00000000000E+00 0. -1.
         11    1    1    2    0    0 -0.31156448042E+02 -0.22962571318E+02  0.21377315304E+03  0.21724862462E+03  0.00000000000E+00 0.  1.
</event>
<event>
 7    1  0.2522928E-009  0.1360624E+03  0.7561462E-02  0.1218728E+00
         -1   -1    0    0    0  501 -0.00000000000E+00  0.00000000000E+00  0.14216719494E+02  0.14216719494E+02  0.00000000000E+00 0.  1.
          1   -1    0    0  501    0  0.00000000000E+00 -0.00000000000E+00 -0.15937099324E+04  0.15937099324E+04  0.00000000000E+00 0. -1.
         25    2    1    2    0    0 -0.83264663547E+02  0.51900553981E+02 -0.10409258483E+04  0.10529962768E+04  0.12509142839E+03 0.  0.
          5    1    3    3  502    0 -0.95993044907E+02  0.69505875105E+02 -0.60520247269E+03  0.61671163172E+03  0.41800000000E+01 0.  1.
         -5    1    3    3    0  502  0.12728381360E+02 -0.17605321124E+02 -0.43572337563E+03  0.43628464504E+03  0.41800000000E+01 0.  1.
        -11    1    1    2    0    0  0.18587099238E+02 -0.63093583705E+02 -0.32134356859E+03  0.32800605122E+03  0.00000000000E+00 0. -1.
         11    1    1    2    0    0  0.64677564308E+02  0.11193029724E+02 -0.21722379596E+03  0.22692432388E+03  0.00000000000E+00 0.  1.
</event>
<event>
 7    1  0.2522928E-009  0.1100269E+03  0.7561462E-02  0.1260520E+00
         -2   -1    0    0    0  501 -0.00000000000E+00  0.00000000000E+00  0.68269021619E+02  0.68269021619E+02  0.00000000000E+00 0.  1.
          2   -1    0    0  501    0  0.00000000000E+00 -0.00000000000E+00 -0.22373085744E+03  0.22373085744E+03  0.00000000000E+00 0. -1.
         25    2    1    2    0    0 -0.32687599798E+02 -0.37756695599E+01 -0.28863076264E+02  0.13252067580E+03  0.12508364195E+03 0.  0.
          5    1    3    3  502    0  0.13006355132E+02 -0.56888103748E+02 -0.19721147318E+02  0.61739919610E+02  0.41800000000E+01 0.  1.
         -5    1    3    3    0  502 -0.45693954929E+02  0.53112434188E+02 -0.91419289462E+01  0.70780756194E+02  0.41800000000E+01 0.  1.
        -11    1    1    2    0    0 -0.22340562449E+02 -0.21318812751E+02 -0.19614551922E+02  0.36583099305E+02  0.00000000000E+00 0. -1.
         11    1    1    2    0    0  0.55028162247E+02  0.25094482311E+02 -0.10698420764E+03  0.12289610395E+03  0.00000000000E+00 0.  1.
</event>
<event>
 7    1  0.2522928E-009  0.1710525E+03  0.7561462E-02  0.1176755E+00
         -2   -1    0    0    0  501 -0.00000000000E+00  0.00000000000E+00  0.19395986061E+03  0.19395986061E+03  0.00000000000E+00 0.  1.
          2   -1    0    0  501    0  0.00000000000E+00 -0.00000000000E+00 -0.24835425903E+03  0.24835425903E+03  0.00000000000E+00 0. -1.
         25    2    1    2    0    0 -0.49680379814E+02 -0.14052998222E+03  0.91505364150E+02  0.21503227824E+03  0.12509529558E+03 0.  0.
          5    1    3    3  502    0  0.26974588665E+02 -0.10071468665E+03  0.28919195137E+02  0.10828143325E+03  0.41800000000E+01 0. -1.
         -5    1    3    3    0  502 -0.76654968479E+02 -0.39815295579E+02  0.62586169014E+02  0.10675084499E+03  0.41800000000E+01 0. -1.
        -11    1    1    2    0    0  0.43245128325E+02  0.84930607413E+02 -0.32280984825E+02  0.10062510214E+03  0.00000000000E+00 0.  1.
         11    1    1    2    0    0  0.64352514893E+01  0.55599374811E+02 -0.11361877775E+03  0.12665673926E+03  0.00000000000E+00 0. -1.
</event>
<event>
 7    1  0.2522928E-009  0.1874676E+03  0.7561462E-02  0.1160765E+00
          1   -1    0    0  501    0  0.00000000000E+00  0.00000000000E+00  0.24951348155E+03  0.24951348155E+03  0.00000000000E+00 0. -1.
         -1   -1    0    0    0  501 -0.00000000000E+00 -0.00000000000E+00 -0.16725639016E+03  0.16725639016E+03  0.00000000000E+00 0.  1.
         25    2    1    2    0    0  0.74421557402E+02  0.13893328675E+03  0.11419507241E+03  0.23136312328E+03  0.12508938356E+03 0.  0.
          5    1    3    3  502    0  0.13531799123E+02  0.13252795113E+03  0.10421365653E+03  0.16918843349E+03  0.41800000000E+01 0.  1.
         -5    1    3    3    0  502  0.60889758279E+02  0.64053356189E+01  0.99814158745E+01  0.62174689790E+02  0.41800000000E+01 0.  1.
        -11    1    1    2    0    0  0.10313806288E+01 -0.90756898886E+02 -0.30902122593E+02  0.95879192853E+02  0.00000000000E+00 0.  1.
         11    1    1    2    0    0 -0.75452938031E+02 -0.48176387865E+02 -0.10358584306E+01  0.89527555578E+02  0.00000000000E+00 0. -1.
</event>
<event>
 7    1  0.2522928E-009  0.1131065E+03  0.7561462E-02  0.1254923E+00
          1   -1    0    0  501    0  0.00000000000E+00  0.00000000000E+00  0.33594623766E+03  0.33594623766E+03  0.00000000000E+00 0. -1.
         -1   -1    0    0    0  501 -0.00000000000E+00 -0.00000000000E+00 -0.61157471399E+02  0.61157471399E+02  0.00000000000E+00 0.  1.
         25    2    1    2    0    0  0.24186039170E+02  0.81088704110E+02  0.88449999692E+02  0.17501758347E+03  0.12508960650E+03 0.  0.
          5    1    3    3  502    0  0.45793153652E+02  0.49598168855E+02  0.11135742377E+03  0.13028791005E+03  0.41800000000E+01 0.  1.
         -5    1    3    3    0  502 -0.21607114481E+02  0.31490535255E+02 -0.22907424078E+02  0.44729673425E+02  0.41800000000E+01 0.  1.
        -11    1    1    2    0    0 -0.45530853040E+02 -0.86841113685E+02  0.16049602416E+03  0.18807820548E+03  0.00000000000E+00 0. -1.
         11    1    1    2    0    0  0.21344813870E+02  0.57524095748E+01  0.25842742412E+02  0.34007920113E+02  0.00000000000E+00 0.  1.
</event>
<event>
 7    1  0.2522928E-009  0.1661605E+03  0.7561462E-02  0.1181912E+00
         -4   -1    0    0    0  501 -0.00000000000E+00  0.00000000000E+00  0.45417200328E+02  0.45417200328E+02  0.00000000000E+00 0.  1.
          4   -1    0    0  501    0  0.00000000000E+00 -0.00000000000E+00 -0.81746808340E+03  0.81746808340E+03  0.00000000000E+00 0. -1.
         25    2    1    2    0    0  0.13755134095E+03 -0.46422452829E+02 -0.54800876593E+03  0.58054917930E+03  0.12509327130E+03 0.  0.
          5    1    3    3  502    0  0.11377380962E+03  0.17960095541E+02 -0.25924914145E+03  0.28371576363E+03  0.41800000000E+01 0. -1.
         -5    1    3    3    0  502  0.23777531335E+02 -0.64382548370E+02 -0.28875962448E+03  0.29683341567E+03  0.41800000000E+01 0. -1.
        -11    1    1    2    0    0 -0.16264614067E+02  0.16939610647E+02  0.25684250699E+01  0.23623820330E+02  0.00000000000E+00 0. -1.
         11    1    1    2    0    0 -0.12128672689E+03  0.29482842181E+02 -0.22661054221E+03  0.25871228409E+03  0.00000000000E+00 0.  1.
</event>
<event>
 7    1  0.2522928E-009  0.1340042E+03  0.7561462E-02  0.1221632E+00
          2   -1    0    0  501    0  0.00000000000E+00  0.00000000000E+00  0.72094366750E+03  0.72094366750E+03  0.00000000000E+00 0.  1.
         -2   -1    0    0    0  501 -0.00000000000E+00 -0.00000000000E+00 -0.46450129314E+02  0.46450129314E+02  0.00000000000E+00 0. -1.
         25    2    1    2    0    0 -0.86719692563E+02 -0.45294849664E+02  0.58814946673E+03  0.60921199123E+03  0.12509007378E+03 0.  0.
          5    1    3    3  502    0 -0.99133763411E+02 -0.66933963565E+02  0.35369487222E+03  0.37339683122E+03  0.41800000000E+01 0. -1.
         -5    1    3    3    0  502  0.12414070849E+02  0.21639113901E+02  0.23445459451E+03  0.23581516001E+03  0.41800000000E+01 0. -1.
        -11    1    1    2    0    0  0.16649580572E+02  0.50097096514E+02  0.67063559099E+02  0.85348981080E+02  0.00000000000E+00 0.  1.
         11    1    1    2    0    0  0.70070111991E+02 -0.48022468498E+01  0.19280512362E+02  0.72832824511E+02  0.00000000000E+00 0. -1.
</event>
<event>
 7    1  0.2522928E-009  0.8710253E+02  0.7561462E-02  0.1310024E+00
         -1   -1    0    0    0  501 -0.00000000000E+00  0.00000000000E+00  0.27248472282E+02  0.27248472282E+02  0.00000000000E+00 0.  1.
          1   -1    0    0  501    0  0.00000000000E+00 -0.00000000000E+00 -0.79864103249E+03  0.79864103249E+03  0.00000000000E+00 0. -1.
         25    2    1    2    0    0 -0.21767444069E+02  0.51032086503E+02 -0.60416903848E+03  0.61947264550E+03  0.12509211000E+03 0.  0.
          5    1    3    3  502    0  0.28754880217E+02  0.63897104735E+01 -0.45207530960E+03  0.45305323030E+03  0.41800000000E+01 0. -1.
         -5    1    3    3    0  502 -0.50522324286E+02  0.44642376029E+02 -0.15209372888E+03  0.16641941520E+03  0.41800000000E+01 0. -1.
        -11    1    1    2    0    0 -0.95333754580E+01 -0.43737897062E+02 -0.99032098900E+01  0.45847164069E+02  0.00000000000E+00 0.  1.
         11    1    1    2    0    0  0.31300819527E+02 -0.72941894407E+01 -0.15732031184E+03  0.16056969521E+03  0.00000000000E+00 0. -1.
</event>
<event>
 7    1  0.2522928E-009  0.1088305E+03  0.7561462E-02  0.1262751E+00
          1   -1    0    0  501    0  0.00000000000E+00  0.00000000000E+00  0.42955469906E+02  0.42955469906E+02  0.00000000000E+00 0. -1.
         -1   -1    0    0    0  501 -0.00000000000E+00 -0.00000000000E+00 -0.29765821481E+03  0.29765821481E+03  0.00000000000E+00 0.  1.
         25    2    1    2    0    0  0.27613861085E+02  0.12317390688E+02 -0.16704982282E+03  0.21087384033E+03  0.12509152568E+03 0.  0.
          5    1    3    3  502    0  0.25951807484E+02 -0.52186043878E+02 -0.48927028175E+02  0.76211586871E+02  0.41800000000E+01 0. -1.
         -5    1    3    3    0  502  0.16620536004E+01  0.64503434567E+02 -0.11812279464E+03  0.13466225346E+03  0.41800000000E+01 0. -1.
        -11    1    1    2    0    0 -0.31104362344E+02  0.35170976498E+02 -0.33786701730E+02  0.57844793702E+02  0.00000000000E+00 0. -1.
         11    1    1    2    0    0  0.34905012589E+01 -0.47488367187E+02 -0.53866220358E+02  0.71895050683E+02  0.00000000000E+00 0.  1.
</event>
<event>
 7    1  0.2522928E-009  0.8679770E+02  0.7561462E-02  0.1310797E+00
         -1   -1    0    0    0  501 -0.00000000000E+00  0.00000000000E+00  0.17149914363E+03  0.17149914363E+03  0.00000000000E+00 0.  1.
          1   -1    0    0  501    0  0.00000000000E+00 -0.00000000000E+00 -0.15095473000E+03  0.15095473000E+03  0.00000000000E+00 0. -1.
         25    2    1    2    0    0  0.35093492194E+02 -0.11769126707E+02 -0.10171756040E+03  0.16542187413E+03  0.12509144180E+03 0.  0.
          5    1    3    3  502    0 -0.30024658840E+02  0.25084039986E+02 -0.77069591434E+02  0.86532557597E+02  0.41800000000E+01 0.  1.
         -5    1    3    3    0  502  0.65118151034E+02 -0.36853166693E+02 -0.24647968961E+02  0.78889316535E+02  0.41800000000E+01 0.  1.
        -11    1    1    2    0    0 -0.43732150420E+02 -0.11735492126E+01  0.13173861741E+03  0.13881261296E+03  0.00000000000E+00 0.  1.
         11    1    1    2    0    0  0.86386582257E+01  0.12942675919E+02 -0.94766433911E+01  0.18219386539E+02  0.00000000000E+00 0. -1.
</event>
<event>
 7    1  0.2522928E-009  0.9195794E+02  0.7561462E-02  0.1298178E+00
          4   -1    0    0  501    0  0.00000000000E+00  0.00000000000E+00  0.68564795581E+03  0.68564795581E+03  0.00000000000E+00 0. -1.
         -4   -1    0    0    0  501 -0.00000000000E+00 -0.00000000000E+00 -0.23797560903E+02  0.23797560903E+02  0.00000000000E+00 0.  1.
         25    2    1    2    0    0  0.41717021479E+02  0.28162940363E+02  0.50824438305E+03  0.52582554076E+03  0.12508671122E+03 0.  0.
          5    1    3    3  502    0 -0.26401786154E+02  0.54039806991E+02  0.19081326755E+03  0.20011129535E+03  0.41800000000E+01 0.  1.
         -5    1    3    3    0  502  0.68118807633E+02 -0.25876866628E+02  0.31743111550E+03  0.32571424541E+03  0.41800000000E+01 0.  1.
        -11    1    1    2    0    0 -0.15312753722E+02 -0.71830287997E+01 -0.78733790053E+01  0.18656538432E+02  0.00000000000E+00 0.  1.
         11    1    1    2    0    0 -0.26404267757E+02 -0.20979911563E+02  0.16147939087E+03  0.16496343752E+03  0.00000000000E+00 0. -1.
</event>
<event>
 7    1  0.2522928E-009  0.1214118E+03  0.7561462E-02  0.1240786E+00
         -1   -1    0    0    0  501 -0.00000000000E+00  0.00000000000E+00  0.14457539250E+02  0.14457539250E+02  0.00000000000E+00 0.  1.
          1   -1    0    0  501    0  0.00000000000E+00 -0.00000000000E+00 -0.19656342979E+04  0.19656342979E+04  0.00000000000E+00 0. -1.
         25    2    1    2    0    0  0.68424562462E+02  0.27830621507E+02 -0.16642631237E+04  0.16705914061E+04  0.12508971486E+03 0.  0.
          5    1    3    3  502    0  0.73734069822E+02 -0.35211286180E+02 -0.95969258675E+03  0.96317385824E+03  0.41800000000E+01 0. -1.
         -5    1    3    3    0  502 -0.53095073607E+01  0.63041907688E+02 -0.70457053699E+03  0.70741754784E+03  0.41800000000E+01 0. -1.
        -11    1    1    2    0    0  0.57044039533E+01 -0.22579334705E+02 -0.15206737096E+02  0.27813871239E+02  0.00000000000E+00 0.  1.
         11    1    1    2    0    0 -0.74128966415E+02 -0.52512868025E+01 -0.27170689786E+03  0.28168655988E+03  0.00000000000E+00 0. -1.
</event>
<event>
 7    1  0.2522928E-009  0.1235877E+03  0.7561462E-02  0.1237293E+00
          2   -1    0    0  501    0  0.00000000000E+00  0.00000000000E+00  0.99105384122E+02  0.99105384122E+02  0.00000000000E+00 0. -1.
         -2   -1    0    0    0  501 -0.00000000000E+00 -0.00000000000E+00 -0.21151540343E+03  0.21151540343E+03  0.00000000000E+00 0.  1.
         25    2    1    2    0    0  0.91227147598E+02 -0.17116878187E+02 -0.38228972068E+02  0.16039371285E+03  0.12509719756E+03 0.  0.
          5    1    3    3  502    0  0.39670622382E+02 -0.69878641277E+02 -0.91155719840E+01  0.80977458836E+02  0.41800000000E+01 0.  1.
         -5    1    3    3    0  502  0.51556525217E+02  0.52761763091E+02 -0.29113400084E+02  0.79416254012E+02  0.41800000000E+01 0.  1.
        -11    1    1    2    0    0 -0.75616156629E+02  0.14594953478E+02 -0.96130677031E+02  0.12317435966E+03  0.00000000000E+00 0.  1.
         11    1    1    2    0    0 -0.15610990969E+02  0.25219247083E+01  0.21949629794E+02  0.27052715046E+02  0.00000000000E+00 0. -1.
</event>
<event>
 7    1  0.2522928E-009  0.8009236E+02  0.7561462E-02  0.1328790E+00
          1   -1    0    0  501    0  0.00000000000E+00  0.00000000000E+00  0.45340795181E+03  0.45340795181E+03  0.00000000000E+00 0. -1.
         -1   -1    0    0    0  501 -0.00000000000E+00 -0.00000000000E+00 -0.30479954853E+02  0.30479954853E+02  0.00000000000E+00 0.  1.
         25    2    1    2    0    0 -0.40023722061E+02  0.91915440745E+01  0.27982861040E+03  0.30925473052E+03  0.12509218337E+03 0.  0.
          5    1    3    3  502    0 -0.39641869949E+02  0.32910382573E+02  0.33161658592E+02  0.61414486359E+02  0.41800000000E+01 0.  1.
         -5    1    3    3    0  502 -0.38185211149E+00 -0.23718838498E+02  0.24666695181E+03  0.24784024416E+03  0.41800000000E+01 0.  1.
        -11    1    1    2    0    0 -0.59328036411E+01  0.25907854238E+02  0.97304367689E+02  0.10086899941E+03  0.00000000000E+00 0. -1.
         11    1    1    2    0    0  0.45956525702E+02 -0.35099398312E+02  0.45795018870E+02  0.73764176737E+02  0.00000000000E+00 0.  1.
</event>
<event>
 7    1  0.2522928E-009  0.1317896E+03  0.7561462E-02  0.1224824E+00
          2   -1    0    0  501    0  0.00000000000E+00  0.00000000000E+00  0.18611810722E+03  0.18611810722E+03  0.00000000000E+00 0. -1.
         -2   -1    0    0    0  501 -0.00000000000E+00 -0.00000000000E+00 -0.11950908304E+03  0.11950908304E+03  0.00000000000E+00 0.  1.
         25    2    1    2    0    0  0.30771149201E+02  0.88947784154E+02  0.76994949584E+02  0.17445665502E+03  0.12509328636E+03 0.  0.
          5    1    3    3  502    0 -0.45878251671E+01  0.10234580847E+03  0.17764312815E+02  0.10406130819E+03  0.41800000000E+01 0.  1.
         -5    1    3    3    0  502  0.35358974368E+02 -0.13398024320E+02  0.59230636769E+02  0.70395346836E+02  0.41800000000E+01 0.  1.
        -11    1    1    2    0    0 -0.14743073891E+02 -0.10154943186E+03 -0.25566454397E+02  0.10575107058E+03  0.00000000000E+00 0.  1.
         11    1    1    2    0    0 -0.16028075310E+02  0.12601647703E+02  0.15180528989E+02  0.25419464655E+02  0.00000000000E+00 0. -1.
</event>
<event>
 7    1  0.2522928E-009  0.1085593E+03  0.7561462E-02  0.1263261E+00
         -2   -1    0    0    0  501 -0.00000000000E+00  0.00000000000E+00  0.21574972811E+03  0.21574972811E+03  0.00000000000E+00 0.  1.
          2   -1    0    0  501    0  0.00000000000E+00 -0.00000000000E+00 -0.59965959937E+02  0.59965959937E+02  0.00000000000E+00 0. -1.
         25    2    1    2    0    0 -0.19130703184E+02  0.53581827793E+01  0.71786248023E+02  0.14558614884E+03  0.12508943761E+03 0.  0.
          5    1    3    3  502    0 -0.62331307940E+02 -0.31129430234E+02  0.43211660538E+02  0.82091128526E+02  0.41800000000E+01 0. -1.
         -5    1    3    3    0  502  0.43200604756E+02  0.36487613014E+02  0.28574587486E+02  0.63495020314E+02  0.41800000000E+01 0. -1.
        -11    1    1    2    0    0 -0.35559538193E+02  0.90744262844E+00  0.60699426342E+02  0.70354278952E+02  0.00000000000E+00 0.  1.
         11    1    1    2    0    0  0.54690241377E+02 -0.62656254078E+01  0.23298093809E+02  0.59775260257E+02  0.00000000000E+00 0. -1.
</event>
<event>
 7    1  0.2522928E-009  0.1031018E+03  0.7561462E-02  0.1273905E+00
          2   -1    0    0  501    0  0.00000000000E+00  0.00000000000E+00  0.25092538172E+03  0.25092538172E+03  0.00000000000E+00 0. -1.
         -2   -1    0    0    0  501 -0.00000000000E+00 -0.00000000000E+00 -0.64127773922E+02  0.64127773922E+02  0.00000000000E+00 0.  1.
         25    2    1    2    0    0  0.61740915192E+01  0.22750880690E+02  0.28724962162E+02  0.13049293684E+03  0.12509021199E+03 0.  0.
          5    1    3    3  502    0 -0.12835949056E+02  0.72384131404E+02  0.11898961641E+02  0.74587410167E+02  0.41800000000E+01 0.  1.
         -5    1    3    3    0  502  0.19010040576E+02 -0.49633250714E+02  0.16826000521E+02  0.55905526674E+02  0.41800000000E+01 0.  1.
        -11    1    1    2    0    0  0.24438403693E+02 -0.37904912969E+02  0.35729004528E+02  0.57537637828E+02  0.00000000000E+00 0.  1.
         11    1    1    2    0    0 -0.30612495212E+02  0.15154032279E+02  0.12234364111E+03  0.12702258097E+03  0.00000000000E+00 0. -1.
</event>
<event>
 7    1  0.2522928E-009  0.3866827E+03  0.7561462E-02  0.1048491E+00
         -2   -1    0    0    0  501 -0.00000000000E+00  0.00000000000E+00  0.22849380202E+03  0.22849380202E+03  0.00000000000E+00 0. -1.
          2   -1    0    0  501    0  0.00000000000E+00 -0.00000000000E+00 -0.69051518662E+03  0.69051518662E+03  0.00000000000E+00 0.  1.
         25    2    1    2    0    0 -0.35685267372E+03  0.13190482369E+03 -0.27313075462E+03  0.48475837187E+03  0.12509019436E+03 0.  0.
          5    1    3    3  502    0 -0.13476912451E+03  0.50360759398E+00 -0.13997131428E+03  0.19435125871E+03  0.41800000000E+01 0.  1.
         -5    1    3    3    0  502 -0.22208354921E+03  0.13140121609E+03 -0.13315944034E+03  0.29040711316E+03  0.41800000000E+01 0.  1.
        -11    1    1    2    0    0  0.23222981916E+03 -0.85467776925E+02 -0.73410224869E+02  0.25811720383E+03  0.00000000000E+00 0. -1.
         11    1    1    2    0    0  0.12462285456E+03 -0.46437046762E+02 -0.11548040510E+03  0.17613341294E+03  0.00000000000E+00 0.  1.
</event>
<event>
 7    1  0.2522928E-009  0.7255301E+02  0.7561462E-02  0.1351620E+00
         -1   -1    0    0    0  501 -0.00000000000E+00  0.00000000000E+00  0.11697197685E+02  0.11697197685E+02  0.00000000000E+00 0.  1.
          1   -1    0    0  501    0  0.00000000000E+00 -0.00000000000E+00 -0.10057547375E+04  0.10057547375E+04  0.00000000000E+00 0. -1.
         25    2    1    2    0    0  0.29540710503E+02  0.56295807144E+01 -0.73384700551E+03  0.74503820030E+03  0.12508455802E+03 0.  0.
          5    1    3    3  502    0 -0.24333847545E+02 -0.48996726517E+00 -0.60078447709E+03  0.60129180646E+03  0.41800000000E+01 0.  1.
         -5    1    3    3    0  502  0.53874558048E+02  0.61195479796E+01 -0.13306252841E+03  0.14374639383E+03  0.41800000000E+01 0.  1.
        -11    1    1    2    0    0 -0.41837742085E+02 -0.20617519824E+02 -0.23968030147E+03  0.24417642330E+03  0.00000000000E+00 0. -1.
         11    1    1    2    0    0  0.12297031582E+02  0.14987939110E+02 -0.20530232815E+02  0.28237311556E+02  0.00000000000E+00 0.  1.
</event>
<event>
 7    1  0.2522928E-009  0.1627062E+03  0.7561462E-02  0.1185675E+00
          2   -1    0    0  501    0  0.00000000000E+00  0.00000000000E+00  0.55441715160E+03  0.55441715160E+03  0.00000000000E+00 0.  1.
         -2   -1    0    0    0  501 -0.00000000000E+00 -0.00000000000E+00 -0.49738868596E+02  0.49738868596E+02  0.00000000000E+00 0. -1.
         25    2    1    2    0    0 -0.90733281434E+02 -0.82969762753E+02  0.22923611011E+03  0.28864496281E+03  0.12510080131E+03 0.  0.
          5    1    3    3  502    0 -0.12098570407E+03 -0.77653399408E+02  0.17910125921E+03  0.22970051041E+03  0.41800000000E+01 0. -1.
         -5    1    3    3    0  502  0.30252422641E+02 -0.53163633453E+01  0.50134850898E+02  0.58944452405E+02  0.41800000000E+01 0. -1.
        -11    1    1    2    0    0  0.10773418419E+03  0.64863424354E+02  0.20161906760E+03  0.23762189857E+03  0.00000000000E+00 0. -1.
         11    1    1    2    0    0 -0.17000902756E+02  0.18106338400E+02  0.73823105300E+02  0.77889158815E+02  0.00000000000E+00 0.  1.
</event>
<event>
 7    1  0.2522928E-009  0.1648216E+03  0.7561462E-02  0.1183358E+00
         -2   -1    0    0    0  501 -0.00000000000E+00  0.00000000000E+00  0.35209500989E+03  0.35209500989E+03  0.00000000000E+00 0.  1.
          2   -1    0    0  501    0  0.00000000000E+00 -0.00000000000E+00 -0.81201091309E+02  0.81201091309E+02  0.00000000000E+00 0. -1.
         25    2    1    2    0    0  0.11972424121E+03  0.33577753576E+02  0.99362221263E+02  0.20243616322E+03  0.12508473006E+03 0.  0.
          5    1    3    3  502    0  0.32616721705E+02  0.73383050780E+02  0.48670972493E+02  0.93996056513E+02  0.41800000000E+01 0.  1.
         -5    1    3    3    0  502  0.87107519507E+02 -0.39805297204E+02  0.50691248770E+02  0.10844010670E+03  0.41800000000E+01 0.  1.
        -11    1    1    2    0    0 -0.66453975838E+02 -0.63798056804E+02  0.11650929580E+03  0.14852857962E+03  0.00000000000E+00 0. -1.
         11    1    1    2    0    0 -0.53270265374E+02  0.30220303228E+02  0.55022401514E+02  0.82331358355E+02  0.00000000000E+00 0.  1.
</event>
<event>
 7    1  0.2522928E-009  0.8163639E+02  0.7561462E-02  0.1324471E+00
          2   -1    0    0  501    0  0.00000000000E+00  0.00000000000E+00  0.18149383138E+03  0.18149383138E+03  0.00000000000E+00 0. -1.
         -2   -1    0    0    0  501 -0.00000000000E+00 -0.00000000000E+00 -0.74534378421E+02  0.74534378421E+02  0.00000000000E+00 0.  1.
         25    2    1    2    0    0  0.24261764212E+02 -0.44489561479E+01  0.10055332617E+03  0.16237839289E+03  0.12508934671E+03 0.  0.
          5    1    3    3  502    0  0.39208503815E+02  0.27071726840E+02  0.11487707060E+03  0.12443632474E+03  0.41800000000E+01 0.  1.
         -5    1    3    3    0  502 -0.14946739603E+02 -0.31520682988E+02 -0.14323744435E+02  0.37942068149E+02  0.41800000000E+01 0.  1.
        -11    1    1    2    0    0 -0.50538060415E+02  0.13849877699E+02  0.27017249593E+02  0.58956309572E+02  0.00000000000E+00 0. -1.
         11    1    1    2    0    0  0.26276296203E+02 -0.94009215508E+01 -0.20611122802E+02  0.34693507337E+02  0.00000000000E+00 0.  1.
</event>
<event>
 7    1  0.2522928E-009  0.1768863E+03  0.7561462E-02  0.1170851E+00
         -1   -1    0    0    0  501 -0.00000000000E+00  0.00000000000E+00  0.12637796020E+03  0.12637796020E+03  0.00000000000E+00 0. -1.
          1   -1    0    0  501    0  0.00000000000E+00 -0.00000000000E+00 -0.27299816385E+03  0.27299816385E+03  0.00000000000E+00 0.  1.
         25    2    1    2    0    0 -0.14863653518E+03  0.28755594466E+02 -0.82721370234E+02  0.21309688570E+03  0.12509098209E+03 0.  0.
          5    1    3    3  502    0  0.15619481346E+02  0.27256338939E+02 -0.18359005312E+02  0.36625151001E+02  0.41800000000E+01 0. -1.
         -5    1    3    3    0  502 -0.16425601652E+03  0.14992555276E+01 -0.64362364923E+02  0.17647173470E+03  0.41800000000E+01 0. -1.
        -11    1    1    2    0    0  0.10067334719E+03  0.21692277919E+01 -0.78142462494E+02  0.12746008327E+03  0.00000000000E+00 0.  1.
         11    1    1    2    0    0  0.47963187991E+02 -0.30924822258E+02  0.14243629077E+02  0.58819155071E+02  0.00000000000E+00 0. -1.
</event>
<event>
 7    1  0.2522928E-009  0.1089286E+03  0.7561462E-02  0.1262567E+00
         -1   -1    0    0    0  501 -0.00000000000E+00  0.00000000000E+00  0.46621780480E+02  0.46621780480E+02  0.00000000000E+00 0.  1.
          1   -1    0    0  501    0  0.00000000000E+00 -0.00000000000E+00 -0.27390834140E+03  0.27390834140E+03  0.00000000000E+00 0. -1.
         25    2    1    2    0    0 -0.23648063775E+02 -0.26078488033E+02 -0.13387606309E+03  0.18657123372E+03  0.12508679596E+03 0.  0.
          5    1    3    3  502    0  0.48166268758E+02 -0.84282569673E+01 -0.83963110818E+02  0.97253798588E+02  0.41800000000E+01 0.  1.
         -5    1    3    3    0  502 -0.71814332532E+02 -0.17650231066E+02 -0.49912952270E+02  0.89317435129E+02  0.41800000000E+01 0.  1.
        -11    1    1    2    0    0  0.57337697330E+02  0.15404531873E+02 -0.47572267143E+02  0.76079114995E+02  0.00000000000E+00 0.  1.
         11    1    1    2    0    0 -0.33689633555E+02  0.10673956160E+02 -0.45838230684E+02  0.57879773163E+02  0.00000000000E+00 0. -1.
</event>
<event>
 7    1  0.2522928E-009  0.1290265E+03  0.7561462E-02  0.1228907E+00
          2   -1    0    0  501    0  0.00000000000E+00  0.00000000000E+00  0.57064091113E+03  0.57064091113E+03  0.00000000000E+00 0. -1.
         -2   -1    0    0    0  501 -0.00000000000E+00 -0.00000000000E+00 -0.34225410310E+02  0.34225410310E+02  0.00000000000E+00 0.  1.
         25    2    1    2    0    0 -0.84193716419E+02 -0.28444910816E+02  0.29973768442E+03  0.33672753957E+03  0.12508022068E+03 0.  0.
          5    1    3    3  502    0 -0.39108656366E+02  0.41576019110E+02  0.19284215174E+03  0.20115571147E+03  0.41800000000E+01 0. -1.
         -5    1    3    3    0  502 -0.45085060053E+02 -0.70020929926E+02  0.10689553268E+03  0.13557182810E+03  0.41800000000E+01 0. -1.
        -11    1    1    2    0    0  0.94023566950E+02  0.40075204909E+02  0.22964993672E+03  0.25136735394E+03  0.00000000000E+00 0. -1.
         11    1    1    2    0    0 -0.98298505311E+01 -0.11630294094E+02  0.70278796792E+01  0.16771427934E+02  0.00000000000E+00 0.  1.
</event>
<event>
 7    1  0.2522928E-009  0.1669438E+03  0.7561462E-02  0.1181073E+00
          1   -1    0    0  501    0  0.00000000000E+00  0.00000000000E+00  0.26814748713E+03  0.26814748713E+03  0.00000000000E+00 0. -1.
         -1   -1    0    0    0  501 -0.00000000000E+00 -0.00000000000E+00 -0.11866104138E+03  0.11866104138E+03  0.00000000000E+00 0.  1.
         25    2    1    2    0    0  0.10894738743E+03 -0.85169307708E+02  0.10908439229E+03  0.21603178124E+03  0.12508789575E+03 0.  0.
          5    1    3    3  502    0  0.67091200518E+02  0.21782739160E+02  0.51830937426E+02  0.87633528896E+02  0.41800000000E+01 0. -1.
         -5    1    3    3    0  502  0.41856186908E+02 -0.10695204687E+03  0.57253454867E+02  0.12839825235E+03  0.41800000000E+01 0. -1.
        -11    1    1    2    0    0 -0.58509018702E+02  0.12482467557E+02  0.54811632457E+02  0.81138352944E+02  0.00000000000E+00 0. -1.
         11    1    1    2    0    0 -0.50438368725E+02  0.72686840150E+02 -0.14409578999E+02  0.89638394327E+02  0.00000000000E+00 0.  1.
</event>
<event>
 7    1  0.2522928E-009  0.1270167E+03  0.7561462E-02  0.1231951E+00
         -1   -1    0    0    0  501 -0.00000000000E+00  0.00000000000E+00  0.17405027021E+03  0.17405027021E+03  0.00000000000E+00 0.  1.
          1   -1    0    0  501    0  0.00000000000E+00 -0.00000000000E+00 -0.11130251663E+03  0.11130251663E+03  0.00000000000E+00 0. -1.
         25    2    1    2    0    0 -0.85644102918E+02  0.32174615310E+01  0.14839361070E+02  0.15235658732E+03  0.12508820344E+03 0.  0.
          5    1    3    3  502    0 -0.10852518075E+03  0.78735065117E+01 -0.19497755025E+02  0.11062251947E+03  0.41800000000E+01 0.  1.
         -5    1    3    3    0  502  0.22881077837E+02 -0.46560449807E+01  0.34337116095E+02  0.41734067853E+02  0.41800000000E+01 0.  1.
        -11    1    1    2    0    0  0.50985845880E+02 -0.44391156632E+02  0.12982877882E+02  0.68838117241E+02  0.00000000000E+00 0. -1.
         11    1    1    2    0    0  0.34658257038E+02  0.41173695101E+02  0.34925514631E+02  0.64158082277E+02  0.00000000000E+00 0.  1.
</event>
<event>
 7    1  0.3709504E-009  0.9361989E+02  0.7561462E-02  0.1294315E+00
         -2   -1    0    0    0  501 -0.00000000000E+00  0.00000000000E+00  0.20419096114E+02  0.20419096114E+02  0.00000000000E+00 0. -1.
          2   -1    0    0  501    0  0.00000000000E+00 -0.00000000000E+00 -0.81340842584E+03  0.81340842584E+03  0.00000000000E+00 0.  1.
         25    2    1    2    0    0 -0.53807531448E+02  0.40244258432E+02 -0.50007192394E+03  0.51984063498E+03  0.12508999115E+03 0.  0.
          5    1    3    3  502    0 -0.16561279547E+02 -0.10292980536E+02 -0.46995840213E+01  0.20488531390E+02  0.41800000000E+01 0.  1.
         -5    1    3    3    0  502 -0.37246251901E+02  0.50537238968E+02 -0.49537233992E+03  0.49935210359E+03  0.41800000000E+01 0.  1.
        -11    1    1    2    0    0  0.27607813887E+02 -0.63566187327E+02 -0.12981723570E+03  0.14715762380E+03  0.00000000000E+00 0. -1.
         11    1    1    2    0    0  0.26199717561E+02  0.23321928895E+02 -0.16310017009E+03  0.16682926317E+03  0.00000000000E+00 0.  1.
</event>
<event>
 7    1  0.2522928E-009  0.1785657E+03  0.7561462E-02  0.1169198E+00
         -2   -1    0    0    0  501 -0.00000000000E+00  0.00000000000E+00  0.11151128421E+03  0.11151128421E+03  0.00000000000E+00 0. -1.
          2   -1    0    0  501    0  0.00000000000E+00 -0.00000000000E+00 -0.47570866982E+03  0.47570866982E+03  0.00000000000E+00 0.  1.
         25    2    1    2    0    0 -0.15261619300E+03 -0.10406744442E+02 -0.35802597319E+03  0.40893728754E+03  0.12508838861E+03 0.  0.
          5    1    3    3  502    0  0.17182608172E+02  0.12264806309E+02 -0.75499616643E+02  0.78506891485E+02  0.41800000000E+01 0. -1.
         -5    1    3    3    0  502 -0.16979880117E+03 -0.22671550751E+02 -0.28252635655E+03  0.33043039605E+03  0.41800000000E+01 0. -1.
        -11    1    1    2    0    0  0.65342670557E+02  0.34259909559E+02 -0.37210548049E+02  0.82631899921E+02  0.00000000000E+00 0.  1.
         11    1    1    2    0    0  0.87273522443E+02 -0.23853165117E+02  0.31039135626E+02  0.95650766573E+02  0.00000000000E+00 0. -1.
</event>
<event>
 7    1  0.2522928E-009  0.1430419E+03  0.7561462E-02  0.1209294E+00
         -2   -1    0    0    0  501 -0.00000000000E+00  0.00000000000E+00  0.28503980570E+03  0.28503980570E+03  0.00000000000E+00 0. -1.
          2   -1    0    0  501    0  0.00000000000E+00 -0.00000000000E+00 -0.85051487877E+02  0.85051487877E+02  0.00000000000E+00 0.  1.
         25    2    1    2    0    0 -0.45486713673E+02  0.95441651280E+02  0.65755844067E+02  0.17649050510E+03  0.12508763905E+03 0.  0.
          5    1    3    3  502    0 -0.42883840457E+02 -0.10771730934E+02 -0.10509587153E+02  0.45639651420E+02  0.41800000000E+01 0. -1.
         -5    1    3    3    0  502 -0.26028732167E+01  0.10621338221E+03  0.76265431220E+02  0.13085085368E+03  0.41800000000E+01 0. -1.
        -11    1    1    2    0    0  0.58721754807E+02 -0.25259686630E+02  0.40171906647E+02  0.75498863170E+02  0.00000000000E+00 0.  1.
         11    1    1    2    0    0 -0.13235041134E+02 -0.70181964650E+02  0.94060567107E+02  0.11810192530E+03  0.00000000000E+00 0. -1.
</event>
<event>
 7    1  0.2522928E-009  0.1115444E+03  0.7561462E-02  0.1257736E+00
          1   -1    0    0  501    0  0.00000000000E+00  0.00000000000E+00  0.33088915078E+03  0.33088915078E+03  0.00000000000E+00 0. -1.
         -1   -1    0    0    0  501 -0.00000000000E+00 -0.00000000000E+00 -0.49397506337E+02  0.49397506337E+02  0.00000000000E+00 0.  1.
         25    2    1    2    0    0 -0.80115569404E+01 -0.48953284829E+02  0.89051406385E+02  0.16136248790E+03  0.12508833032E+03 0.  0.
          5    1    3    3  502    0 -0.39300851068E+02  0.23922993024E+02  0.62323712920E+01  0.46617393126E+02  0.41800000000E+01 0.  1.
         -5    1    3    3    0  502  0.31289294128E+02 -0.72876277854E+02  0.82819035093E+02  0.11474509477E+03  0.41800000000E+01 0.  1.
        -11    1    1    2    0    0  0.52550144570E+01 -0.23947689582E+02  0.19839399481E+02  0.31539004186E+02  0.00000000000E+00 0.  1.
         11    1    1    2    0    0  0.27565424834E+01  0.72900974412E+02  0.17260083858E+03  0.18738516503E+03  0.00000000000E+00 0. -1.
</event>
<event>
 7    1  0.2522928E-009  0.2587300E+03  0.7561462E-02  0.1107909E+00
          1   -1    0    0  501    0  0.00000000000E+00  0.00000000000E+00  0.11939548265E+03  0.11939548265E+03  0.00000000000E+00 0. -1.
         -1   -1    0    0    0  501 -0.00000000000E+00 -0.00000000000E+00 -0.70008041003E+03  0.70008041003E+03  0.00000000000E+00 0.  1.
         25    2    1    2    0    0  0.18464300989E+03  0.16138720245E+03 -0.14396093293E+03  0.31066369736E+03  0.12509321497E+03 0.  0.
          5    1    3    3  502    0  0.55009383971E+02  0.10757966626E+03 -0.11587484676E+03  0.16746303900E+03  0.41800000000E+01 0.  1.
         -5    1    3    3    0  502  0.12963362592E+03  0.53807536190E+02 -0.28086086166E+02  0.14320065836E+03  0.41800000000E+01 0.  1.
        -11    1    1    2    0    0 -0.16590965080E+03 -0.16815235869E+03 -0.42343168247E+03  0.48486659782E+03  0.00000000000E+00 0.  1.
         11    1    1    2    0    0 -0.18733359084E+02  0.67651562439E+01 -0.13292311975E+02  0.23945597492E+02  0.00000000000E+00 0. -1.
</event>
<event>
 7    1  0.2522928E-009  0.8150824E+02  0.7561462E-02  0.1324825E+00
          1   -1    0    0  501    0  0.00000000000E+00  0.00000000000E+00  0.16525664806E+03  0.16525664806E+03  0.00000000000E+00 0. -1.
         -1   -1    0    0    0  501 -0.00000000000E+00 -0.00000000000E+00 -0.10918762331E+03  0.10918762331E+03  0.00000000000E+00 0.  1.
         25    2    1    2    0    0  0.59111845137E+02  0.34025683020E+01  0.80800244020E+02  0.16025873794E+03  0.12509354878E+03 0.  0.
          5    1    3    3  502    0 -0.12302446905E+02  0.18942421790E+02  0.83900583392E+02  0.86988193662E+02  0.41800000000E+01 0. -1.
         -5    1    3    3    0  502  0.71414292042E+02 -0.15539853488E+02 -0.31003393718E+01  0.73270544276E+02  0.41800000000E+01 0. -1.
        -11    1    1    2    0    0 -0.42424098529E+02 -0.16609521090E+02 -0.58574693097E+02  0.74206974054E+02  0.00000000000E+00 0.  1.
         11    1    1    2    0    0 -0.16687746608E+02  0.13206952787E+02  0.33843473835E+02  0.39978559379E+02  0.00000000000E+00 0. -1.
</event>
<event>
 7    1  0.2522928E-009  0.9688833E+02  0.7561462E-02  0.1286979E+00
         -1   -1    0    0    0  501 -0.00000000000E+00  0.00000000000E+00  0.93496988365E+02  0.93496988365E+02  0.00000000000E+00 0.  1.
          1   -1    0    0  501    0  0.00000000000E+00 -0.00000000000E+00 -0.19554460515E+03  0.19554460515E+03  0.00000000000E+00 0. -1.
         25    2    1    2    0    0 -0.62062486735E+02 -0.24624120977E+02 -0.10720805985E+03  0.17776014284E+03  0.12508797181E+03 0.  0.
          5    1    3    3  502    0  0.17089228152E+02 -0.24976253632E+02 -0.92146732778E+02  0.97079079755E+02  0.41800000000E+01 0. -1.
         -5    1    3    3    0  502 -0.79151714886E+02  0.35213265454E+00 -0.15061327075E+02  0.80681063083E+02  0.41800000000E+01 0. -1.
        -11    1    1    2    0    0  0.62676376456E+01  0.27392080023E+02 -0.33214976543E+02  0.43506827009E+02  0.00000000000E+00 0. -1.
         11    1    1    2    0    0  0.55794849089E+02 -0.27679590456E+01  0.38375419616E+02  0.67774623664E+02  0.00000000000E+00 0.  1.
</event>
<event>
 7    1  0.2522928E-009  0.7627596E+02  0.7561462E-02  0.1339965E+00
          2   -1    0    0  501    0  0.00000000000E+00  0.00000000000E+00  0.51419741325E+03  0.51419741325E+03  0.00000000000E+00 0.  1.
         -2   -1    0    0    0  501 -0.00000000000E+00 -0.00000000000E+00 -0.23174181815E+02  0.23174181815E+02  0.00000000000E+00 0. -1.
         25    2    1    2    0    0  0.14554457452E+02  0.10418862206E+02  0.25108609607E+03  0.28108975266E+03  0.12508731548E+03 0.  0.
          5    1    3    3  502    0 -0.28924446519E+02  0.24307633316E+02  0.22533127944E+03  0.22851508164E+03  0.41800000000E+01 0. -1.
         -5    1    3    3    0  502  0.43478903971E+02 -0.13888771110E+02  0.25754816625E+02  0.52574671020E+02  0.41800000000E+01 0. -1.
        -11    1    1    2    0    0 -0.41217783345E+02 -0.73109569067E+01  0.21691658059E+03  0.22091889618E+03  0.00000000000E+00 0.  1.
         11    1    1    2    0    0  0.26663325893E+02 -0.31079052996E+01  0.23020554778E+02  0.35362946220E+02  0.00000000000E+00 0. -1.
</event>
<event>
 7    1  0.2522928E-009  0.7814031E+02  0.7561462E-02  0.1334413E+00
          2   -1    0    0  501    0  0.00000000000E+00  0.00000000000E+00  0.56240041358E+03  0.56240041358E+03  0.00000000000E+00 0. -1.
         -2   -1    0    0    0  501 -0.00000000000E+00 -0.00000000000E+00 -0.21735300667E+02  0.21735300667E+02  0.00000000000E+00 0.  1.
         25    2    1    2    0    0 -0.13060755748E+02 -0.18383606139E+02  0.27580641641E+03  0.30368533891E+03  0.12508823056E+03 0.  0.
          5    1    3    3  502    0 -0.33329890545E+02 -0.26006487055E+02  0.27826931918E+03  0.28149334872E+03  0.41800000000E+01 0. -1.
         -5    1    3    3    0  502  0.20269134796E+02  0.76228809159E+01 -0.24629027762E+01  0.22191990198E+02  0.41800000000E+01 0. -1.
        -11    1    1    2    0    0  0.39706766207E+02  0.40793314509E+02  0.17766132074E+03  0.18655901661E+03  0.00000000000E+00 0. -1.
         11    1    1    2    0    0 -0.26646010459E+02 -0.22409708370E+02  0.87197375763E+02  0.93891358722E+02  0.00000000000E+00 0.  1.
</event>
<event>
 7    1  0.2522928E-009  0.1213795E+03  0.7561462E-02  0.1240838E+00
          2   -1    0    0  501    0  0.00000000000E+00  0.00000000000E+00  0.48848189570E+03  0.48848189570E+03  0.00000000000E+00 0. -1.
         -2   -1    0    0    0  501 -0.00000000000E+00 -0.00000000000E+00 -0.47536845820E+02  0.47536845820E+02  0.00000000000E+00 0.  1.
         25    2    1    2    0    0 -0.23713706036E+01 -0.98219386099E+02  0.30515031050E+03  0.34411773323E+03  0.12509049172E+03 0.  0.
          5    1    3    3  502    0  0.32655741808E+02 -0.52202476652E+02  0.26854929783E+03  0.27554980277E+03  0.41800000000E+01 0.  1.
         -5    1    3    3    0  502 -0.35027112412E+02 -0.46016909447E+02  0.36601012675E+02  0.68567930462E+02  0.41800000000E+01 0.  1.
        -11    1    1    2    0    0  0.33929383340E+02  0.21665355324E+02  0.86818289981E+02  0.95697472017E+02  0.00000000000E+00 0. -1.
         11    1    1    2    0    0 -0.31558012737E+02  0.76554030776E+02  0.48976449394E+02  0.96203536271E+02  0.00000000000E+00 0.  1.
</event>
<event>
 7    1  0.2522928E-009  0.1021000E+03  0.7561462E-02  0.1275941E+00
          2   -1    0    0  501    0  0.00000000000E+00  0.00000000000E+00  0.45521002071E+03  0.45521002071E+03  0.00000000000E+00 0. -1.
         -2   -1    0    0    0  501 -0.00000000000E+00 -0.00000000000E+00 -0.44872918113E+02  0.44872918113E+02  0.00000000000E+00 0.  1.
         25    2    1    2    0    0  0.43683183440E+02  0.54513329988E+02  0.31576050345E+03  0.34674435044E+03  0.12508807040E+03 0.  0.
          5    1    3    3  502    0 -0.23723259759E+00 -0.17266895310E+02  0.21353094971E+03  0.21426885177E+03  0.41800000000E+01 0. -1.
         -5    1    3    3    0  502  0.43920416037E+02  0.71780225299E+02  0.10222955374E+03  0.13247549867E+03  0.41800000000E+01 0. -1.
        -11    1    1    2    0    0  0.90050661725E+01 -0.48291141142E+02  0.51955662563E+01  0.49397565105E+02  0.00000000000E+00 0.  1.
         11    1    1    2    0    0 -0.52688249612E+02 -0.62221888463E+01  0.89381032889E+02  0.10394102329E+03  0.00000000000E+00 0. -1.
</event>
<event>
 7    1  0.2932266E-009  0.1089633E+03  0.7561462E-02  0.1262502E+00
         -1   -1    0    0    0  501 -0.00000000000E+00  0.00000000000E+00  0.50733239374E+02  0.50733239374E+02  0.00000000000E+00 0.  1.
          1   -1    0    0  501    0  0.00000000000E+00 -0.00000000000E+00 -0.31920258758E+03  0.31920258758E+03  0.00000000000E+00 0. -1.
         25    2    1    2    0    0  0.63123005204E+02  0.94488170748E+01 -0.12207853174E+03  0.18607088743E+03  0.12508162657E+03 0.  0.
          5    1    3    3  502    0  0.16346198196E+01  0.56727337969E+02 -0.78655396464E+02  0.97081443376E+02  0.41800000000E+01 0.  1.
         -5    1    3    3    0  502  0.61488385384E+02 -0.47278520894E+02 -0.43423135277E+02  0.88989444050E+02  0.41800000000E+01 0.  1.
        -11    1    1    2    0    0 -0.38341221620E+02 -0.31923103440E+02 -0.14152064557E+03  0.15005741212E+03  0.00000000000E+00 0. -1.
         11    1    1    2    0    0 -0.24781783584E+02  0.22474286365E+02 -0.48701708976E+01  0.33807527414E+02  0.00000000000E+00 0.  1.
</event>
<event>
 7    1  0.2522928E-009  0.8968173E+02  0.7561462E-02  0.1303624E+00
         -1   -1    0    0    0  501 -0.00000000000E+00  0.00000000000E+00  0.10152013121E+03  0.10152013121E+03  0.00000000000E+00 0.  1.
          1   -1    0    0  501    0  0.00000000000E+00 -0.00000000000E+00 -0.14769342704E+03  0.14769342704E+03  0.00000000000E+00 0. -1.
         25    2    1    2    0    0 -0.35042883395E+02  0.22110329413E+02  0.13817283526E+02  0.13249316968E+03  0.12508657940E+03 0.  0.
          5    1    3    3  502    0 -0.24136708038E+02 -0.41268906228E+02  0.40446129274E+02  0.62761971523E+02  0.41800000000E+01 0. -1.
         -5    1    3    3    0  502 -0.10906175357E+02  0.63379235640E+02 -0.26628845748E+02  0.69731198162E+02  0.41800000000E+01 0. -1.
        -11    1    1    2    0    0  0.36032474079E+01  0.16639808341E+02  0.17588272064E+02  0.24478846536E+02  0.00000000000E+00 0.  1.
         11    1    1    2    0    0  0.31439635988E+02 -0.38750137754E+02 -0.77578851425E+02  0.92241542026E+02  0.00000000000E+00 0. -1.
</event>
<event>
 7    1  0.2522928E-009  0.1322355E+03  0.7561462E-02  0.1224176E+00
          1   -1    0    0  501    0  0.00000000000E+00  0.00000000000E+00  0.52797036235E+02  0.52797036235E+02  0.00000000000E+00 0. -1.
         -1   -1    0    0    0  501 -0.00000000000E+00 -0.00000000000E+00 -0.34651350256E+03  0.34651350256E+03  0.00000000000E+00 0.  1.
         25    2    1    2    0    0  0.71727175504E+02 -0.35345070870E+02 -0.14319357617E+03  0.20626846850E+03  0.12509284192E+03 0.  0.
          5    1    3    3  502    0 -0.30350653294E+02 -0.32936078157E+02 -0.31719023497E+02  0.55041041518E+02  0.41800000000E+01 0.  1.
         -5    1    3    3    0  502  0.10207782880E+03 -0.24089927130E+01 -0.11147455267E+03  0.15122742698E+03  0.41800000000E+01 0.  1.
        -11    1    1    2    0    0 -0.27256742343E+02  0.60391950785E+02 -0.61367215418E+02  0.90310867845E+02  0.00000000000E+00 0. -1.
         11    1    1    2    0    0 -0.44470433161E+02 -0.25046879914E+02 -0.89155674741E+02  0.10273120245E+03  0.00000000000E+00 0.  1.
</event>
<event>
 7    1  0.2522928E-009  0.1663562E+03  0.7561462E-02  0.1181702E+00
         -1   -1    0    0    0  501 -0.00000000000E+00  0.00000000000E+00  0.77167044038E+02  0.77167044038E+02  0.00000000000E+00 0.  1.
          1   -1    0    0  501    0  0.00000000000E+00 -0.00000000000E+00 -0.43995824406E+03  0.43995824406E+03  0.00000000000E+00 0. -1.
         25    2    1    2    0    0 -0.13234888303E+03 -0.44826787017E+02 -0.26270582994E+03  0.32278252873E+03  0.12509412495E+03 0.  0.
          5    1    3    3  502    0 -0.19791987006E+02  0.41021636121E+02 -0.58042816345E+02  0.73898161743E+02  0.41800000000E+01 0. -1.
         -5    1    3    3    0  502 -0.11255689602E+03 -0.85848423138E+02 -0.20466301360E+03  0.24888436699E+03  0.41800000000E+01 0. -1.
        -11    1    1    2    0    0  0.10635980605E+03  0.17765208390E+02 -0.11151090317E+03  0.15512154104E+03  0.00000000000E+00 0. -1.
         11    1    1    2    0    0  0.25989076983E+02  0.27061578626E+02  0.11425533085E+02  0.39221218319E+02  0.00000000000E+00 0.  1.
</event>
<event>
 6    1  0.2522928E-009  0.1021025E+03  0.7561462E-02  0.1275936E+00
         -2   -1    0    0    0  501 -0.00000000000E+00  0.00000000000E+00  0.47963825680E+02  0.47963825680E+02  0.00000000000E+00 0.  1.
          2   -1    0    0  501    0  0.00000000000E+00 -0.00000000000E+00 -0.27282900392E+03  0.27282900392E+03  0.00000000000E+00 0. -1.
          5    1    1    2  502    0 -0.53651836509E+02 -0.45240796448E+02 -0.10797004521E+03  0.12884196633E+03  0.41800000000E+01 0. -1.
         -5    1    1    2    0  502  0.36601925991E+02  0.12745495542E+02  0.20979873633E+01  0.39038731970E+02  0.41800000000E+01 0. -1.
        -11    1    1    2    0    0  0.46687988963E+02 -0.51887464474E+01 -0.47277514963E+02  0.66647241685E+02  0.00000000000E+00 0.  1.
         11    1    1    2    0    0 -0.29638078444E+02  0.37684047353E+02 -0.71715605423E+02  0.86264889613E+02  0.00000000000E+00 0. -1.
</event>
<event>
 7    1  0.2522928E-009  0.1996449E+03  0.7561462E-02  0.1150039E+00
         -1   -1    0    0    0  501 -0.00000000000E+00  0.00000000000E+00  0.41825654781E+02  0.41825654781E+02  0.00000000000E+00 0.  1.
          1   -1    0    0  501    0  0.00000000000E+00 -0.00000000000E+00 -0.19234183987E+04  0.19234183987E+04  0.00000000000E+00 0. -1.
         25    2    1    2    0    0  0.16441326952E+03  0.39858593791E+02 -0.16536288020E+04  0.16669608430E+04  0.12509918663E+03 0.  0.
          5    1    3    3  502    0  0.17340409337E+03  0.62531133890E+01 -0.14484139243E+04  0.14587763535E+04  0.41800000000E+01 0.  1.
         -5    1    3    3    0  502 -0.89908238460E+01  0.33605480402E+02 -0.20521487775E+03  0.20818448952E+03  0.41800000000E+01 0.  1.
        -11    1    1    2    0    0 -0.16740738115E+03 -0.17717427935E+02 -0.18691690820E+03  0.25154933728E+03  0.00000000000E+00 0. -1.
         11    1    1    2    0    0  0.29941116231E+01 -0.22141165856E+02 -0.41047033690E+02  0.46733873204E+02  0.00000000000E+00 0.  1.
</event>
<event>
 7    1  0.2522928E-009  0.1706518E+03  0.7561462E-02  0.1177170E+00
          1   -1    0    0  501    0  0.00000000000E+00  0.00000000000E+00  0.31742462743E+03  0.31742462743E+03  0.00000000000E+00 0.  1.
         -1   -1    0    0    0  501 -0.00000000000E+00 -0.00000000000E+00 -0.12535061945E+03  0.12535061945E+03  0.00000000000E+00 0. -1.
         25    2    1    2    0    0  0.16033499760E+03  0.36955275916E+02  0.13582302393E+03  0.24732261137E+03  0.12509027298E+03 0.  0.
          5    1    3    3  502    0  0.15440788072E+01  0.15917652263E+02 -0.18534613854E+02  0.24834656101E+02  0.41800000000E+01 0. -1.
         -5    1    3    3    0  502  0.15879091879E+03  0.21037623654E+02  0.15435763778E+03  0.22248795527E+03  0.41800000000E+01 0. -1.
        -11    1    1    2    0    0 -0.44233686334E+02 -0.98015076908E+01  0.61164649517E+02  0.76117034297E+02  0.00000000000E+00 0.  1.
         11    1    1    2    0    0 -0.11610131126E+03 -0.27153768226E+02 -0.49136654681E+01  0.11933560120E+03  0.00000000000E+00 0. -1.
</event>
<event>
 7    1  0.2522928E-009  0.9959591E+02  0.7561462E-02  0.1281148E+00
         -1   -1    0    0    0  501 -0.00000000000E+00  0.00000000000E+00  0.52350331363E+02  0.52350331363E+02  0.00000000000E+00 0.  1.
          1   -1    0    0  501    0  0.00000000000E+00 -0.00000000000E+00 -0.34926316211E+03  0.34926316211E+03  0.00000000000E+00 0. -1.
         25    2    1    2    0    0  0.37983427089E+02  0.45399467613E+02 -0.24659750431E+03  0.28277507607E+03  0.12509021592E+03 0.  0.
          5    1    3    3  502    0  0.15057359662E+02 -0.21424600482E+02 -0.19085260076E+03  0.19268607942E+03  0.41800000000E+01 0. -1.
         -5    1    3    3    0  502  0.22926067427E+02  0.66824068095E+02 -0.55744903548E+02  0.90088996643E+02  0.41800000000E+01 0. -1.
        -11    1    1    2    0    0  0.18619941319E+02 -0.41118216599E+02 -0.35255462614E+01  0.45275152429E+02  0.00000000000E+00 0.  1.
         11    1    1    2    0    0 -0.56603368409E+02 -0.42812510145E+01 -0.46789780174E+02  0.73563264978E+02  0.00000000000E+00 0. -1.
</event>
<event>
 7    1  0.2522928E-009  0.9605321E+02  0.7561462E-02  0.1288821E+00
          1   -1    0    0  501    0  0.00000000000E+00  0.00000000000E+00  0.31092556736E+02  0.31092556736E+02  0.00000000000E+00 0. -1.
         -1   -1    0    0    0  501 -0.00000000000E+00 -0.00000000000E+00 -0.40363208261E+03  0.40363208261E+03  0.00000000000E+00 0.  1.
         25    2    1    2    0    0  0.17575433286E+02 -0.22240536624E+02 -0.23144482316E+03  0.26460876144E+03  0.12509018004E+03 0.  0.
          5    1    3    3  502    0  0.16380814723E+02 -0.64892443477E+02 -0.67487819649E+02  0.95139048305E+02  0.41800000000E+01 0.  1.
         -5    1    3    3    0  502  0.11946185638E+01  0.42651906853E+02 -0.16395700351E+03  0.16946971314E+03  0.41800000000E+01 0.  1.
        -11    1    1    2    0    0 -0.47250677178E+02  0.41780894925E+01 -0.12103955339E+03  0.13000252463E+03  0.00000000000E+00 0.  1.
         11    1    1    2    0    0  0.29675243892E+02  0.18062447132E+02 -0.20055149330E+02  0.40113353276E+02  0.00000000000E+00 0. -1.
</event>
<event>
 7    1  0.2522928E-009  0.1955710E+03  0.7561462E-02  0.1153531E+00
          1   -1    0    0  501    0  0.00000000000E+00  0.00000000000E+00  0.14311119059E+03  0.14311119059E+03  0.00000000000E+00 0. -1.
         -1   -1    0    0    0  501 -0.00000000000E+00 -0.00000000000E+00 -0.30729564744E+03  0.30729564744E+03  0.00000000000E+00 0.  1.
         25    2    1    2    0    0 -0.15925163273E+03  0.40132205164E+02 -0.87635377629E+01  0.20662895499E+03  0.12508816502E+03 0.  0.
          5    1    3    3  502    0 -0.11402753950E+03 -0.33492512805E+02 -0.15191491182E+02  0.11988445263E+03  0.41800000000E+01 0.  1.
         -5    1    3    3    0  502 -0.45224093233E+02  0.73624717969E+02  0.64279534190E+01  0.86744502361E+02  0.41800000000E+01 0.  1.
        -11    1    1    2    0    0  0.10948840266E+03  0.16058058379E+02 -0.11008461739E+03  0.15609034096E+03  0.00000000000E+00 0.  1.
         11    1    1    2    0    0  0.49763230072E+02 -0.56190263543E+02 -0.45336301701E+02  0.87687542080E+02  0.00000000000E+00 0. -1.
</event>
<event>
 7    1  0.2522928E-009  0.1566044E+03  0.7561462E-02  0.1192585E+00
          2   -1    0    0  501    0  0.00000000000E+00  0.00000000000E+00  0.50318964298E+02  0.50318964298E+02  0.00000000000E+00 0. -1.
         -2   -1    0    0    0  501 -0.00000000000E+00 -0.00000000000E+00 -0.75474675945E+03  0.75474675945E+03  0.00000000000E+00 0.  1.
         25    2    1    2    0    0 -0.10879055978E+03 -0.59896501005E+02 -0.58479556207E+03  0.61078288665E+03  0.12508760318E+03 0.  0.
          5    1    3    3  502    0 -0.18595158062E+02  0.29209920635E+02 -0.25598063122E+03  0.25834580571E+03  0.41800000000E+01 0.  1.
         -5    1    3    3    0  502 -0.90195401714E+02 -0.89106421640E+02 -0.32881493085E+03  0.35243708094E+03  0.41800000000E+01 0.  1.
        -11    1    1    2    0    0  0.16706756660E+00 -0.17877416731E+02 -0.58827154485E+01  0.18821165787E+02  0.00000000000E+00 0. -1.
         11    1    1    2    0    0  0.10862349221E+03  0.77773917736E+02 -0.11374951763E+03  0.17546167132E+03  0.00000000000E+00 0.  1.
</event>
<event>
 7    1  0.2522928E-009  0.8573211E+02  0.7561462E-02  0.1313529E+00
         -1   -1    0    0    0  501 -0.00000000000E+00  0.00000000000E+00  0.50561622794E+02  0.50561622794E+02  0.00000000000E+00 0.  1.
          1   -1    0    0  501    0  0.00000000000E+00 -0.00000000000E+00 -0.28188392106E+03  0.28188392106E+03  0.00000000000E+00 0. -1.
         25    2    1    2    0    0 -0.14989765056E+02  0.26268749096E+02 -0.73087290483E+02  0.14800035212E+03  0.12509041515E+03 0.  0.
          5    1    3    3  502    0 -0.40794678666E+02  0.51495159223E+02  0.61451732663E+00  0.65831658512E+02  0.41800000000E+01 0. -1.
         -5    1    3    3    0  502  0.25804913610E+02 -0.25226410128E+02 -0.73701807810E+02  0.82168693605E+02  0.41800000000E+01 0. -1.
        -11    1    1    2    0    0 -0.28435116870E+01  0.19750135847E+02 -0.13714507585E+01  0.20000857528E+02  0.00000000000E+00 0.  1.
         11    1    1    2    0    0  0.17833276743E+02 -0.46018884942E+02 -0.15686355702E+03  0.16444433421E+03  0.00000000000E+00 0. -1.
</event>
<event>
 7    1  0.2522928E-009  0.2327554E+03  0.7561462E-02  0.1124715E+00
          3   -1    0    0  501    0  0.00000000000E+00  0.00000000000E+00  0.85221948974E+02  0.85221948974E+02  0.00000000000E+00 0. -1.
         -3   -1    0    0    0  501 -0.00000000000E+00 -0.00000000000E+00 -0.72412427467E+03  0.72412427467E+03  0.00000000000E+00 0.  1.
         25    2    1    2    0    0  0.18532929902E+03  0.12307213417E+03 -0.36921629561E+03  0.44884484073E+03  0.12508924342E+03 0.  0.
          5    1    3    3  502    0  0.16247142985E+03  0.13977323893E+03 -0.26540129372E+03  0.34115809085E+03  0.41800000000E+01 0. -1.
         -5    1    3    3    0  502  0.22857869169E+02 -0.16701104759E+02 -0.10381500189E+03  0.10768674989E+03  0.41800000000E+01 0. -1.
        -11    1    1    2    0    0 -0.15654798944E+03 -0.10165822008E+03 -0.16254015186E+03  0.24750953047E+03  0.00000000000E+00 0. -1.
         11    1    1    2    0    0 -0.28781309581E+02 -0.21413914093E+02 -0.10714587822E+03  0.11299185244E+03  0.00000000000E+00 0.  1.
</event>
<event>
 7    1  0.2522928E-009  0.1010925E+03  0.7561462E-02  0.1278015E+00
         -4   -1    0    0    0  501 -0.00000000000E+00  0.00000000000E+00  0.48611114415E+02  0.48611114415E+02  0.00000000000E+00 0.  1.
          4   -1    0    0  501    0  0.00000000000E+00 -0.00000000000E+00 -0.30742821063E+03  0.30742821063E+03  0.00000000000E+00 0. -1.
         25    2    1    2    0    0 -0.46988994920E+02 -0.62661359034E+01 -0.19022652664E+03  0.23255476042E+03  0.12509338533E+03 0.  0.
          5    1    3    3  502    0  0.28651896109E+02 -0.38128987202E+02 -0.97693043905E+02  0.10879409011E+03  0.41800000000E+01 0.  1.
         -5    1    3    3    0  502 -0.75640891028E+02  0.31862851298E+02 -0.92533482737E+02  0.12376067031E+03  0.41800000000E+01 0.  1.
        -11    1    1    2    0    0  0.55664795755E+02  0.17111061262E+02 -0.50612308254E+01  0.58454888259E+02  0.00000000000E+00 0.  1.
         11    1    1    2    0    0 -0.86758008351E+01 -0.10844925359E+02 -0.63529338748E+02  0.65029676363E+02  0.00000000000E+00 0. -1.
</event>
<event>
 7    1  0.2522928E-009  0.1200419E+03  0.7561462E-02  0.1243028E+00
          1   -1    0    0  501    0  0.00000000000E+00  0.00000000000E+00  0.20166453790E+03  0.20166453790E+03  0.00000000000E+00 0. -1.
         -1   -1    0    0    0  501 -0.00000000000E+00 -0.00000000000E+00 -0.10496463627E+03  0.10496463627E+03  0.00000000000E+00 0.  1.
         25    2    1    2    0    0 -0.57979569814E+02  0.76601126605E+02  0.65893969369E+02  0.17093626234E+03  0.12509127656E+03 0.  0.
          5    1    3    3  502    0 -0.51424263475E+02  0.84039998229E+02  0.96816061335E+02  0.13819550756E+03  0.41800000000E+01 0. -1.
         -5    1    3    3    0  502 -0.65553063387E+01 -0.74388716239E+01 -0.30922091966E+02  0.32740754783E+02  0.41800000000E+01 0. -1.
        -11    1    1    2    0    0  0.71636509872E+02 -0.87609377806E+02  0.19534319623E+02  0.11484242365E+03  0.00000000000E+00 0.  1.
         11    1    1    2    0    0 -0.13656940058E+02  0.11008251201E+02  0.11271612630E+02  0.20850488184E+02  0.00000000000E+00 0. -1.
</event>
<event>
 7    1  0.2522928E-009  0.9987756E+02  0.7561462E-02  0.1280554E+00
         -2   -1    0    0    0  501 -0.00000000000E+00  0.00000000000E+00  0.31112347678E+03  0.31112347678E+03  0.00000000000E+00 0.  1.
          2   -1    0    0  501    0  0.00000000000E+00 -0.00000000000E+00 -0.56771862457E+02  0.56771862457E+02  0.00000000000E+00 0. -1.
         25    2    1    2    0    0 -0.21136359492E+02 -0.13655168723E+02  0.42707886257E+02  0.13455253274E+03  0.12508881322E+03 0.  0.
          5    1    3    3  502    0  0.45349960715E+02  0.23188006731E+02  0.12211063438E+02  0.52544124917E+02  0.41800000000E+01 0.  1.
         -5    1    3    3    0  502 -0.66486320207E+02 -0.36843175453E+02  0.30496822819E+02  0.82008407826E+02  0.41800000000E+01 0.  1.
        -11    1    1    2    0    0  0.43794659901E+02 -0.37442668812E+01  0.19580489758E+03  0.20067772594E+03  0.00000000000E+00 0.  1.
         11    1    1    2    0    0 -0.22658300409E+02  0.17399435604E+02  0.15838830488E+02  0.32665080560E+02  0.00000000000E+00 0. -1.
</event>
<event>
 7    1  0.2522928E-009  0.1210509E+03  0.7561462E-02  0.1241373E+00
         -1   -1    0    0    0  501 -0.00000000000E+00  0.00000000000E+00  0.12780280892E+03  0.12780280892E+03  0.00000000000E+00 0.  1.
          1   -1    0    0  501    0  0.00000000000E+00 -0.00000000000E+00 -0.13834910435E+03  0.13834910435E+03  0.00000000000E+00 0. -1.
         25    2    1    2    0    0  0.66652522840E+02 -0.16878561974E+02  0.38237526906E+02  0.14777547795E+03  0.12509212111E+03 0.  0.
          5    1    3    3  502    0  0.10228376967E+03 -0.22556678493E+02  0.18525695068E+02  0.10644926989E+03  0.41800000000E+01 0. -1.
         -5    1    3    3    0  502 -0.35631246832E+02  0.56781165193E+01  0.19711831838E+02  0.41326208058E+02  0.41800000000E+01 0. -1.
        -11    1    1    2    0    0 -0.14951065889E+02 -0.28486974234E+02 -0.36238443373E+02  0.48458919204E+02  0.00000000000E+00 0.  1.
         11    1    1    2    0    0 -0.51701456951E+02  0.45365536209E+02 -0.12545378962E+02  0.69917516115E+02  0.00000000000E+00 0. -1.
</event>
<event>
 7    1  0.2522928E-009  0.1163896E+03  0.7561462E-02  0.1249175E+00
         -4   -1    0    0    0  501 -0.00000000000E+00  0.00000000000E+00  0.14147314786E+03  0.14147314786E+03  0.00000000000E+00 0.  1.
          4   -1    0    0  501    0  0.00000000000E+00 -0.00000000000E+00 -0.11493947100E+03  0.11493947100E+03  0.00000000000E+00 0. -1.
         25    2    1    2    0    0 -0.62513026574E+02 -0.24041653571E+02  0.20620348585E+02  0.14338294090E+03  0.12509032484E+03 0.  0.
          5    1    3    3  502    0 -0.20772732725E+01 -0.67200478898E+02  0.13074269451E+02  0.68619445859E+02  0.41800000000E+01 0.  1.
         -5    1    3    3    0  502 -0.60435753301E+02  0.43158825327E+02  0.75460791338E+01  0.74763495043E+02  0.41800000000E+01 0.  1.
        -11    1    1    2    0    0 -0.49488539895E+01  0.23040253522E+02  0.32810613577E+02  0.40396544425E+02  0.00000000000E+00 0.  1.
         11    1    1    2    0    0  0.67461880563E+02  0.10014000489E+01 -0.26897285301E+02  0.72633133539E+02  0.00000000000E+00 0. -1.
</event>
<event>
 7    1  0.2522928E-009  0.1237298E+03  0.7561462E-02  0.1237068E+00
         -1   -1    0    0    0  501 -0.00000000000E+00  0.00000000000E+00  0.20213841645E+03  0.20213841645E+03  0.00000000000E+00 0.  1.
          1   -1    0    0  501    0  0.00000000000E+00 -0.00000000000E+00 -0.98014683463E+02  0.98014683463E+02  0.00000000000E+00 0. -1.
         25    2    1    2    0    0 -0.66861053471E+02  0.84810251706E+01  0.11796488796E+03  0.18467766919E+03  0.12509116055E+03 0.  0.
          5    1    3    3  502    0  0.31727596957E+02  0.18635944995E+02  0.57843340980E+02  0.68682336523E+02  0.41800000000E+01 0.  1.
         -5    1    3    3    0  502 -0.98588650428E+02 -0.10154919824E+02  0.60121546981E+02  0.11599533267E+03  0.41800000000E+01 0.  1.
        -11    1    1    2    0    0  0.18152156220E+02  0.39117756908E+02  0.81925118871E+01  0.43895522915E+02  0.00000000000E+00 0.  1.
         11    1    1    2    0    0  0.48708897251E+02 -0.47598782079E+02 -0.22033666856E+02  0.71579907809E+02  0.00000000000E+00 0. -1.
</event>
<event>
 7    1  0.2522928E-009  0.1494179E+03  0.7561462E-02  0.1201190E+00
         -2   -1    0    0    0  501 -0.00000000000E+00  0.00000000000E+00  0.14530425149E+02  0.14530425149E+02  0.00000000000E+00 0.  1.
          2   -1    0    0  501    0  0.00000000000E+00 -0.00000000000E+00 -0.32559326500E+04  0.32559326500E+04  0.00000000000E+00 0. -1.
         25    2    1    2    0    0  0.21833674592E+02  0.10869936055E+03 -0.28268910568E+04  0.28318280753E+04  0.12507973835E+03 0.  0.
          5    1    3    3  502    0  0.73152520521E+02  0.48689844242E+02 -0.14400505391E+04  0.14427352563E+04  0.41800000000E+01 0.  1.
         -5    1    3    3    0  502 -0.51318845929E+02  0.60009516310E+02 -0.13868405177E+04  0.13890928191E+04  0.41800000000E+01 0.  1.
        -11    1    1    2    0    0  0.11462967550E+00  0.10543687361E+02 -0.52256049088E+01  0.11768153202E+02  0.00000000000E+00 0.  1.
         11    1    1    2    0    0 -0.21948304267E+02 -0.11924304791E+03 -0.40928556320E+03  0.42686684667E+03  0.00000000000E+00 0. -1.
</event>
<event>
 7    1  0.2522928E-009  0.1094038E+03  0.7561462E-02  0.1261678E+00
         -3   -1    0    0    0  501 -0.00000000000E+00  0.00000000000E+00  0.64319071726E+03  0.64319071726E+03  0.00000000000E+00 0.  1.
          3   -1    0    0  501    0  0.00000000000E+00 -0.00000000000E+00 -0.19613582274E+02  0.19613582274E+02  0.00000000000E+00 0. -1.
         25    2    1    2    0    0  0.20884429644E+02 -0.13192411888E+02  0.32705150884E+03  0.35102518885E+03  0.12508315089E+03 0.  0.
          5    1    3    3  502    0 -0.29170162218E+02  0.42863570747E+02  0.14378348248E+03  0.15290306176E+03  0.41800000000E+01 0. -1.
         -5    1    3    3    0  502  0.50054591862E+02 -0.56055982635E+02  0.18326802636E+03  0.19812212709E+03  0.41800000000E+01 0. -1.
        -11    1    1    2    0    0 -0.42560753441E+02 -0.23715156209E+02  0.20543500358E+03  0.21113352898E+03  0.00000000000E+00 0.  1.
         11    1    1    2    0    0  0.21676323797E+02  0.36907568097E+02  0.91090622567E+02  0.10064558170E+03  0.00000000000E+00 0. -1.
</event>
<event>
 7    1  0.2522928E-009  0.8166898E+02  0.7561462E-02  0.1324381E+00
          3   -1    0    0  501    0  0.00000000000E+00  0.00000000000E+00  0.42118226888E+02  0.42118226888E+02  0.00000000000E+00 0. -1.
         -3   -1    0    0    0  501 -0.00000000000E+00 -0.00000000000E+00 -0.34347663878E+03  0.34347663878E+03  0.00000000000E+00 0.  1.
         25    2    1    2    0    0  0.48212871857E+02  0.12545299465E+02 -0.14651078765E+03  0.19898580076E+03  0.12509225577E+03 0.  0.
          5    1    3    3  502    0  0.51141412737E+02  0.50386287585E+02 -0.32811421783E+02  0.79046087017E+02  0.41800000000E+01 0. -1.
         -5    1    3    3    0  502 -0.29285408794E+01 -0.37840988120E+02 -0.11369936587E+03  0.11993971374E+03  0.41800000000E+01 0. -1.
        -11    1    1    2    0    0 -0.37240208355E+02 -0.91653486205E+00 -0.16400606262E+03  0.16818341693E+03  0.00000000000E+00 0.  1.
         11    1    1    2    0    0 -0.10972663503E+02 -0.11628764603E+02  0.91584383673E+01  0.18425647990E+02  0.00000000000E+00 0. -1.
</event>
<event>
 7    1  0.2522928E-009  0.9150074E+02  0.7561462E-02  0.1299258E+00
         -4   -1    0    0    0  501 -0.00000000000E+00  0.00000000000E+00  0.41900774522E+03  0.41900774522E+03  0.00000000000E+00 0.  1.
          4   -1    0    0  501    0  0.00000000000E+00 -0.00000000000E+00 -0.40901103020E+02  0.40901103020E+02  0.00000000000E+00 0. -1.
         25    2    1    2    0    0 -0.16144583502E+02  0.49959572341E+02  0.29804960033E+03  0.32747065995E+03  0.12508741913E+03 0.  0.
          5    1    3    3  502    0 -0.56265070439E+02  0.60760309099E+02  0.12907414141E+03  0.15341179777E+03  0.41800000000E+01 0. -1.
         -5    1    3    3    0  502  0.40120486937E+02 -0.10800736758E+02  0.16897545893E+03  0.17405886219E+03  0.41800000000E+01 0. -1.
        -11    1    1    2    0    0 -0.58871657113E+01 -0.21754220911E+02  0.91990500994E+02  0.94710913419E+02  0.00000000000E+00 0.  1.
         11    1    1    2    0    0  0.22031749213E+02 -0.28205351430E+02 -0.11933459123E+02  0.37727274873E+02  0.00000000000E+00 0. -1.
</event>
<event>
 7    1  0.2522928E-009  0.7819849E+02  0.7561462E-02  0.1334243E+00
          2   -1    0    0  501    0  0.00000000000E+00  0.00000000000E+00  0.16385555513E+03  0.16385555513E+03  0.00000000000E+00 0. -1.
         -2   -1    0    0    0  501 -0.00000000000E+00 -0.00000000000E+00 -0.83168624661E+02  0.83168624661E+02  0.00000000000E+00 0.  1.
         25    2    1    2    0    0 -0.91233991299E+01  0.19372482763E+02  0.85624136948E+02  0.15309113330E+03  0.12508746047E+03 0.  0.
          5    1    3    3  502    0 -0.29189394554E+02 -0.36506916712E+02 -0.22212362468E+01  0.46980655729E+02  0.41800000000E+01 0. -1.
         -5    1    3    3    0  502  0.20065995424E+02  0.55879399476E+02  0.87845373194E+02  0.10611047757E+03  0.41800000000E+01 0. -1.
        -11    1    1    2    0    0 -0.11491468947E+02 -0.25892140242E+02 -0.42215129429E+02  0.50838705113E+02  0.00000000000E+00 0.  1.
         11    1    1    2    0    0  0.20614868077E+02  0.65196574791E+01  0.37277922946E+02  0.43094341376E+02  0.00000000000E+00 0. -1.
</event>
<event>
 7    1  0.2522928E-009  0.9313757E+02  0.7561462E-02  0.1295427E+00
          1   -1    0    0  501    0  0.00000000000E+00  0.00000000000E+00  0.43831178146E+03  0.43831178146E+03  0.00000000000E+00 0. -1.
         -1   -1    0    0    0  501 -0.00000000000E+00 -0.00000000000E+00 -0.30157503481E+02  0.30157503481E+02  0.00000000000E+00 0.  1.
         25    2    1    2    0    0 -0.14359753892E+02  0.29672419006E+02  0.27151473842E+03  0.30075637541E+03  0.12508992440E+03 0.  0.
          5    1    3    3  502    0  0.44375156600E+02  0.34419907574E+02  0.20113532035E+03  0.20887023256E+03  0.41800000000E+01 0. -1.
         -5    1    3    3    0  502 -0.58734910492E+02 -0.47474885676E+01  0.70379418078E+02  0.91886142846E+02  0.41800000000E+01 0. -1.
        -11    1    1    2    0    0  0.35049782059E+02 -0.34987637943E+02  0.27792497382E+02  0.56789479148E+02  0.00000000000E+00 0.  1.
         11    1    1    2    0    0 -0.20690028167E+02  0.53152189370E+01  0.10884704217E+03  0.11092343038E+03  0.00000000000E+00 0. -1.
</event>
<event>
 7    1  0.2522928E-009  0.8555570E+02  0.7561462E-02  0.1313986E+00
         -2   -1    0    0    0  501 -0.00000000000E+00  0.00000000000E+00  0.18197745117E+03  0.18197745117E+03  0.00000000000E+00 0.  1.
          2   -1    0    0  501    0  0.00000000000E+00 -0.00000000000E+00 -0.75505360033E+02  0.75505360033E+02  0.00000000000E+00 0. -1.
         25    2    1    2    0    0  0.31520659452E+01 -0.33224476169E+02  0.92983004814E+02  0.15939486176E+03  0.12508829456E+03 0.  0.
          5    1    3    3  502    0  0.35585349185E+02 -0.37468991213E+02  0.11049852156E+03  0.12205588084E+03  0.41800000000E+01 0.  1.
         -5    1    3    3    0  502 -0.32433283240E+02  0.42445150440E+01 -0.17515516748E+02  0.37338980926E+02  0.41800000000E+01 0.  1.
        -11    1    1    2    0    0 -0.24605945502E+02  0.52163054983E+02  0.30039816239E+02  0.65029435019E+02  0.00000000000E+00 0.  1.
         11    1    1    2    0    0  0.21453879556E+02 -0.18938578814E+02 -0.16550729912E+02  0.33058514427E+02  0.00000000000E+00 0. -1.
</event>
<event>
 7    1  0.2522928E-009  0.1647626E+03  0.7561462E-02  0.1183422E+00
          1   -1    0    0  501    0  0.00000000000E+00  0.00000000000E+00  0.29919307625E+03  0.29919307625E+03  0.00000000000E+00 0. -1.
         -1   -1    0    0    0  501 -0.00000000000E+00 -0.00000000000E+00 -0.11723085620E+03  0.11723085620E+03  0.00000000000E+00 0.  1.
         25    2    1    2    0    0 -0.26618417149E+02 -0.14817152373E+03  0.70081086690E+02  0.20788274734E+03  0.12506213397E+03 0.  0.
          5    1    3    3  502    0  0.31155231081E+02 -0.77704799451E+02 -0.12606265015E+02  0.84764819347E+02  0.41800000000E+01 0.  1.
         -5    1    3    3    0  502 -0.57773648231E+02 -0.70466724276E+02  0.82687351705E+02  0.12311792799E+03  0.41800000000E+01 0.  1.
        -11    1    1    2    0    0 -0.65519361544E+01  0.58655623739E+02  0.94636173410E+02  0.11153212713E+03  0.00000000000E+00 0. -1.
         11    1    1    2    0    0  0.33170353304E+02  0.89515899987E+02  0.17244959945E+02  0.97009057991E+02  0.00000000000E+00 0.  1.
</event>
<event>
 7    1  0.2522928E-009  0.2762062E+03  0.7561462E-02  0.1097779E+00
          2   -1    0    0  501    0  0.00000000000E+00  0.00000000000E+00  0.46032217806E+03  0.46032217806E+03  0.00000000000E+00 0. -1.
         -2   -1    0    0    0  501 -0.00000000000E+00 -0.00000000000E+00 -0.21387970847E+03  0.21387970847E+03  0.00000000000E+00 0.  1.
         25    2    1    2    0    0 -0.26295564102E+03  0.56587588019E+00  0.26660436883E+03  0.39480604518E+03  0.12509170426E+03 0.  0.
          5    1    3    3  502    0 -0.12055930504E+03 -0.59608096804E+02  0.10116417726E+03  0.16834290718E+03  0.41800000000E+01 0. -1.
         -5    1    3    3    0  502 -0.14239633597E+03  0.60173972684E+02  0.16544019157E+03  0.22646313800E+03  0.41800000000E+01 0. -1.
        -11    1    1    2    0    0  0.14592420488E+03 -0.60792369568E+01 -0.56697921970E+02  0.15666998770E+03  0.00000000000E+00 0.  1.
         11    1    1    2    0    0  0.11703143614E+03  0.55133610766E+01  0.36536022739E+02  0.12272585364E+03  0.00000000000E+00 0. -1.
</event>
<event>
 7    1  0.2522928E-009  0.1344365E+03  0.7561462E-02  0.1221017E+00
         -2   -1    0    0    0  501 -0.00000000000E+00  0.00000000000E+00  0.42727610185E+03  0.42727610185E+03  0.00000000000E+00 0.  1.
          2   -1    0    0  501    0  0.00000000000E+00 -0.00000000000E+00 -0.53175798075E+02  0.53175798075E+02  0.00000000000E+00 0. -1.
         25    2    1    2    0    0  0.45062158042E+02 -0.89678469371E+02  0.15539085847E+03  0.22331039707E+03  0.12509351936E+03 0.  0.
          5    1    3    3  502    0  0.36039994522E+02  0.23346051028E+02  0.22791444908E+02  0.48793869131E+02  0.41800000000E+01 0. -1.
         -5    1    3    3    0  502  0.90221635206E+01 -0.11302452040E+03  0.13259941356E+03  0.17451652794E+03  0.41800000000E+01 0. -1.
        -11    1    1    2    0    0 -0.71207750929E+01  0.68395202736E+02  0.19672872132E+03  0.20840057338E+03  0.00000000000E+00 0.  1.
         11    1    1    2    0    0 -0.37941382949E+02  0.21283266635E+02  0.21980723980E+02  0.48740929469E+02  0.00000000000E+00 0. -1.
</event>
<event>
 7    1  0.2522928E-009  0.1914593E+03  0.7561462E-02  0.1157152E+00
         -1   -1    0    0    0  501 -0.00000000000E+00  0.00000000000E+00  0.15982377323E+03  0.15982377323E+03  0.00000000000E+00 0.  1.
          1   -1    0    0  501    0  0.00000000000E+00 -0.00000000000E+00 -0.32465507303E+03  0.32465507303E+03  0.00000000000E+00 0. -1.
         25    2    1    2    0    0  0.18873219085E+03  0.16611790384E+02 -0.16251797427E+03  0.27920520175E+03  0.12509061228E+03 0.  0.
          5    1    3    3  502    0  0.12944274373E+03  0.79063824294E+01 -0.29225540013E+02  0.13300202772E+03  0.41800000000E+01 0.  1.
         -5    1    3    3    0  502  0.59289447114E+02  0.87054079549E+01 -0.13329243425E+03  0.14620317403E+03  0.41800000000E+01 0.  1.
        -11    1    1    2    0    0 -0.14032440124E+03  0.42405578956E+01  0.29850652513E+02  0.14352693605E+03  0.00000000000E+00 0.  1.
         11    1    1    2    0    0 -0.48407789602E+02 -0.20852348280E+02 -0.32163978045E+02  0.61746708468E+02  0.00000000000E+00 0. -1.
</event>
<event>
 7    1  0.2522928E-009  0.1114845E+03  0.7561462E-02  0.1257845E+00
          2   -1    0    0  501    0  0.00000000000E+00  0.00000000000E+00  0.82228276934E+03  0.82228276934E+03  0.00000000000E+00 0. -1.
         -2   -1    0    0    0  501 -0.00000000000E+00 -0.00000000000E+00 -0.29935675896E+02  0.29935675896E+02  0.00000000000E+00 0.  1.
         25    2    1    2    0    0  0.14193814373E+02 -0.96414645369E+02  0.59954985046E+03  0.62016451983E+03  0.12508701075E+03 0.  0.
          5    1    3    3  502    0 -0.32068803421E+02 -0.49430530595E+02  0.47958542646E+03  0.48320951893E+03  0.41800000000E+01 0. -1.
         -5    1    3    3    0  502  0.46262617795E+02 -0.46984114774E+02  0.11996442400E+03  0.13695500090E+03  0.41800000000E+01 0. -1.
        -11    1    1    2    0    0 -0.13521242686E+02  0.64233144208E+02  0.42155445697E+02  0.78011553122E+02  0.00000000000E+00 0.  1.
         11    1    1    2    0    0 -0.67257168747E+00  0.32181501161E+02  0.15064179728E+03  0.15404237228E+03  0.00000000000E+00 0. -1.
</event>
<event>
 7    1  0.2522928E-009  0.1286129E+03  0.7561462E-02  0.1229529E+00
         -2   -1    0    0    0  501 -0.00000000000E+00  0.00000000000E+00  0.75991734200E+02  0.75991734200E+02  0.00000000000E+00 0.  1.
          2   -1    0    0  501    0  0.00000000000E+00 -0.00000000000E+00 -0.27846353095E+03  0.27846353095E+03  0.00000000000E+00 0. -1.
         25    2    1    2    0    0 -0.24495271631E+02 -0.65195499840E+02 -0.32750359358E+02  0.14687121751E+03  0.12509235374E+03 0.  0.
          5    1    3    3  502    0  0.43341348708E+02  0.68209652036E+01 -0.78807433334E+01  0.44772498139E+02  0.41800000000E+01 0. -1.
         -5    1    3    3    0  502 -0.67836620339E+02 -0.72016465044E+02 -0.24869616024E+02  0.10209871937E+03  0.41800000000E+01 0. -1.
        -11    1    1    2    0    0 -0.12955416364E+02  0.74436067055E+02 -0.13924838269E+03  0.15842563862E+03  0.00000000000E+00 0. -1.
         11    1    1    2    0    0  0.37450687995E+02 -0.92405672147E+01 -0.30473054701E+02  0.49158409011E+02  0.00000000000E+00 0.  1.
</event>
<event>
 7    1  0.2522928E-009  0.1096747E+03  0.7561462E-02  0.1261174E+00
          2   -1    0    0  501    0  0.00000000000E+00  0.00000000000E+00  0.95081434829E+03  0.95081434829E+03  0.00000000000E+00 0. -1.
         -2   -1    0    0    0  501 -0.00000000000E+00 -0.00000000000E+00 -0.18717640600E+02  0.18717640600E+02  0.00000000000E+00 0.  1.
         25    2    1    2    0    0  0.64117046883E+02  0.12482503755E+02  0.65443298553E+03  0.66947530616E+03  0.12509134424E+03 0.  0.
          5    1    3    3  502    0  0.40398267184E+02 -0.44926951465E+02  0.15896217155E+03  0.17010848110E+03  0.41800000000E+01 0. -1.
         -5    1    3    3    0  502  0.23718779699E+02  0.57409455220E+02  0.49547081398E+03  0.49936682506E+03  0.41800000000E+01 0. -1.
        -11    1    1    2    0    0 -0.22118546351E+02  0.29681990651E+02  0.19331218558E+03  0.19682441859E+03  0.00000000000E+00 0. -1.
         11    1    1    2    0    0 -0.41998500532E+02 -0.42164494406E+02  0.84351536584E+02  0.10323226414E+03  0.00000000000E+00 0.  1.
</event>
<event>
 7    1  0.2522928E-009  0.1218854E+03  0.7561462E-02  0.1240019E+00
          1   -1    0    0  501    0  0.00000000000E+00  0.00000000000E+00  0.18047777564E+04  0.18047777564E+04  0.00000000000E+00 0. -1.
         -1   -1    0    0    0  501 -0.00000000000E+00 -0.00000000000E+00 -0.11524702969E+02  0.11524702969E+02  0.00000000000E+00 0.  1.
         25    2    1    2    0    0  0.58489227655E+02 -0.57726770738E+02  0.12017514168E+04  0.12110360189E+04  0.12509357112E+03 0.  0.
          5    1    3    3  502    0  0.39875982290E+02 -0.77935497396E+02  0.43292807566E+03  0.44171056905E+03  0.41800000000E+01 0. -1.
         -5    1    3    3    0  502  0.18613245365E+02  0.20208726659E+02  0.76882334114E+03  0.76932544987E+03  0.41800000000E+01 0. -1.
        -11    1    1    2    0    0 -0.78625608527E+02  0.69560932012E+02  0.48058182405E+03  0.49191421933E+03  0.00000000000E+00 0.  1.
         11    1    1    2    0    0  0.20136380872E+02 -0.11834161274E+02  0.11091981260E+03  0.11335222113E+03  0.00000000000E+00 0. -1.
</event>
<event>
 7    1  0.2522928E-009  0.7294421E+02  0.7561462E-02  0.1350358E+00
         -4   -1    0    0    0  501 -0.00000000000E+00  0.00000000000E+00  0.10977452030E+04  0.10977452030E+04  0.00000000000E+00 0.  1.
          4   -1    0    0  501    0  0.00000000000E+00 -0.00000000000E+00 -0.11320101338E+02  0.11320101338E+02  0.00000000000E+00 0. -1.
         25    2    1    2    0    0  0.24533542130E+02  0.45485221577E+01  0.63619154260E+03  0.64885302682E+03  0.12509191740E+03 0.  0.
          5    1    3    3  502    0  0.36080788944E+02 -0.25238747750E+01  0.63335475294E+03  0.63440043249E+03  0.41800000000E+01 0. -1.
         -5    1    3    3    0  502 -0.11547246814E+02  0.70723969327E+01  0.28367896603E+01  0.14452594332E+02  0.41800000000E+01 0. -1.
        -11    1    1    2    0    0  0.35332228629E+02 -0.15149273674E+01  0.17002996035E+03  0.17366879052E+03  0.00000000000E+00 0. -1.
         11    1    1    2    0    0 -0.59865770759E+02 -0.30335947902E+01  0.28020359870E+03  0.28654348698E+03  0.00000000000E+00 0.  1.
</event>
<event>
 7    1  0.2522928E-009  0.1134664E+03  0.7561462E-02  0.1254282E+00
          1   -1    0    0  501    0  0.00000000000E+00  0.00000000000E+00  0.15865784739E+03  0.15865784739E+03  0.00000000000E+00 0. -1.
         -1   -1    0    0    0  501 -0.00000000000E+00 -0.00000000000E+00 -0.12592060671E+03  0.12592060671E+03  0.00000000000E+00 0.  1.
         25    2    1    2    0    0 -0.58270961438E+02  0.46214835989E+02 -0.33840462852E+02  0.14941492569E+03  0.12509327352E+03 0.  0.
          5    1    3    3  502    0  0.95055349707E+01 -0.34327230978E+02  0.67954365538E+01  0.36501566263E+02  0.41800000000E+01 0. -1.
         -5    1    3    3    0  502 -0.67776496409E+02  0.80542066967E+02 -0.40635899406E+02  0.11291335943E+03  0.41800000000E+01 0. -1.
        -11    1    1    2    0    0  0.40612969571E+02 -0.50455292811E+01 -0.13763439415E+02  0.43177574360E+02  0.00000000000E+00 0.  1.
         11    1    1    2    0    0  0.17657991867E+02 -0.41169306708E+02  0.80341142954E+02  0.91985954052E+02  0.00000000000E+00 0. -1.
</event>
<event>
 7    1  0.2522928E-009  0.1855626E+03  0.7561462E-02  0.1162526E+00
          1   -1    0    0  501    0  0.00000000000E+00  0.00000000000E+00  0.44022654230E+02  0.44022654230E+02  0.00000000000E+00 0. -1.
         -1   -1    0    0    0  501 -0.00000000000E+00 -0.00000000000E+00 -0.80808695600E+03  0.80808695600E+03  0.00000000000E+00 0.  1.
         25    2    1    2    0    0 -0.12827999055E+03 -0.81370943712E+02 -0.35531276746E+03  0.40616631309E+03  0.12508766813E+03 0.  0.
          5    1    3    3  502    0 -0.16026034639E+02 -0.80623192797E+02 -0.18038167173E+03  0.19827242093E+03  0.41800000000E+01 0. -1.
         -5    1    3    3    0  502 -0.11225395591E+03 -0.74775091553E+00 -0.17493109572E+03  0.20789389217E+03  0.41800000000E+01 0. -1.
        -11    1    1    2    0    0 -0.79636203030E+01  0.29736309880E+02 -0.49774196815E+02  0.58524678916E+02  0.00000000000E+00 0. -1.
         11    1    1    2    0    0  0.13624361085E+03  0.51634633833E+02 -0.35897733750E+03  0.38741861822E+03  0.00000000000E+00 0.  1.
</event>
<event>
 7    1  0.2522928E-009  0.7387303E+02  0.7561462E-02  0.1347397E+00
         -1   -1    0    0    0  501 -0.00000000000E+00  0.00000000000E+00  0.63924971963E+02  0.63924971963E+02  0.00000000000E+00 0.  1.
          1   -1    0    0  501    0  0.00000000000E+00 -0.00000000000E+00 -0.26601118948E+03  0.26601118948E+03  0.00000000000E+00 0. -1.
         25    2    1    2    0    0 -0.71388310904E+02 -0.44868282757E+01 -0.13328682758E+03  0.19628073244E+03  0.12507727595E+03 0.  0.
          5    1    3    3  502    0 -0.66740118415E+02 -0.85735382145E+01 -0.15729683501E+03  0.17113595667E+03  0.41800000000E+01 0.  1.
         -5    1    3    3    0  502 -0.46481924887E+01  0.40867099388E+01  0.24010007428E+02  0.25144775764E+02  0.41800000000E+01 0.  1.
        -11    1    1    2    0    0  0.49667516349E+02  0.94989060043E+01  0.10187124732E+02  0.51583610827E+02  0.00000000000E+00 0.  1.
         11    1    1    2    0    0  0.21720794554E+02 -0.50120777286E+01 -0.78986514669E+02  0.82071818177E+02  0.00000000000E+00 0. -1.
</event>
<event>
 7    1  0.2522928E-009  0.1173315E+03  0.7561462E-02  0.1247565E+00
         -2   -1    0    0    0  501 -0.00000000000E+00  0.00000000000E+00  0.64560620699E+02  0.64560620699E+02  0.00000000000E+00 0.  1.
          2   -1    0    0  501    0  0.00000000000E+00 -0.00000000000E+00 -0.28405875697E+03  0.28405875697E+03  0.00000000000E+00 0. -1.
         25    2    1    2    0    0  0.45751171540E+01 -0.75653838097E+02 -0.84090561999E+02  0.16870999336E+03  0.12508958520E+03 0.  0.
          5    1    3    3  502    0  0.46188181959E+02 -0.39029109838E+02  0.80007300199E+01  0.61140033107E+02  0.41800000000E+01 0.  1.
         -5    1    3    3    0  502 -0.41613064805E+02 -0.36624728259E+02 -0.92091292019E+02  0.10756996025E+03  0.41800000000E+01 0.  1.
        -11    1    1    2    0    0 -0.89335402110E+01  0.96625033886E+02 -0.11063248757E+03  0.14715893660E+03  0.00000000000E+00 0. -1.
         11    1    1    2    0    0  0.43584230571E+01 -0.20971195789E+02 -0.24775086699E+02  0.32750447712E+02  0.00000000000E+00 0.  1.
</event>
<event>
 7    1  0.2522928E-009  0.2509850E+03  0.7561462E-02  0.1112684E+00
         -2   -1    0    0    0  501 -0.00000000000E+00  0.00000000000E+00  0.44856043747E+02  0.44856043747E+02  0.00000000000E+00 0.  1.
          2   -1    0    0  501    0  0.00000000000E+00 -0.00000000000E+00 -0.21661141478E+04  0.21661141478E+04  0.00000000000E+00 0. -1.
         25    2    1    2    0    0  0.82542439588E+02  0.22334848561E+03 -0.16771938946E+04  0.16986239805E+04  0.12508503824E+03 0.  0.
          5    1    3    3  502    0  0.10223966866E+03  0.20886628727E+03 -0.13019798087E+04  0.13225910065E+04  0.41800000000E+01 0.  1.
         -5    1    3    3    0  502 -0.19697229070E+02  0.14482198337E+02 -0.37521408590E+03  0.37603297403E+03  0.41800000000E+01 0.  1.
        -11    1    1    2    0    0 -0.40542602626E+02 -0.17887319582E+03 -0.25848220106E+03  0.31694222040E+03  0.00000000000E+00 0.  1.
         11    1    1    2    0    0 -0.41999836962E+02 -0.44475289788E+02 -0.18558200840E+03  0.19540399061E+03  0.00000000000E+00 0. -1.
</event>
<event>
 7    1  0.2522928E-009  0.1426413E+03  0.7561462E-02  0.1209818E+00
         -2   -1    0    0    0  501 -0.00000000000E+00  0.00000000000E+00  0.70998570340E+03  0.70998570340E+03  0.00000000000E+00 0.  1.
          2   -1    0    0  501    0  0.00000000000E+00 -0.00000000000E+00 -0.43153555009E+02  0.43153555009E+02  0.00000000000E+00 0. -1.
         25    2    1    2    0    0 -0.99450604806E+02  0.43462717869E+02  0.52585675146E+03  0.55131823878E+03  0.12508815577E+03 0.  0.
          5    1    3    3  502    0  0.21762860129E+02 -0.20783068723E+01  0.22863169797E+02  0.31908280644E+02  0.41800000000E+01 0. -1.
         -5    1    3    3    0  502 -0.12121346494E+03  0.45541024742E+02  0.50299358166E+03  0.51940995814E+03  0.41800000000E+01 0. -1.
        -11    1    1    2    0    0  0.70689018290E+02  0.11327133038E+02  0.36410169290E+02  0.80317754435E+02  0.00000000000E+00 0. -1.
         11    1    1    2    0    0  0.28761586516E+02 -0.54789850907E+02  0.10456522764E+03  0.12150326519E+03  0.00000000000E+00 0.  1.
</event>
<event>
 7    1  0.2522928E-009  0.9360921E+02  0.7561462E-02  0.1294340E+00
          2   -1    0    0  501    0  0.00000000000E+00  0.00000000000E+00  0.40558292905E+03  0.40558292905E+03  0.00000000000E+00 0. -1.
         -2   -1    0    0    0  501 -0.00000000000E+00 -0.00000000000E+00 -0.56216684869E+02  0.56216684869E+02  0.00000000000E+00 0.  1.
         25    2    1    2    0    0 -0.62779466887E+02 -0.56191541851E+02  0.92743849110E+02  0.17705567888E+03  0.12509412871E+03 0.  0.
          5    1    3    3  502    0 -0.20016036185E+02 -0.56063652103E+02 -0.14596147357E+02  0.61435288795E+02  0.41800000000E+01 0. -1.
         -5    1    3    3    0  502 -0.42763430703E+02 -0.12788974813E+00  0.10733999647E+03  0.11562039008E+03  0.41800000000E+01 0. -1.
        -11    1    1    2    0    0  0.11668749428E+02  0.14530423065E+02 -0.11502082977E+01  0.18671258307E+02  0.00000000000E+00 0.  1.
         11    1    1    2    0    0  0.51110717459E+02  0.41661118787E+02  0.25777260337E+03  0.26607267674E+03  0.00000000000E+00 0. -1.
</event>
<event>
 7    1  0.2522928E-009  0.1094482E+03  0.7561462E-02  0.1261595E+00
         -1   -1    0    0    0  501 -0.00000000000E+00  0.00000000000E+00  0.11983963358E+03  0.11983963358E+03  0.00000000000E+00 0.  1.
          1   -1    0    0  501    0  0.00000000000E+00 -0.00000000000E+00 -0.12898703882E+03  0.12898703882E+03  0.00000000000E+00 0. -1.
         25    2    1    2    0    0 -0.38273097229E+02 -0.51591693641E+02  0.24819650344E+02  0.14279149128E+03  0.12508741789E+03 0.  0.
          5    1    3    3  502    0 -0.77676722940E+02 -0.31651332540E+02  0.43594655610E+02  0.94622653397E+02  0.41800000000E+01 0. -1.
         -5    1    3    3    0  502  0.39403625710E+02 -0.19940361101E+02 -0.18775005267E+02  0.48168837880E+02  0.41800000000E+01 0. -1.
        -11    1    1    2    0    0 -0.74302792242E+01  0.43513674326E+02  0.62992230124E+01  0.44590684154E+02  0.00000000000E+00 0.  1.
         11    1    1    2    0    0  0.45703376454E+02  0.80780193146E+01 -0.40266278592E+02  0.61444496963E+02  0.00000000000E+00 0. -1.
</event>
<event>
 7    1  0.2522928E-009  0.1680868E+03  0.7561462E-02  0.1179858E+00
          1   -1    0    0  501    0  0.00000000000E+00  0.00000000000E+00  0.74313638823E+02  0.74313638823E+02  0.00000000000E+00 0. -1.
         -1   -1    0    0    0  501 -0.00000000000E+00 -0.00000000000E+00 -0.71936362113E+03  0.71936362113E+03  0.00000000000E+00 0.  1.
         25    2    1    2    0    0  0.30486116312E+02 -0.13224543735E+03 -0.51421652999E+03  0.54633720018E+03  0.12508971818E+03 0.  0.
          5    1    3    3  502    0  0.66852286994E+02 -0.49180222126E+02 -0.15547097885E+03  0.17628562105E+03  0.41800000000E+01 0.  1.
         -5    1    3    3    0  502 -0.36366170682E+02 -0.83065215222E+02 -0.35874555114E+03  0.37005157913E+03  0.41800000000E+01 0.  1.
        -11    1    1    2    0    0  0.30313923929E+02  0.64532590017E+02  0.17409649796E+02  0.73392677185E+02  0.00000000000E+00 0. -1.
         11    1    1    2    0    0 -0.60800040241E+02  0.67712847331E+02 -0.14824310211E+03  0.17394738259E+03  0.00000000000E+00 0.  1.
</event>
<event>
 7    1  0.2522928E-009  0.8845752E+02  0.7561462E-02  0.1306631E+00
         -1   -1    0    0    0  501 -0.00000000000E+00  0.00000000000E+00  0.21404822841E+03  0.21404822841E+03  0.00000000000E+00 0.  1.
          1   -1    0    0  501    0  0.00000000000E+00 -0.00000000000E+00 -0.64580220541E+02  0.64580220541E+02  0.00000000000E+00 0. -1.
         25    2    1    2    0    0 -0.25485661748E+01  0.42572107244E+02  0.93023623895E+02  0.16161486457E+03  0.12508833016E+03 0.  0.
          5    1    3    3  502    0 -0.11614878123E+01  0.80949675457E+02  0.27595288706E+02  0.85633938186E+02  0.41800000000E+01 0.  1.
         -5    1    3    3    0  502 -0.13870783625E+01 -0.38377568213E+02  0.65428335188E+02  0.75980926382E+02  0.41800000000E+01 0.  1.
        -11    1    1    2    0    0  0.20245732960E+02 -0.19188018225E+02 -0.20534957969E+02  0.34637468805E+02  0.00000000000E+00 0. -1.
         11    1    1    2    0    0 -0.17697166785E+02 -0.23384089019E+02  0.76979341939E+02  0.82376115572E+02  0.00000000000E+00 0.  1.
</event>
<event>
 7    1  0.2522928E-009  0.9451275E+02  0.7561462E-02  0.1292277E+00
          1   -1    0    0  501    0  0.00000000000E+00  0.00000000000E+00  0.67730601660E+03  0.67730601660E+03  0.00000000000E+00 0. -1.
         -1   -1    0    0    0  501 -0.00000000000E+00 -0.00000000000E+00 -0.23766103801E+02  0.23766103801E+02  0.00000000000E+00 0.  1.
         25    2    1    2    0    0 -0.27769694631E+02  0.53468657080E+02  0.29928782562E+03  0.32992495310E+03  0.12508884396E+03 0.  0.
          5    1    3    3  502    0 -0.10307604991E+02  0.63013139248E+02  0.30262726069E+03  0.30931801395E+03  0.41800000000E+01 0.  1.
         -5    1    3    3    0  502 -0.17462089640E+02 -0.95444821681E+01 -0.33394350748E+01  0.20606939149E+02  0.41800000000E+01 0.  1.
        -11    1    1    2    0    0 -0.25617110621E+02  0.43757757083E+01  0.15033392269E+03  0.15256366567E+03  0.00000000000E+00 0.  1.
         11    1    1    2    0    0  0.53386805252E+02 -0.57844432789E+02  0.20391816448E+03  0.21858350163E+03  0.00000000000E+00 0. -1.
</event>
<event>
 7    1  0.2522928E-009  0.1044978E+03  0.7561462E-02  0.1271112E+00
         -2   -1    0    0    0  501 -0.00000000000E+00  0.00000000000E+00  0.77249793152E+03  0.77249793152E+03  0.00000000000E+00 0.  1.
          2   -1    0    0  501    0  0.00000000000E+00 -0.00000000000E+00 -0.22053398382E+02  0.22053398382E+02  0.00000000000E+00 0. -1.
         25    2    1    2    0    0  0.78876406522E+01  0.61361104080E+02  0.53628741243E+03  0.55414764472E+03  0.12509205989E+03 0.  0.
          5    1    3    3  502    0 -0.31972099158E+02  0.47400122150E+02  0.48122428577E+03  0.48462694139E+03  0.41800000000E+01 0.  1.
         -5    1    3    3    0  502  0.39859739810E+02  0.13960981929E+02  0.55063126663E+02  0.69520703334E+02  0.41800000000E+01 0.  1.
        -11    1    1    2    0    0  0.22158112187E+02  0.15274399206E+02  0.52728982493E+02  0.59199956095E+02  0.00000000000E+00 0. -1.
         11    1    1    2    0    0 -0.30045752840E+02 -0.76635503286E+02  0.16142813821E+03  0.18120372908E+03  0.00000000000E+00 0.  1.
</event>
<event>
 7    1  0.2522928E-009  0.3408886E+03  0.7561462E-02  0.1066418E+00
         -2   -1    0    0    0  501 -0.00000000000E+00  0.00000000000E+00  0.64186657589E+03  0.64186657589E+03  0.00000000000E+00 0.  1.
          2   -1    0    0  501    0  0.00000000000E+00 -0.00000000000E+00 -0.24572171882E+03  0.24572171882E+03  0.00000000000E+00 0. -1.
         25    2    1    2    0    0 -0.15063366206E+03  0.29048926916E+03  0.42121296538E+03  0.54785127148E+03  0.12508452268E+03 0.  0.
          5    1    3    3  502    0 -0.12523484995E+03  0.10993295896E+03  0.22421544950E+03  0.27939052114E+03  0.41800000000E+01 0. -1.
         -5    1    3    3    0  502 -0.25398812109E+02  0.18055631020E+03  0.19699751587E+03  0.26846075034E+03  0.41800000000E+01 0. -1.
        -11    1    1    2    0    0  0.49403534049E+02 -0.16058599096E+03  0.19454380768E+02  0.16913616586E+03  0.00000000000E+00 0. -1.
         11    1    1    2    0    0  0.10123012801E+03 -0.12990327820E+03 -0.44522489068E+02  0.17060085738E+03  0.00000000000E+00 0.  1.
</event>
<event>
 7    1  0.2522928E-009  0.6835927E+02  0.7561462E-02  0.1365763E+00
         -1   -1    0    0    0  501 -0.00000000000E+00  0.00000000000E+00  0.36619433519E+02  0.36619433519E+02  0.00000000000E+00 0.  1.
          1   -1    0    0  501    0  0.00000000000E+00 -0.00000000000E+00 -0.72027860503E+03  0.72027860503E+03  0.00000000000E+00 0. -1.
         25    2    1    2    0    0  0.69376504640E+01 -0.16775935567E+02 -0.64444271356E+03  0.65672175091E+03  0.12508990387E+03 0.  0.
          5    1    3    3  502    0 -0.29066160885E+02  0.34700668462E+01 -0.57538983851E+03  0.57614913150E+03  0.41800000000E+01 0.  1.
         -5    1    3    3    0  502  0.36003811349E+02 -0.20246002414E+02 -0.69052875055E+02  0.80572619411E+02  0.41800000000E+01 0.  1.
        -11    1    1    2    0    0 -0.31151154318E+02 -0.67475247727E+01  0.15841190781E+02  0.35593072799E+02  0.00000000000E+00 0.  1.
         11    1    1    2    0    0  0.24213503854E+02  0.23523460340E+02 -0.55057648732E+02  0.64583214840E+02  0.00000000000E+00 0. -1.
</event>
<event>
 7    1  0.2522928E-009  0.1472236E+03  0.7561462E-02  0.1203927E+00
          1   -1    0    0  501    0  0.00000000000E+00  0.00000000000E+00  0.11494818519E+03  0.11494818519E+03  0.00000000000E+00 0. -1.
         -1   -1    0    0    0  501 -0.00000000000E+00 -0.00000000000E+00 -0.21676544423E+03  0.21676544423E+03  0.00000000000E+00 0.  1.
         25    2    1    2    0    0  0.34522058115E+02  0.98514446221E+02 -0.56266409820E+01  0.16303025675E+03  0.12510130662E+03 0.  0.
          5    1    3    3  502    0 -0.47069973528E+02  0.35114465503E+02  0.49308050229E+01  0.59079550892E+02  0.41800000000E+01 0. -1.
         -5    1    3    3    0  502  0.81592031643E+02  0.63399980718E+02 -0.10557446005E+02  0.10395070586E+03  0.41800000000E+01 0. -1.
        -11    1    1    2    0    0 -0.54464370926E+02 -0.33008155543E+02 -0.21172346067E+02  0.67113145290E+02  0.00000000000E+00 0. -1.
         11    1    1    2    0    0  0.19942312811E+02 -0.65506290678E+02 -0.75018271992E+02  0.10157022739E+03  0.00000000000E+00 0.  1.
</event>
<event>
 7    1  0.2522928E-009  0.2011519E+03  0.7561462E-02  0.1148771E+00
         -2   -1    0    0    0  501 -0.00000000000E+00  0.00000000000E+00  0.35384949441E+02  0.35384949441E+02  0.00000000000E+00 0.  1.
          2   -1    0    0  501    0  0.00000000000E+00 -0.00000000000E+00 -0.13118984335E+04  0.13118984335E+04  0.00000000000E+00 0. -1.
         25    2    1    2    0    0 -0.11318097352E+03 -0.14631740701E+03 -0.70346624810E+03  0.73805737370E+03  0.12508080705E+03 0.  0.
          5    1    3    3  502    0  0.50382771358E+01 -0.77802141532E+02 -0.16547707160E+03  0.18297183141E+03  0.41800000000E+01 0.  1.
         -5    1    3    3    0  502 -0.11821925065E+03 -0.68515265479E+02 -0.53798917649E+03  0.55508554228E+03  0.41800000000E+01 0.  1.
        -11    1    1    2    0    0  0.75132285708E+02  0.11881340247E+03 -0.51868401295E+03  0.53739612043E+03  0.00000000000E+00 0. -1.
         11    1    1    2    0    0  0.38048687810E+02  0.27504004537E+02 -0.54363222977E+02  0.71829888780E+02  0.00000000000E+00 0.  1.
</event>
<event>
 7    1  0.2522928E-009  0.1097811E+03  0.7561462E-02  0.1260976E+00
         -2   -1    0    0    0  501 -0.00000000000E+00  0.00000000000E+00  0.40030158744E+02  0.40030158744E+02  0.00000000000E+00 0.  1.
          2   -1    0    0  501    0  0.00000000000E+00 -0.00000000000E+00 -0.57822379372E+03  0.57822379372E+03  0.00000000000E+00 0. -1.
         25    2    1    2    0    0  0.30940320358E+02 -0.53776902604E+02 -0.45975399179E+03  0.48049043467E+03  0.12509223065E+03 0.  0.
          5    1    3    3  502    0 -0.41565403751E+02 -0.22814343395E+02 -0.28204039331E+03  0.28602872743E+03  0.41800000000E+01 0.  1.
         -5    1    3    3    0  502  0.72505724109E+02 -0.30962559209E+02 -0.17771359847E+03  0.19446170724E+03  0.41800000000E+01 0.  1.
        -11    1    1    2    0    0 -0.53228439998E+02  0.42007377028E+02 -0.14925385820E+02  0.69430927484E+02  0.00000000000E+00 0. -1.
         11    1    1    2    0    0  0.22288119639E+02  0.11769525576E+02 -0.63514257369E+02  0.68332590310E+02  0.00000000000E+00 0.  1.
</event>
<event>
 7    1  0.2522928E-009  0.9513867E+02  0.7561462E-02  0.1290864E+00
         -2   -1    0    0    0  501 -0.00000000000E+00  0.00000000000E+00  0.55305029114E+02  0.55305029114E+02  0.00000000000E+00 0.  1.
          2   -1    0    0  501    0  0.00000000000E+00 -0.00000000000E+00 -0.28910173022E+03  0.28910173022E+03  0.00000000000E+00 0. -1.
         25    2    1    2    0    0  0.23836758119E+02  0.42828441577E+02 -0.18284639493E+03  0.22689929136E+03  0.12509203746E+03 0.  0.
          5    1    3    3  502    0 -0.99083335336E+01  0.74294916259E+02 -0.61615715193E+02  0.97117858369E+02  0.41800000000E+01 0. -1.
         -5    1    3    3    0  502  0.33745091653E+02 -0.31466474682E+02 -0.12123067974E+03  0.12978143299E+03  0.41800000000E+01 0. -1.
        -11    1    1    2    0    0  0.21940661324E+01  0.98655415223E+01  0.21772694365E+02  0.24004021655E+02  0.00000000000E+00 0.  1.
         11    1    1    2    0    0 -0.26030824251E+02 -0.52693983099E+02 -0.72723000538E+02  0.93503446318E+02  0.00000000000E+00 0. -1.
</event>
<event>
 7    1  0.2522928E-009  0.1698892E+03  0.7561462E-02  0.1177963E+00
         -2   -1    0    0    0  501 -0.00000000000E+00  0.00000000000E+00  0.50098417159E+02  0.50098417159E+02  0.00000000000E+00 0.  1.
          2   -1    0    0  501    0  0.00000000000E+00 -0.00000000000E+00 -0.11345460916E+04  0.11345460916E+04  0.00000000000E+00 0. -1.
         25    2    1    2    0    0  0.30140038683E+01 -0.14647498106E+03 -0.17948515685E+03  0.26329821772E+03  0.12508807148E+03 0.  0.
          5    1    3    3  502    0 -0.18615284010E+02 -0.14553783456E+03 -0.92353177621E+02  0.17341964106E+03  0.41800000000E+01 0.  1.
         -5    1    3    3    0  502  0.21629287878E+02 -0.93714649738E+00 -0.87131979232E+02  0.89878576661E+02  0.41800000000E+01 0.  1.
        -11    1    1    2    0    0  0.35540114051E+02  0.24875017832E+02 -0.17333562594E+03  0.17868157554E+03  0.00000000000E+00 0.  1.
         11    1    1    2    0    0 -0.38554117919E+02  0.12159996322E+03 -0.73162689166E+03  0.74266471551E+03  0.00000000000E+00 0. -1.
</event>
<event>
 7    1  0.2522928E-009  0.9510958E+02  0.7561462E-02  0.1290929E+00
          1   -1    0    0  501    0  0.00000000000E+00  0.00000000000E+00  0.74727573698E+03  0.74727573698E+03  0.00000000000E+00 0. -1.
         -1   -1    0    0    0  501 -0.00000000000E+00 -0.00000000000E+00 -0.21206995658E+02  0.21206995658E+02  0.00000000000E+00 0.  1.
         25    2    1    2    0    0  0.52811670067E+01 -0.60486403742E+02  0.33738384692E+03  0.36491337243E+03  0.12508962168E+03 0.  0.
          5    1    3    3  502    0 -0.71498834332E+00 -0.72139829587E+02  0.82562637178E+02  0.10972113597E+03  0.41800000000E+01 0.  1.
         -5    1    3    3    0  502  0.59961553500E+01  0.11653425845E+02  0.25482120974E+03  0.25519223646E+03  0.41800000000E+01 0.  1.
        -11    1    1    2    0    0  0.27265134365E+02 -0.79643244871E+01  0.16408320006E+03  0.16652361562E+03  0.00000000000E+00 0. -1.
         11    1    1    2    0    0 -0.32546301372E+02  0.68450728229E+02  0.22460169434E+03  0.23704574459E+03  0.00000000000E+00 0.  1.
</event>
<event>
 7    1  0.2522928E-009  0.8436763E+02  0.7561462E-02  0.1317095E+00
         -2   -1    0    0    0  501 -0.00000000000E+00  0.00000000000E+00  0.68371182876E+02  0.68371182876E+02  0.00000000000E+00 0.  1.
          2   -1    0    0  501    0  0.00000000000E+00 -0.00000000000E+00 -0.21099793235E+03  0.21099793235E+03  0.00000000000E+00 0. -1.
         25    2    1    2    0    0 -0.51626729145E+01  0.26338889689E+02 -0.15984974216E+03  0.20474205157E+03  0.12508787834E+03 0.  0.
          5    1    3    3  502    0  0.16909032165E+01 -0.49511858538E+02 -0.80976106594E+02  0.95020447951E+02  0.41800000000E+01 0. -1.
         -5    1    3    3    0  502 -0.68535761310E+01  0.75850748227E+02 -0.78873635567E+02  0.10972160362E+03  0.41800000000E+01 0. -1.
        -11    1    1    2    0    0 -0.12549518701E+02 -0.20607021366E+02  0.39072742746E+02  0.45921879043E+02  0.00000000000E+00 0.  1.
         11    1    1    2    0    0  0.17712191615E+02 -0.57318683235E+01 -0.21849750060E+02  0.28705184619E+02  0.00000000000E+00 0. -1.
</event>
<event>
 7    1  0.2522928E-009  0.1263076E+03  0.7561462E-02  0.1233040E+00
          1   -1    0    0  501    0  0.00000000000E+00  0.00000000000E+00  0.16276350178E+04  0.16276350178E+04  0.00000000000E+00 0. -1.
         -1   -1    0    0    0  501 -0.00000000000E+00 -0.00000000000E+00 -0.23924759312E+02  0.23924759312E+02  0.00000000000E+00 0.  1.
         25    2    1    2    0    0  0.29732543248E+02  0.10391735994E+03  0.13536500767E+04  0.13637078708E+04  0.12509110695E+03 0.  0.
          5    1    3    3  502    0 -0.19137549039E+02 -0.42663644407E+01  0.40440055669E+02  0.45136660835E+02  0.41800000000E+01 0. -1.
         -5    1    3    3    0  502  0.48870092287E+02  0.10818372438E+03  0.13132100210E+04  0.13185712100E+04  0.41800000000E+01 0. -1.
        -11    1    1    2    0    0 -0.37580844355E+02 -0.75993961070E+02  0.84242674999E+02  0.11951665270E+03  0.00000000000E+00 0.  1.
         11    1    1    2    0    0  0.78483011070E+01 -0.27923398870E+02  0.16581750683E+03  0.16833525361E+03  0.00000000000E+00 0. -1.
</event>
<event>
 7    1  0.2522928E-009  0.9757397E+02  0.7561462E-02  0.1285482E+00
          1   -1    0    0  501    0  0.00000000000E+00  0.00000000000E+00  0.62577712643E+03  0.62577712643E+03  0.00000000000E+00 0. -1.
         -1   -1    0    0    0  501 -0.00000000000E+00 -0.00000000000E+00 -0.20646970217E+02  0.20646970217E+02  0.00000000000E+00 0.  1.
         25    2    1    2    0    0 -0.12578732005E+02  0.29978855204E+02  0.39517922439E+03  0.41577758486E+03  0.12508966554E+03 0.  0.
          5    1    3    3  502    0 -0.25665055932E+02 -0.31721763090E+02  0.49125770379E+02  0.63998273921E+02  0.41800000000E+01 0.  1.
         -5    1    3    3    0  502  0.13086323928E+02  0.61700618294E+02  0.34605345401E+03  0.35177931093E+03  0.41800000000E+01 0.  1.
        -11    1    1    2    0    0  0.43717851811E+02 -0.38908710904E+02  0.98416935505E+02  0.11450341281E+03  0.00000000000E+00 0.  1.
         11    1    1    2    0    0 -0.31139119807E+02  0.89298556996E+01  0.11153399632E+03  0.11614309898E+03  0.00000000000E+00 0. -1.
</event>
<event>
 7    1  0.2522928E-009  0.7769215E+02  0.7561462E-02  0.1335731E+00
         -1   -1    0    0    0  501 -0.00000000000E+00  0.00000000000E+00  0.95327249552E+02  0.95327249552E+02  0.00000000000E+00 0.  1.
          1   -1    0    0  501    0  0.00000000000E+00 -0.00000000000E+00 -0.59515940971E+03  0.59515940971E+03  0.00000000000E+00 0. -1.
         25    2    1    2    0    0 -0.19018808782E+02 -0.41774759823E+02 -0.55703192282E+03  0.57275926646E+03  0.12514698808E+03 0.  0.
          5    1    3    3  502    0 -0.83123732984E+01 -0.47109159309E+02 -0.55798966174E+03  0.56005205423E+03  0.41800000000E+01 0.  1.
         -5    1    3    3    0  502 -0.10706435483E+02  0.53343994863E+01  0.95773892191E+00  0.12707212223E+02  0.41800000000E+01 0.  1.
        -11    1    1    2    0    0  0.24463855686E+02 -0.20661069356E+02  0.42745888398E+02  0.53409465424E+02  0.00000000000E+00 0.  1.
         11    1    1    2    0    0 -0.54450469040E+01  0.62435829179E+02  0.14453874265E+02  0.64317927379E+02  0.00000000000E+00 0. -1.
</event>
<event>
 7    1  0.2522928E-009  0.3087855E+03  0.7561462E-02  0.1080929E+00
          2   -1    0    0  501    0  0.00000000000E+00  0.00000000000E+00  0.11959409356E+04  0.11959409356E+04  0.00000000000E+00 0. -1.
         -2   -1    0    0    0  501 -0.00000000000E+00 -0.00000000000E+00 -0.96350895414E+02  0.96350895414E+02  0.00000000000E+00 0.  1.
         25    2    1    2    0    0 -0.29908566331E+03  0.45985241131E+02  0.76477328363E+03  0.83192110880E+03  0.12509068515E+03 0.  0.
          5    1    3    3  502    0 -0.16293452374E+03  0.66897925530E+02  0.54250497185E+03  0.57039644840E+03  0.41800000000E+01 0.  1.
         -5    1    3    3    0  502 -0.13615113957E+03 -0.20912684400E+02  0.22226831178E+03  0.26152466040E+03  0.41800000000E+01 0.  1.
        -11    1    1    2    0    0  0.11385270336E+03 -0.55872675105E+01  0.66938360022E+02  0.13219076996E+03  0.00000000000E+00 0.  1.
         11    1    1    2    0    0  0.18523295995E+03 -0.40397973620E+02  0.26787839648E+03  0.32817995220E+03  0.00000000000E+00 0. -1.
</event>
<event>
 7    1  0.2522928E-009  0.1196931E+03  0.7561462E-02  0.1243604E+00
          1   -1    0    0  501    0  0.00000000000E+00  0.00000000000E+00  0.79512387864E+02  0.79512387864E+02  0.00000000000E+00 0. -1.
         -1   -1    0    0    0  501 -0.00000000000E+00 -0.00000000000E+00 -0.22745954045E+03  0.22745954045E+03  0.00000000000E+00 0.  1.
         25    2    1    2    0    0 -0.37855414489E+02 -0.29832578501E+02 -0.14561017281E+02  0.13484342130E+03  0.12509080661E+03 0.  0.
          5    1    3    3  502    0  0.41296167171E+02 -0.31605676800E+02  0.71111755615E+01  0.52652952879E+02  0.41800000000E+01 0. -1.
         -5    1    3    3    0  502 -0.79151581660E+02  0.17730982994E+01 -0.21672192843E+02  0.82190468423E+02  0.41800000000E+01 0. -1.
        -11    1    1    2    0    0 -0.22598418569E+02  0.40660202390E+02 -0.68337574181E+02  0.82667796784E+02  0.00000000000E+00 0.  1.
         11    1    1    2    0    0  0.60453833058E+02 -0.10827623889E+02 -0.65048561126E+02  0.89460710231E+02  0.00000000000E+00 0. -1.
</event>
<event>
 7    1  0.2522928E-009  0.2340427E+03  0.7561462E-02  0.1123826E+00
         -1   -1    0    0    0  501 -0.00000000000E+00  0.00000000000E+00  0.82630991937E+02  0.82630991937E+02  0.00000000000E+00 0.  1.
          1   -1    0    0  501    0  0.00000000000E+00 -0.00000000000E+00 -0.74050654843E+03  0.74050654843E+03  0.00000000000E+00 0. -1.
         25    2    1    2    0    0 -0.54474796939E+02  0.20074750378E+03 -0.21012100398E+03  0.32102776556E+03  0.12506368847E+03 0.  0.
          5    1    3    3  502    0 -0.89205265969E+02  0.95627970668E+02 -0.98629109946E+02  0.16385195141E+03  0.41800000000E+01 0. -1.
         -5    1    3    3    0  502  0.34730469031E+02  0.10511953312E+03 -0.11149189403E+03  0.15717581416E+03  0.41800000000E+01 0. -1.
        -11    1    1    2    0    0  0.56025695921E+02 -0.48216483139E+02 -0.16600836823E+03  0.18172090186E+03  0.00000000000E+00 0. -1.
         11    1    1    2    0    0 -0.15508989821E+01 -0.15253102065E+03 -0.28174618428E+03  0.32038887294E+03  0.00000000000E+00 0.  1.
</event>
<event>
 7    1  0.2522928E-009  0.8756557E+02  0.7561462E-02  0.1308856E+00
         -2   -1    0    0    0  501 -0.00000000000E+00  0.00000000000E+00  0.16755623566E+03  0.16755623566E+03  0.00000000000E+00 0. -1.
          2   -1    0    0  501    0  0.00000000000E+00 -0.00000000000E+00 -0.12095714153E+03  0.12095714153E+03  0.00000000000E+00 0.  1.
         25    2    1    2    0    0  0.34680216426E+02  0.22181218161E+02 -0.57758279998E+02  0.14379854382E+03  0.12508908204E+03 0.  0.
          5    1    3    3  502    0 -0.18338869625E+02  0.61441108799E+02 -0.18291348205E+02  0.66808456118E+02  0.41800000000E+01 0.  1.
         -5    1    3    3    0  502  0.53019086052E+02 -0.39259890638E+02 -0.39466931793E+02  0.76990087699E+02  0.41800000000E+01 0.  1.
        -11    1    1    2    0    0 -0.24948969912E+02 -0.56387505810E+01  0.11827374870E+03  0.12100795940E+03  0.00000000000E+00 0. -1.
         11    1    1    2    0    0 -0.97312465144E+01 -0.16542467580E+02 -0.13916374572E+02  0.23706873974E+02  0.00000000000E+00 0.  1.
</event>
<event>
 7    1  0.2522928E-009  0.1287547E+03  0.7561462E-02  0.1229315E+00
         -3   -1    0    0    0  501 -0.00000000000E+00  0.00000000000E+00  0.12414397481E+03  0.12414397481E+03  0.00000000000E+00 0.  1.
          3   -1    0    0  501    0  0.00000000000E+00 -0.00000000000E+00 -0.17312902397E+03  0.17312902397E+03  0.00000000000E+00 0. -1.
         25    2    1    2    0    0 -0.53428951122E+02 -0.48276001716E+02  0.42477008489E+02  0.15045478753E+03  0.12508845543E+03 0.  0.
          5    1    3    3  502    0 -0.60881692421E+02  0.27971947277E+02  0.25938588549E+02  0.71967305649E+02  0.41800000000E+01 0.  1.
         -5    1    3    3    0  502  0.74527412992E+01 -0.76247948993E+02  0.16538419940E+02  0.78487481885E+02  0.41800000000E+01 0.  1.
        -11    1    1    2    0    0  0.14022222258E+02 -0.26017769832E+02 -0.14943291691E+02  0.33118711186E+02  0.00000000000E+00 0.  1.
         11    1    1    2    0    0  0.39406728864E+02  0.74293771548E+02 -0.76518765957E+02  0.11369950006E+03  0.00000000000E+00 0. -1.
</event>
<event>
 7    1  0.3090395E-009  0.1406997E+03  0.7561462E-02  0.1212391E+00
         -1   -1    0    0    0  501 -0.00000000000E+00  0.00000000000E+00  0.15480262036E+03  0.15480262036E+03  0.00000000000E+00 0.  1.
          1   -1    0    0  501    0  0.00000000000E+00 -0.00000000000E+00 -0.17127818019E+03  0.17127818019E+03  0.00000000000E+00 0. -1.
         25    2    1    2    0    0 -0.88896564245E+02  0.82047584886E+02 -0.79668071620E+01  0.17419836641E+03  0.12508875058E+03 0.  0.
          5    1    3    3  502    0  0.18986605730E+01 -0.11579839593E+02  0.34734298395E+02  0.36900426582E+02  0.41800000000E+01 0.  1.
         -5    1    3    3    0  502 -0.90795224818E+02  0.93627424479E+02 -0.42701105557E+02  0.13729793982E+03  0.41800000000E+01 0.  1.
        -11    1    1    2    0    0  0.31382028900E+02 -0.73999607820E+02 -0.35466448732E+02  0.87855806189E+02  0.00000000000E+00 0. -1.
         11    1    1    2    0    0  0.57514535345E+02 -0.80479770660E+01  0.26957696063E+02  0.64026627959E+02  0.00000000000E+00 0.  1.
</event>
<event>
 7    1  0.2522928E-009  0.2122668E+03  0.7561462E-02  0.1139783E+00
          1   -1    0    0  501    0  0.00000000000E+00  0.00000000000E+00  0.17167204980E+04  0.17167204980E+04  0.00000000000E+00 0. -1.
         -1   -1    0    0    0  501 -0.00000000000E+00 -0.00000000000E+00 -0.31979545693E+02  0.31979545693E+02  0.00000000000E+00 0.  1.
         25    2    1    2    0    0 -0.15830864021E+03 -0.11827544824E+03  0.11108840453E+04  0.11352364409E+04  0.12509079648E+03 0.  0.
          5    1    3    3  502    0  0.11183782586E+02  0.88232293626E+01  0.26791468724E+02  0.30629749684E+02  0.41800000000E+01 0.  1.
         -5    1    3    3    0  502 -0.16949242280E+03 -0.12709867760E+03  0.10840925766E+04  0.11046066912E+04  0.41800000000E+01 0.  1.
        -11    1    1    2    0    0  0.70333560351E+02  0.57810169489E+02  0.14255391296E+03  0.16914621932E+03  0.00000000000E+00 0.  1.
         11    1    1    2    0    0  0.87975079860E+02  0.60465278753E+02  0.43130299403E+03  0.44431738349E+03  0.00000000000E+00 0. -1.
</event>
<event>
 7    1  0.2522928E-009  0.1733654E+03  0.7561462E-02  0.1174383E+00
          2   -1    0    0  501    0  0.00000000000E+00  0.00000000000E+00  0.95686094147E+03  0.95686094147E+03  0.00000000000E+00 0.  1.
         -2   -1    0    0    0  501 -0.00000000000E+00 -0.00000000000E+00 -0.39432638454E+02  0.39432638454E+02  0.00000000000E+00 0. -1.
         25    2    1    2    0    0 -0.14100910225E+03  0.56913417873E+02  0.60138167038E+03  0.63279394008E+03  0.12508218531E+03 0.  0.
          5    1    3    3  502    0 -0.39385792488E+02 -0.38407475481E+02  0.12971600522E+03  0.14096130403E+03  0.41800000000E+01 0. -1.
         -5    1    3    3    0  502 -0.10162330976E+03  0.95320893355E+02  0.47166566517E+03  0.49183263606E+03  0.41800000000E+01 0. -1.
        -11    1    1    2    0    0  0.34712346901E+02 -0.16642312224E+02  0.18961323822E+03  0.19348150737E+03  0.00000000000E+00 0.  1.
         11    1    1    2    0    0  0.10629675535E+03 -0.40271105649E+02  0.12643339441E+03  0.17001813247E+03  0.00000000000E+00 0. -1.
</event>
<event>
 7    1  0.2522928E-009  0.1181549E+03  0.7561462E-02  0.1246172E+00
          2   -1    0    0  501    0  0.00000000000E+00  0.00000000000E+00  0.18133775646E+03  0.18133775646E+03  0.00000000000E+00 0. -1.
         -2   -1    0    0    0  501 -0.00000000000E+00 -0.00000000000E+00 -0.86864876608E+02  0.86864876608E+02  0.00000000000E+00 0.  1.
         25    2    1    2    0    0  0.13239447281E+02  0.55041996086E+02  0.97122394508E+02  0.16818277921E+03  0.12509110045E+03 0.  0.
          5    1    3    3  502    0  0.10681545960E+02 -0.39785932505E+02  0.20687416911E+02  0.46286687804E+02  0.41800000000E+01 0. -1.
         -5    1    3    3    0  502  0.25579013206E+01  0.94827928591E+02  0.76434977597E+02  0.12189609141E+03  0.41800000000E+01 0. -1.
        -11    1    1    2    0    0 -0.82866085251E+01 -0.76997287031E+02 -0.93377131472E+00  0.77447543666E+02  0.00000000000E+00 0. -1.
         11    1    1    2    0    0 -0.49528387556E+01  0.21955290945E+02 -0.17157433396E+01  0.22572310193E+02  0.00000000000E+00 0.  1.
</event>
<event>
 7    1  0.2522928E-009  0.9433757E+02  0.7561462E-02  0.1292675E+00
         -2   -1    0    0    0  501 -0.00000000000E+00  0.00000000000E+00  0.10920875583E+03  0.10920875583E+03  0.00000000000E+00 0. -1.
          2   -1    0    0  501    0  0.00000000000E+00 -0.00000000000E+00 -0.11931219007E+03  0.11931219007E+03  0.00000000000E+00 0.  1.
         25    2    1    2    0    0 -0.17180661605E+02  0.22578626341E+02  0.14099891738E+02  0.12902411135E+03  0.12507375768E+03 0.  0.
          5    1    3    3  502    0 -0.65029138928E+02  0.23293036283E+02 -0.17683631847E+02  0.71425049418E+02  0.41800000000E+01 0.  1.
         -5    1    3    3    0  502  0.47848477323E+02 -0.71440994127E+00  0.31783523585E+02  0.57599061930E+02  0.41800000000E+01 0.  1.
        -11    1    1    2    0    0  0.11427366995E+02 -0.45959809615E+02 -0.46723565017E+02  0.66528041788E+02  0.00000000000E+00 0.  1.
         11    1    1    2    0    0  0.57532946099E+01  0.23381183273E+02  0.22520239042E+02  0.32968792769E+02  0.00000000000E+00 0. -1.
</event>
<event>
 7    1  0.2522928E-009  0.2136553E+03  0.7561462E-02  0.1138704E+00
          2   -1    0    0  501    0  0.00000000000E+00  0.00000000000E+00  0.32718710292E+03  0.32718710292E+03  0.00000000000E+00 0. -1.
         -2   -1    0    0    0  501 -0.00000000000E+00 -0.00000000000E+00 -0.18463452865E+03  0.18463452865E+03  0.00000000000E+00 0.  1.
         25    2    1    2    0    0 -0.41446533916E+02  0.19457361978E+03 -0.25657969183E+02  0.23639589017E+03  0.12509187351E+03 0.  0.
          5    1    3    3  502    0 -0.71450211911E+02  0.10912496351E+03 -0.54257813288E+02  0.14133213770E+03  0.41800000000E+01 0. -1.
         -5    1    3    3    0  502  0.30003677995E+02  0.85448656264E+02  0.28599844105E+02  0.95063752468E+02  0.41800000000E+01 0. -1.
        -11    1    1    2    0    0  0.48078274762E+02 -0.96136649566E+02  0.42411085137E+02  0.11555291444E+03  0.00000000000E+00 0.  1.
         11    1    1    2    0    0 -0.66317408466E+01 -0.98436970209E+02  0.12579945831E+03  0.15987282697E+03  0.00000000000E+00 0. -1.
</event>
<event>
 7    1  0.2522928E-009  0.7096128E+02  0.7561462E-02  0.1356854E+00
         -3   -1    0    0    0  501 -0.00000000000E+00  0.00000000000E+00  0.16643630730E+03  0.16643630730E+03  0.00000000000E+00 0.  1.
          3   -1    0    0  501    0  0.00000000000E+00 -0.00000000000E+00 -0.83876007187E+02  0.83876007187E+02  0.00000000000E+00 0. -1.
         25    2    1    2    0    0 -0.38103287894E+02  0.13962753961E+02  0.14305017516E+02  0.13228444110E+03  0.12509085012E+03 0.  0.
          5    1    3    3  502    0 -0.39444419262E+02  0.10714887172E+02  0.67385562551E+02  0.78923744579E+02  0.41800000000E+01 0. -1.
         -5    1    3    3    0  502  0.13411313685E+01  0.32478667893E+01 -0.53080545035E+02  0.53360696522E+02  0.41800000000E+01 0. -1.
        -11    1    1    2    0    0 -0.63531022039E+01  0.31295845874E+02  0.30738137404E+02  0.44324090150E+02  0.00000000000E+00 0.  1.
         11    1    1    2    0    0  0.44456390097E+02 -0.45258599835E+02  0.37517145189E+02  0.73703783232E+02  0.00000000000E+00 0. -1.
</event>
<event>
 7    1  0.2522928E-009  0.1160409E+03  0.7561462E-02  0.1249775E+00
          1   -1    0    0  501    0  0.00000000000E+00  0.00000000000E+00  0.67643129153E+02  0.67643129153E+02  0.00000000000E+00 0. -1.
         -1   -1    0    0    0  501 -0.00000000000E+00 -0.00000000000E+00 -0.30575253188E+03  0.30575253188E+03  0.00000000000E+00 0.  1.
         25    2    1    2    0    0  0.72951160657E+02 -0.56919864383E+02 -0.10671609086E+03  0.18867256572E+03  0.12508904909E+03 0.  0.
          5    1    3    3  502    0  0.34965721528E+02  0.28756473577E+02 -0.78488369057E+02  0.90705197931E+02  0.41800000000E+01 0.  1.
         -5    1    3    3    0  502  0.37985439129E+02 -0.85676337960E+02 -0.28227721807E+02  0.97967367784E+02  0.41800000000E+01 0.  1.
        -11    1    1    2    0    0 -0.55800486944E+02  0.47235956964E+02 -0.14388965079E+03  0.16139752656E+03  0.00000000000E+00 0.  1.
         11    1    1    2    0    0 -0.17150673713E+02  0.96839074198E+01  0.12496338924E+02  0.23325568765E+02  0.00000000000E+00 0. -1.
</event>
<event>
 7    1  0.2522928E-009  0.7778519E+02  0.7561462E-02  0.1335457E+00
         -1   -1    0    0    0  501 -0.00000000000E+00  0.00000000000E+00  0.26238190870E+02  0.26238190870E+02  0.00000000000E+00 0.  1.
          1   -1    0    0  501    0  0.00000000000E+00 -0.00000000000E+00 -0.58099841066E+03  0.58099841066E+03  0.00000000000E+00 0. -1.
         25    2    1    2    0    0  0.33997074200E+02  0.51132215979E+02 -0.29548127081E+03  0.32669064370E+03  0.12508913109E+03 0.  0.
          5    1    3    3  502    0  0.39242936954E+02  0.35571029352E+02 -0.30337842829E+03  0.30799553468E+03  0.41800000000E+01 0.  1.
         -5    1    3    3    0  502 -0.52458627541E+01  0.15561186627E+02  0.78971574755E+01  0.18695109025E+02  0.41800000000E+01 0.  1.
        -11    1    1    2    0    0 -0.49158217858E+02 -0.24678770965E+02 -0.23561460094E+03  0.24195002024E+03  0.00000000000E+00 0. -1.
         11    1    1    2    0    0  0.15161143657E+02 -0.26453445014E+02 -0.23664348036E+02  0.38595937585E+02  0.00000000000E+00 0.  1.
</event>
<event>
 7    1  0.2522928E-009  0.1257113E+03  0.7561462E-02  0.1233962E+00
         -3   -1    0    0    0  501 -0.00000000000E+00  0.00000000000E+00  0.96848461850E+02  0.96848461850E+02  0.00000000000E+00 0.  1.
          3   -1    0    0  501    0  0.00000000000E+00 -0.00000000000E+00 -0.26730844819E+03  0.26730844819E+03  0.00000000000E+00 0. -1.
         25    2    1    2    0    0  0.32754046070E+02 -0.50763921797E+02 -0.20230660958E+03  0.24540823655E+03  0.12508970780E+03 0.  0.
          5    1    3    3  502    0  0.18385694531E+02  0.40559023213E+02 -0.49065626514E+02  0.66392591700E+02  0.41800000000E+01 0.  1.
         -5    1    3    3    0  502  0.14368351539E+02 -0.91322945010E+02 -0.15324098307E+03  0.17901564485E+03  0.41800000000E+01 0.  1.
        -11    1    1    2    0    0 -0.67322183129E+02  0.37990945243E+02  0.25168444321E+02  0.81295995297E+02  0.00000000000E+00 0.  1.
         11    1    1    2    0    0  0.34568137058E+02  0.12772976554E+02  0.66781789208E+01  0.37452678188E+02  0.00000000000E+00 0. -1.
</event>
<event>
 7    1  0.2522928E-009  0.1013655E+03  0.7561462E-02  0.1277450E+00
         -1   -1    0    0    0  501 -0.00000000000E+00  0.00000000000E+00  0.11091848194E+03  0.11091848194E+03  0.00000000000E+00 0.  1.
          1   -1    0    0  501    0  0.00000000000E+00 -0.00000000000E+00 -0.14078869610E+03  0.14078869610E+03  0.00000000000E+00 0. -1.
         25    2    1    2    0    0  0.62636221908E+02 -0.27864092497E+02 -0.83106209986E+01  0.14288451383E+03  0.12508882414E+03 0.  0.
          5    1    3    3  502    0  0.67637442004E+02 -0.59572175158E+02 -0.38983398445E+02  0.98289599492E+02  0.41800000000E+01 0. -1.
         -5    1    3    3    0  502 -0.50012200966E+01  0.31708082660E+02  0.30672777447E+02  0.44594914337E+02  0.41800000000E+01 0. -1.
        -11    1    1    2    0    0 -0.35800095681E+02 -0.66496738224E+01  0.25603512305E+02  0.44512974008E+02  0.00000000000E+00 0.  1.
         11    1    1    2    0    0 -0.26836126227E+02  0.34513766320E+02 -0.47163105466E+02  0.64309690200E+02  0.00000000000E+00 0. -1.
</event>
<event>
 7    1  0.2522928E-009  0.1429248E+03  0.7561462E-02  0.1209447E+00
         -1   -1    0    0    0  501 -0.00000000000E+00  0.00000000000E+00  0.23275230211E+03  0.23275230211E+03  0.00000000000E+00 0.  1.
          1   -1    0    0  501    0  0.00000000000E+00 -0.00000000000E+00 -0.10559180626E+03  0.10559180626E+03  0.00000000000E+00 0. -1.
         25    2    1    2    0    0 -0.10960171906E+03 -0.21834847153E+02  0.52751757728E+02  0.17583956636E+03  0.12508999873E+03 0.  0.
          5    1    3    3  502    0 -0.93551625153E+00  0.23321506253E+02  0.53030117439E+02  0.58089875195E+02  0.41800000000E+01 0.  1.
         -5    1    3    3    0  502 -0.10866620281E+03 -0.45156353405E+02 -0.27835971114E+00  0.11774969116E+03  0.41800000000E+01 0.  1.
        -11    1    1    2    0    0  0.96441082082E+02 -0.21747321322E+02  0.48425420752E+02  0.11008564699E+03  0.00000000000E+00 0. -1.
         11    1    1    2    0    0  0.13160636976E+02  0.43582168475E+02  0.25983317371E+02  0.52418895030E+02  0.00000000000E+00 0.  1.
</event>
<event>
 7    1  0.2522928E-009  0.2455789E+03  0.7561462E-02  0.1116131E+00
          2   -1    0    0  501    0  0.00000000000E+00  0.00000000000E+00  0.70370590684E+03  0.70370590684E+03  0.00000000000E+00 0. -1.
         -2   -1    0    0    0  501 -0.00000000000E+00 -0.00000000000E+00 -0.87301958620E+02  0.87301958620E+02  0.00000000000E+00 0.  1.
         25    2    1    2    0    0 -0.22122235488E+03 -0.23913534665E+02  0.30614792143E+03  0.39860275025E+03  0.12508563178E+03 0.  0.
          5    1    3    3  502    0  0.14719201341E+02 -0.10675763194E+01  0.36262657466E+02  0.39373180387E+02  0.41800000000E+01 0. -1.
         -5    1    3    3    0  502 -0.23594155622E+03 -0.22845958346E+02  0.26988526396E+03  0.35922956987E+03  0.41800000000E+01 0. -1.
        -11    1    1    2    0    0  0.15069817431E+02  0.28824904348E+02  0.58910010761E+02  0.67293119083E+02  0.00000000000E+00 0. -1.
         11    1    1    2    0    0  0.20615253745E+03 -0.49113696829E+01  0.25134601603E+03  0.32511199612E+03  0.00000000000E+00 0.  1.
</event>
<event>
 7    1  0.2522928E-009  0.1688887E+03  0.7561462E-02  0.1179012E+00
         -2   -1    0    0    0  501 -0.00000000000E+00  0.00000000000E+00  0.47800154923E+03  0.47800154923E+03  0.00000000000E+00 0.  1.
          2   -1    0    0  501    0  0.00000000000E+00 -0.00000000000E+00 -0.42991294365E+03  0.42991294365E+03  0.00000000000E+00 0. -1.
         25    2    1    2    0    0  0.19551477869E+02 -0.12927430611E+03 -0.39565221536E+03  0.43507591287E+03  0.12512500922E+03 0.  0.
          5    1    3    3  502    0  0.31355135152E+02 -0.15182267166E+03 -0.34403213500E+03  0.37737097192E+03  0.41800000000E+01 0.  1.
         -5    1    3    3    0  502 -0.11803657283E+02  0.22548365552E+02 -0.51620080360E+02  0.57704940956E+02  0.41800000000E+01 0.  1.
        -11    1    1    2    0    0  0.29953859015E+02  0.86286101669E+02  0.19075354955E+03  0.21149336083E+03  0.00000000000E+00 0.  1.
         11    1    1    2    0    0 -0.49505336884E+02  0.42988204441E+02  0.25298727139E+03  0.26134521917E+03  0.00000000000E+00 0. -1.
</event>
<event>
 7    1  0.2522928E-009  0.1495821E+03  0.7561462E-02  0.1200987E+00
          1   -1    0    0  501    0  0.00000000000E+00  0.00000000000E+00  0.44548744131E+03  0.44548744131E+03  0.00000000000E+00 0. -1.
         -1   -1    0    0    0  501 -0.00000000000E+00 -0.00000000000E+00 -0.62109855290E+02  0.62109855290E+02  0.00000000000E+00 0.  1.
         25    2    1    2    0    0 -0.11580879635E+03 -0.45376846502E+02  0.25396636531E+03  0.30922107421E+03  0.12509205617E+03 0.  0.
          5    1    3    3  502    0 -0.94184242349E+02  0.10493426519E+02  0.22148799077E+03  0.24094643796E+03  0.41800000000E+01 0. -1.
         -5    1    3    3    0  502 -0.21624553996E+02 -0.55870273021E+02  0.32478374540E+02  0.68274636255E+02  0.41800000000E+01 0. -1.
        -11    1    1    2    0    0  0.12634668349E+03  0.40910320897E+02  0.98302086207E+02  0.16522844470E+03  0.00000000000E+00 0.  1.
         11    1    1    2    0    0 -0.10537887146E+02  0.44665256054E+01  0.31109134500E+02  0.33147777690E+02  0.00000000000E+00 0. -1.
</event>
<event>
 7    1  0.2522928E-009  0.1031709E+03  0.7561462E-02  0.1273766E+00
          2   -1    0    0  501    0  0.00000000000E+00  0.00000000000E+00  0.37537762482E+03  0.37537762482E+03  0.00000000000E+00 0. -1.
         -2   -1    0    0    0  501 -0.00000000000E+00 -0.00000000000E+00 -0.34449748138E+02  0.34449748138E+02  0.00000000000E+00 0.  1.
         25    2    1    2    0    0 -0.95485363158E+01 -0.34347730772E+02  0.19804989429E+03  0.23694152848E+03  0.12508631475E+03 0.  0.
          5    1    3    3  502    0  0.56115673167E+02 -0.23920104548E+02  0.72746576245E+02  0.95029873892E+02  0.41800000000E+01 0.  1.
         -5    1    3    3    0  502 -0.65664209483E+02 -0.10427626224E+02  0.12530331805E+03  0.14191165459E+03  0.41800000000E+01 0.  1.
        -11    1    1    2    0    0 -0.24358089017E+02  0.37295136195E+02  0.12838660004E+03  0.13589467522E+03  0.00000000000E+00 0. -1.
         11    1    1    2    0    0  0.33906625333E+02 -0.29474054237E+01  0.14491382355E+02  0.36991169254E+02  0.00000000000E+00 0.  1.
</event>
<event>
 7    1  0.2522928E-009  0.1203832E+03  0.7561462E-02  0.1242466E+00
          2   -1    0    0  501    0  0.00000000000E+00  0.00000000000E+00  0.42539180134E+03  0.42539180134E+03  0.00000000000E+00 0. -1.
         -2   -1    0    0    0  501 -0.00000000000E+00 -0.00000000000E+00 -0.44561565014E+02  0.44561565014E+02  0.00000000000E+00 0.  1.
         25    2    1    2    0    0  0.11208636714E+02  0.58436888116E+02  0.10641618817E+03  0.17466776993E+03  0.12507566237E+03 0.  0.
          5    1    3    3  502    0  0.60214765164E+01  0.97136362149E+02  0.62418765923E+02  0.11569488221E+03  0.41800000000E+01 0. -1.
         -5    1    3    3    0  502  0.51871601975E+01 -0.38699474033E+02  0.43997422245E+02  0.58972887716E+02  0.41800000000E+01 0. -1.
        -11    1    1    2    0    0 -0.33085758399E+02 -0.71373616567E+02  0.23957713273E+03  0.25216277100E+03  0.00000000000E+00 0. -1.
         11    1    1    2    0    0  0.21877121685E+02  0.12936728451E+02  0.34836915433E+02  0.43122825431E+02  0.00000000000E+00 0.  1.
</event>
<event>
 7    1  0.2522928E-009  0.1042272E+03  0.7561462E-02  0.1271650E+00
         -2   -1    0    0    0  501 -0.00000000000E+00  0.00000000000E+00  0.83311167255E+02  0.83311167255E+02  0.00000000000E+00 0. -1.
          2   -1    0    0  501    0  0.00000000000E+00 -0.00000000000E+00 -0.21130787771E+03  0.21130787771E+03  0.00000000000E+00 0.  1.
         25    2    1    2    0    0 -0.50034985761E+02  0.41989331952E+02 -0.84552233891E+02  0.16451301712E+03  0.12509535862E+03 0.  0.
          5    1    3    3  502    0 -0.10445975041E+02 -0.42455945739E+02 -0.10013725291E+02  0.45048560658E+02  0.41800000000E+01 0. -1.
         -5    1    3    3    0  502 -0.39589010720E+02  0.84445277691E+02 -0.74538508600E+02  0.11946445646E+03  0.41800000000E+01 0. -1.
        -11    1    1    2    0    0  0.50409926172E+02 -0.28953029389E+02 -0.75623121220E+02  0.95384983254E+02  0.00000000000E+00 0.  1.
         11    1    1    2    0    0 -0.37494041079E+00 -0.13036302563E+02  0.32178644660E+02  0.34721044583E+02  0.00000000000E+00 0. -1.
</event>
<event>
 7    1  0.2522928E-009  0.6588138E+02  0.7561462E-02  0.1374686E+00
          1   -1    0    0  501    0  0.00000000000E+00  0.00000000000E+00  0.54501989754E+02  0.54501989754E+02  0.00000000000E+00 0. -1.
         -1   -1    0    0    0  501 -0.00000000000E+00 -0.00000000000E+00 -0.23044591045E+03  0.23044591045E+03  0.00000000000E+00 0.  1.
         25    2    1    2    0    0 -0.14321475526E+02 -0.15198325068E+02 -0.12988744972E+03  0.18153344956E+03  0.12509016735E+03 0.  0.
          5    1    3    3  502    0  0.14939207572E+02 -0.33266973545E+01 -0.14528893985E+03  0.14615264377E+03  0.41800000000E+01 0.  1.
         -5    1    3    3    0  502 -0.29260683098E+02 -0.11871627713E+02  0.15401490130E+02  0.35380805787E+02  0.41800000000E+01 0.  1.
        -11    1    1    2    0    0  0.16444530821E+02  0.48223897319E+02 -0.48351454682E+02  0.70241227469E+02  0.00000000000E+00 0.  1.
         11    1    1    2    0    0 -0.21230552947E+01 -0.33025572251E+02  0.22949836994E+01  0.33173223185E+02  0.00000000000E+00 0. -1.
</event>
<event>
 7    1  0.2522928E-009  0.1087231E+03  0.7561462E-02  0.1262953E+00
         -2   -1    0    0    0  501 -0.00000000000E+00  0.00000000000E+00  0.22826057242E+03  0.22826057242E+03  0.00000000000E+00 0. -1.
          2   -1    0    0  501    0  0.00000000000E+00 -0.00000000000E+00 -0.58255123972E+02  0.58255123972E+02  0.00000000000E+00 0.  1.
         25    2    1    2    0    0  0.33663046307E+02  0.14192808560E+02  0.85306904285E+02  0.15575095873E+03  0.12508579745E+03 0.  0.
          5    1    3    3  502    0  0.50347317016E+02  0.56333001042E+02  0.79687671914E+02  0.10989020335E+03  0.41800000000E+01 0. -1.
         -5    1    3    3    0  502 -0.16684270708E+02 -0.42140192482E+02  0.56192323713E+01  0.45860755379E+02  0.41800000000E+01 0. -1.
        -11    1    1    2    0    0  0.40980692002E+01  0.34444480723E+02  0.15082606307E+02  0.37824614162E+02  0.00000000000E+00 0.  1.
         11    1    1    2    0    0 -0.37761115508E+02 -0.48637289283E+02  0.69615937856E+02  0.92940123503E+02  0.00000000000E+00 0. -1.
</event>
<event>
 7    1  0.2522928E-009  0.1352307E+03  0.7561462E-02  0.1219894E+00
         -2   -1    0    0    0  501 -0.00000000000E+00  0.00000000000E+00  0.35623373477E+02  0.35623373477E+02  0.00000000000E+00 0.  1.
          2   -1    0    0  501    0  0.00000000000E+00 -0.00000000000E+00 -0.92459001585E+03  0.92459001585E+03  0.00000000000E+00 0. -1.
         25    2    1    2    0    0  0.11475207414E+03  0.28812937821E+02 -0.69275952439E+03  0.71383586954E+03  0.12509063158E+03 0.  0.
          5    1    3    3  502    0  0.80350786584E+02  0.65040946675E+01 -0.64793447530E+03  0.65294341932E+03  0.41800000000E+01 0.  1.
         -5    1    3    3    0  502  0.34401287554E+02  0.22308843154E+02 -0.44825049093E+02  0.60892450225E+02  0.41800000000E+01 0.  1.
        -11    1    1    2    0    0 -0.68129083587E+02 -0.61342415251E+02 -0.11128263933E+03  0.14418144733E+03  0.00000000000E+00 0. -1.
         11    1    1    2    0    0 -0.46622990550E+02  0.32529477430E+02 -0.84924478656E+02  0.10219607245E+03  0.00000000000E+00 0.  1.
</event>
<event>
 7    1  0.2522928E-009  0.1092141E+03  0.7561462E-02  0.1262032E+00
         -2   -1    0    0    0  501 -0.00000000000E+00  0.00000000000E+00  0.18557630931E+02  0.18557630931E+02  0.00000000000E+00 0.  1.
          2   -1    0    0  501    0  0.00000000000E+00 -0.00000000000E+00 -0.81747482512E+03  0.81747482512E+03  0.00000000000E+00 0. -1.
         25    2    1    2    0    0  0.43340959051E+02 -0.28448467047E+02 -0.52561508390E+03  0.54277672939E+03  0.12509039745E+03 0.  0.
          5    1    3    3  502    0 -0.17262615869E+01 -0.72238685802E+02 -0.27362361483E+03  0.28303491428E+03  0.41800000000E+01 0.  1.
         -5    1    3    3    0  502  0.45067220638E+02  0.43790218755E+02 -0.25199146907E+03  0.25974181511E+03  0.41800000000E+01 0.  1.
        -11    1    1    2    0    0  0.51119649879E+01 -0.16320070948E+02 -0.63011044359E+01  0.18225828346E+02  0.00000000000E+00 0.  1.
         11    1    1    2    0    0 -0.48452924039E+02  0.44768537995E+02 -0.26700100586E+03  0.27502989832E+03  0.00000000000E+00 0. -1.
</event>
<event>
 7    1  0.2522928E-009  0.1864570E+03  0.7561462E-02  0.1161696E+00
          2   -1    0    0  501    0  0.00000000000E+00  0.00000000000E+00  0.22311462801E+03  0.22311462801E+03  0.00000000000E+00 0. -1.
         -2   -1    0    0    0  501 -0.00000000000E+00 -0.00000000000E+00 -0.16685691653E+03  0.16685691653E+03  0.00000000000E+00 0.  1.
         25    2    1    2    0    0  0.15784172200E+03 -0.11157296220E+02  0.92333485795E+01  0.20192066712E+03  0.12509279205E+03 0.  0.
          5    1    3    3  502    0  0.69083730350E+02  0.56809886396E+02  0.95686314023E+01  0.90049742355E+02  0.41800000000E+01 0. -1.
         -5    1    3    3    0  502  0.88757991648E+02 -0.67967182616E+02 -0.33528282284E+00  0.11187092477E+03  0.41800000000E+01 0. -1.
        -11    1    1    2    0    0 -0.10654114944E+03 -0.24128723032E+02  0.59731214715E+02  0.12450313173E+03  0.00000000000E+00 0. -1.
         11    1    1    2    0    0 -0.51300572561E+02  0.35286019251E+02 -0.12706851813E+02  0.63547745693E+02  0.00000000000E+00 0.  1.
</event>
<event>
 7    1  0.2522928E-009  0.1440779E+03  0.7561462E-02  0.1207945E+00
          2   -1    0    0  501    0  0.00000000000E+00  0.00000000000E+00  0.97350559645E+03  0.97350559645E+03  0.00000000000E+00 0. -1.
         -2   -1    0    0    0  501 -0.00000000000E+00 -0.00000000000E+00 -0.33760810601E+02  0.33760810601E+02  0.00000000000E+00 0.  1.
         25    2    1    2    0    0 -0.12985253926E+03 -0.40218706295E+02  0.63205097279E+03  0.65849469555E+03  0.12509038966E+03 0.  0.
          5    1    3    3  502    0 -0.43669210849E+02 -0.15060972898E+02  0.45071524766E+02  0.64674165055E+02  0.41800000000E+01 0. -1.
         -5    1    3    3    0  502 -0.86183328412E+02 -0.25157733396E+02  0.58697944802E+03  0.59382053050E+03  0.41800000000E+01 0. -1.
        -11    1    1    2    0    0  0.22244592078E-01  0.20590541354E+02  0.89624780219E+01  0.22456555844E+02  0.00000000000E+00 0.  1.
         11    1    1    2    0    0  0.12983029467E+03  0.19628164941E+02  0.29873133504E+03  0.32631515565E+03  0.00000000000E+00 0. -1.
</event>
<event>
 7    1  0.2522928E-009  0.9526747E+02  0.7561462E-02  0.1290575E+00
         -2   -1    0    0    0  501 -0.00000000000E+00  0.00000000000E+00  0.18121878197E+03  0.18121878197E+03  0.00000000000E+00 0. -1.
          2   -1    0    0  501    0  0.00000000000E+00 -0.00000000000E+00 -0.87914793662E+02  0.87914793662E+02  0.00000000000E+00 0.  1.
         25    2    1    2    0    0  0.24612740313E+02  0.23909302612E+02  0.11032792757E+03  0.17028234346E+03  0.12508550337E+03 0.  0.
          5    1    3    3  502    0 -0.39132085526E+02 -0.16818803244E+02  0.75749548823E+02  0.87003786165E+02  0.41800000000E+01 0. -1.
         -5    1    3    3    0  502  0.63744825838E+02  0.40728105856E+02  0.34578378749E+02  0.83278557292E+02  0.41800000000E+01 0. -1.
        -11    1    1    2    0    0  0.13667424583E+02  0.12955189235E+02  0.24858777055E+02  0.31186442880E+02  0.00000000000E+00 0. -1.
         11    1    1    2    0    0 -0.38280164896E+02 -0.36864491847E+02 -0.41882716321E+02  0.67664789293E+02  0.00000000000E+00 0.  1.
</event>
<event>
 7    1  0.2567916E-009  0.1186558E+03  0.7561462E-02  0.1245331E+00
         -2   -1    0    0    0  501 -0.00000000000E+00  0.00000000000E+00  0.19055815514E+03  0.19055815514E+03  0.00000000000E+00 0.  1.
          2   -1    0    0  501    0  0.00000000000E+00 -0.00000000000E+00 -0.12234986978E+03  0.12234986978E+03  0.00000000000E+00 0. -1.
         25    2    1    2    0    0 -0.84970615482E+02  0.59588549852E+02  0.76643179300E+01  0.16271979670E+03  0.12509272441E+03 0.  0.
          5    1    3    3  502    0 -0.71338615739E+02  0.25663191099E+01  0.52569565022E+02  0.88751426219E+02  0.41800000000E+01 0.  1.
         -5    1    3    3    0  502 -0.13631999743E+02  0.57022230742E+02 -0.44905247092E+02  0.73968370485E+02  0.41800000000E+01 0.  1.
        -11    1    1    2    0    0  0.17586868041E+02 -0.26884527635E+02  0.67710679909E+02  0.74945392970E+02  0.00000000000E+00 0.  1.
         11    1    1    2    0    0  0.67383747441E+02 -0.32704022217E+02 -0.71667124788E+01  0.75242835248E+02  0.00000000000E+00 0. -1.
</event>
<event>
 7    1  0.2522928E-009  0.1430250E+03  0.7561462E-02  0.1209316E+00
         -2   -1    0    0    0  501 -0.00000000000E+00  0.00000000000E+00  0.20472511603E+02  0.20472511603E+02  0.00000000000E+00 0.  1.
          2   -1    0    0  501    0  0.00000000000E+00 -0.00000000000E+00 -0.11404604251E+04  0.11404604251E+04  0.00000000000E+00 0. -1.
         25    2    1    2    0    0  0.74398732676E+02 -0.56055684485E+02 -0.77757057221E+03  0.79305777840E+03  0.12508890406E+03 0.  0.
          5    1    3    3  502    0  0.65652761283E+02  0.27878351342E+02 -0.36301306396E+03  0.36997762708E+03  0.41800000000E+01 0. -1.
         -5    1    3    3    0  502  0.87459713930E+01 -0.83934035827E+02 -0.41455750826E+03  0.42308015132E+03  0.41800000000E+01 0. -1.
        -11    1    1    2    0    0 -0.65409276429E+02 -0.75750536133E+01 -0.21962622290E+03  0.22928461061E+03  0.00000000000E+00 0. -1.
         11    1    1    2    0    0 -0.89894562470E+01  0.63630738099E+02 -0.12279111839E+03  0.13859054769E+03  0.00000000000E+00 0.  1.
</event>
<event>
 7    1  0.2522928E-009  0.9946174E+02  0.7561462E-02  0.1281432E+00
         -2   -1    0    0    0  501 -0.00000000000E+00  0.00000000000E+00  0.16105443746E+02  0.16105443746E+02  0.00000000000E+00 0.  1.
          2   -1    0    0  501    0  0.00000000000E+00 -0.00000000000E+00 -0.94361715361E+03  0.94361715361E+03  0.00000000000E+00 0. -1.
         25    2    1    2    0    0 -0.56035329185E+02  0.22372388197E+01 -0.43701088389E+03  0.45800758665E+03  0.12508986143E+03 0.  0.
          5    1    3    3  502    0 -0.17210661169E+02  0.40059543233E+02 -0.47073802863E+02  0.64299215998E+02  0.41800000000E+01 0.  1.
         -5    1    3    3    0  502 -0.38824668016E+02 -0.37822304414E+02 -0.38993708103E+03  0.39370837065E+03  0.41800000000E+01 0.  1.
        -11    1    1    2    0    0 -0.15799886981E+02  0.20068352132E+02 -0.69440887560E+02  0.73989269837E+02  0.00000000000E+00 0. -1.
         11    1    1    2    0    0  0.71835216166E+02 -0.22305590952E+02 -0.42105993841E+03  0.42772574087E+03  0.00000000000E+00 0.  1.
</event>
<event>
 7    1  0.2522928E-009  0.1437597E+03  0.7561462E-02  0.1208358E+00
          1   -1    0    0  501    0  0.00000000000E+00  0.00000000000E+00  0.59472786250E+03  0.59472786250E+03  0.00000000000E+00 0. -1.
         -1   -1    0    0    0  501 -0.00000000000E+00 -0.00000000000E+00 -0.40785878158E+02  0.40785878158E+02  0.00000000000E+00 0.  1.
         25    2    1    2    0    0 -0.84774051939E+02 -0.49326589120E+02  0.40646329763E+03  0.43643982265E+03  0.12509018428E+03 0.  0.
          5    1    3    3  502    0 -0.23202557516E+02  0.40648191193E+02  0.87305812830E+02  0.99148431538E+02  0.41800000000E+01 0. -1.
         -5    1    3    3    0  502 -0.61571494423E+02 -0.89974780313E+02  0.31915748480E+03  0.33729139111E+03  0.41800000000E+01 0. -1.
        -11    1    1    2    0    0  0.46570444430E+01  0.51075639166E+02  0.40176801067E+02  0.65150474466E+02  0.00000000000E+00 0.  1.
         11    1    1    2    0    0  0.80117007496E+02 -0.17490500454E+01  0.10730188565E+03  0.13392344355E+03  0.00000000000E+00 0. -1.
</event>
<event>
 7    1  0.2522928E-009  0.1634271E+03  0.7561462E-02  0.1184881E+00
          2   -1    0    0  501    0  0.00000000000E+00  0.00000000000E+00  0.55602626714E+03  0.55602626714E+03  0.00000000000E+00 0.  1.
         -2   -1    0    0    0  501 -0.00000000000E+00 -0.00000000000E+00 -0.55763476384E+02  0.55763476384E+02  0.00000000000E+00 0. -1.
         25    2    1    2    0    0 -0.13351677693E+03  0.17102662006E+02  0.21160666501E+03  0.28025835002E+03  0.12509249101E+03 0.  0.
          5    1    3    3  502    0 -0.13034552647E+03 -0.32029530092E+02  0.15781255490E+03  0.20721515860E+03  0.41800000000E+01 0. -1.
         -5    1    3    3    0  502 -0.31712504550E+01  0.49132192098E+02  0.53794110113E+02  0.73043191418E+02  0.41800000000E+01 0. -1.
        -11    1    1    2    0    0  0.22839437114E+02 -0.22877305228E+02  0.15290734802E+03  0.15628713338E+03  0.00000000000E+00 0.  1.
         11    1    1    2    0    0  0.11067733982E+03  0.57746432222E+01  0.13574877772E+03  0.17524426012E+03  0.00000000000E+00 0. -1.
</event>
<event>
 7    1  0.2522928E-009  0.9264634E+02  0.7561462E-02  0.1296567E+00
          3   -1    0    0  501    0  0.00000000000E+00  0.00000000000E+00  0.58466150440E+02  0.58466150440E+02  0.00000000000E+00 0. -1.
         -3   -1    0    0    0  501 -0.00000000000E+00 -0.00000000000E+00 -0.21127362276E+03  0.21127362276E+03  0.00000000000E+00 0.  1.
         25    2    1    2    0    0 -0.17721883250E+02  0.12433555491E+02 -0.69893038117E+02  0.14491755534E+03  0.12508957838E+03 0.  0.
          5    1    3    3  502    0 -0.47708527344E+01  0.52433555358E+02  0.10729368367E+02  0.53894624118E+02  0.41800000000E+01 0.  1.
         -5    1    3    3    0  502 -0.12951030515E+02 -0.39999999868E+02 -0.80622406484E+02  0.91022931221E+02  0.41800000000E+01 0.  1.
        -11    1    1    2    0    0  0.79603025970E+01 -0.50399583657E+02 -0.62311220335E+02  0.80536778120E+02  0.00000000000E+00 0.  1.
         11    1    1    2    0    0  0.97615806529E+01  0.37966028167E+02 -0.20603213873E+02  0.44285439746E+02  0.00000000000E+00 0. -1.
</event>
<event>
 7    1  0.2522928E-009  0.1712284E+03  0.7561462E-02  0.1176573E+00
         -1   -1    0    0    0  501 -0.00000000000E+00  0.00000000000E+00  0.38856958782E+02  0.38856958782E+02  0.00000000000E+00 0.  1.
          1   -1    0    0  501    0  0.00000000000E+00 -0.00000000000E+00 -0.10448626771E+04  0.10448626771E+04  0.00000000000E+00 0. -1.
         25    2    1    2    0    0  0.10959435383E+03  0.85048932997E+02 -0.79256047438E+03  0.81427644642E+03  0.12509908976E+03 0.  0.
          5    1    3    3  502    0  0.12190684030E+03  0.27767229636E+02 -0.46732689016E+03  0.48378114000E+03  0.41800000000E+01 0.  1.
         -5    1    3    3    0  502 -0.12312486476E+02  0.57281703361E+02 -0.32523358422E+03  0.33049530642E+03  0.41800000000E+01 0.  1.
        -11    1    1    2    0    0 -0.26178946534E+01 -0.43936461823E+02 -0.94621408396E+02  0.10435744811E+03  0.00000000000E+00 0.  1.
         11    1    1    2    0    0 -0.10697645917E+03 -0.41112471174E+02 -0.11882383556E+03  0.16508574136E+03  0.00000000000E+00 0. -1.
</event>
<event>
 7    1  0.2522928E-009  0.1137404E+03  0.7561462E-02  0.1253796E+00
         -3   -1    0    0    0  501 -0.00000000000E+00  0.00000000000E+00  0.14511990238E+03  0.14511990238E+03  0.00000000000E+00 0.  1.
          3   -1    0    0  501    0  0.00000000000E+00 -0.00000000000E+00 -0.10272425021E+03  0.10272425021E+03  0.00000000000E+00 0. -1.
         25    2    1    2    0    0 -0.33469673243E+02  0.42772845768E+02  0.14160089683E+02  0.13710515952E+03  0.12509029245E+03 0.  0.
          5    1    3    3  502    0 -0.42535706537E+02 -0.26878618138E+02  0.37587012714E+02  0.62944438740E+02  0.41800000000E+01 0. -1.
         -5    1    3    3    0  502  0.90660332940E+01  0.69651463906E+02 -0.23426923030E+02  0.74160720780E+02  0.41800000000E+01 0. -1.
        -11    1    1    2    0    0  0.54672472657E+02 -0.58618966971E+02  0.16773360178E+02  0.81893883574E+02  0.00000000000E+00 0. -1.
         11    1    1    2    0    0 -0.21202799414E+02  0.15846121203E+02  0.11462202308E+02  0.28845109498E+02  0.00000000000E+00 0.  1.
</event>
<event>
 7    1  0.2522928E-009  0.9135082E+02  0.7561462E-02  0.1299613E+00
         -3   -1    0    0    0  501 -0.00000000000E+00  0.00000000000E+00  0.53843990738E+03  0.53843990738E+03  0.00000000000E+00 0.  1.
          3   -1    0    0  501    0  0.00000000000E+00 -0.00000000000E+00 -0.38773140519E+02  0.38773140519E+02  0.00000000000E+00 0. -1.
         25    2    1    2    0    0 -0.35942133141E+02 -0.26954245168E+02  0.10528737748E+03  0.16955950226E+03  0.12508646883E+03 0.  0.
          5    1    3    3  502    0  0.21372491834E+02 -0.15170634885E+01 -0.19864236608E+02  0.29515168724E+02  0.41800000000E+01 0. -1.
         -5    1    3    3    0  502 -0.57314624975E+02 -0.25437181680E+02  0.12515161409E+03  0.14004433354E+03  0.41800000000E+01 0. -1.
        -11    1    1    2    0    0 -0.22400102525E+02  0.32445028742E+02  0.99868089270E+02  0.10736889558E+03  0.00000000000E+00 0. -1.
         11    1    1    2    0    0  0.58342235666E+02 -0.54907835744E+01  0.29451130011E+03  0.30028465006E+03  0.00000000000E+00 0.  1.
</event>
<event>
 7    1  0.3814823E-009  0.6905636E+02  0.7561462E-02  0.1363332E+00
          1   -1    0    0  501    0  0.00000000000E+00  0.00000000000E+00  0.57377089921E+03  0.57377089921E+03  0.00000000000E+00 0. -1.
         -1   -1    0    0    0  501 -0.00000000000E+00 -0.00000000000E+00 -0.25884537335E+02  0.25884537335E+02  0.00000000000E+00 0.  1.
         25    2    1    2    0    0  0.32076201485E+02 -0.34784797215E+02  0.23513579137E+03  0.27050858329E+03  0.12508872225E+03 0.  0.
          5    1    3    3  502    0  0.16988743503E+02 -0.22710519691E+02  0.24619244103E+03  0.24785595722E+03  0.41800000000E+01 0. -1.
         -5    1    3    3    0  502  0.15087457982E+02 -0.12074277524E+02 -0.11056649662E+02  0.22652626070E+02  0.41800000000E+01 0. -1.
        -11    1    1    2    0    0  0.75169170971E+01  0.47498314127E+02  0.85261549067E+02  0.97888332486E+02  0.00000000000E+00 0.  1.
         11    1    1    2    0    0 -0.39593118582E+02 -0.12713516911E+02  0.22748902143E+03  0.23125852076E+03  0.00000000000E+00 0. -1.
</event>
<event>
 7    1  0.2522928E-009  0.1083055E+03  0.7561462E-02  0.1263740E+00
          1   -1    0    0  501    0  0.00000000000E+00  0.00000000000E+00  0.25308846371E+03  0.25308846371E+03  0.00000000000E+00 0. -1.
         -1   -1    0    0    0  501 -0.00000000000E+00 -0.00000000000E+00 -0.48229674481E+02  0.48229674481E+02  0.00000000000E+00 0.  1.
         25    2    1    2    0    0  0.90015292760E+00  0.28976430204E+01  0.10399551371E+03  0.16272848440E+03  0.12512508203E+03 0.  0.
          5    1    3    3  502    0 -0.57548121588E+02 -0.16602378062E+02  0.32568346415E+02  0.68305159716E+02  0.41800000000E+01 0. -1.
         -5    1    3    3    0  502  0.58448274516E+02  0.19500021082E+02  0.71427167296E+02  0.94423324682E+02  0.41800000000E+01 0. -1.
        -11    1    1    2    0    0 -0.19221481427E+02 -0.44980314173E+02  0.56871253864E+02  0.75013555624E+02  0.00000000000E+00 0.  1.
         11    1    1    2    0    0  0.18321328499E+02  0.42082671152E+02  0.43992021657E+02  0.63576098172E+02  0.00000000000E+00 0. -1.
</event>
<event>
 7    1  0.2522928E-009  0.1821195E+03  0.7561462E-02  0.1165767E+00
         -1   -1    0    0    0  501 -0.00000000000E+00  0.00000000000E+00  0.13863133566E+03  0.13863133566E+03  0.00000000000E+00 0.  1.
          1   -1    0    0  501    0  0.00000000000E+00 -0.00000000000E+00 -0.45201856321E+03  0.45201856321E+03  0.00000000000E+00 0. -1.
         25    2    1    2    0    0  0.15754763471E+03  0.36199157216E+02  0.23663482452E+02  0.20576305900E+03  0.12508732894E+03 0.  0.
          5    1    3    3  502    0  0.91124714867E+02 -0.41521816693E+02  0.25516603388E+02  0.10342313266E+03  0.41800000000E+01 0.  1.
         -5    1    3    3    0  502  0.66422919841E+02  0.77720973910E+02 -0.18531209359E+01  0.10233992634E+03  0.41800000000E+01 0.  1.
        -11    1    1    2    0    0 -0.43739109824E+02 -0.84633325993E+01 -0.23926345345E+02  0.50568841478E+02  0.00000000000E+00 0.  1.
         11    1    1    2    0    0 -0.11380852488E+03 -0.27735824617E+02 -0.31312436466E+03  0.33431799839E+03  0.00000000000E+00 0. -1.
</event>
<event>
 7    1  0.2522928E-009  0.1054530E+03  0.7561462E-02  0.1269230E+00
          2   -1    0    0  501    0  0.00000000000E+00  0.00000000000E+00  0.12199518942E+04  0.12199518942E+04  0.00000000000E+00 0. -1.
         -2   -1    0    0    0  501 -0.00000000000E+00 -0.00000000000E+00 -0.14528080066E+02  0.14528080066E+02  0.00000000000E+00 0.  1.
         25    2    1    2    0    0 -0.31067998576E+02 -0.59094307004E+02  0.84799625023E+03  0.85976881560E+03  0.12508964070E+03 0.  0.
          5    1    3    3  502    0 -0.37394375369E+02 -0.74501939998E+02  0.29699980583E+03  0.30850483860E+03  0.41800000000E+01 0. -1.
         -5    1    3    3    0  502  0.63263767930E+01  0.15407632994E+02  0.55099644440E+03  0.55126397700E+03  0.41800000000E+01 0. -1.
        -11    1    1    2    0    0 -0.30624956556E+02  0.13057960823E+02  0.14482152620E+03  0.14859903349E+03  0.00000000000E+00 0. -1.
         11    1    1    2    0    0  0.61692955132E+02  0.46036346181E+02  0.21260603768E+03  0.22611212515E+03  0.00000000000E+00 0.  1.
</event>
<event>
 7    1  0.2522928E-009  0.1151406E+03  0.7561462E-02  0.1251336E+00
         -1   -1    0    0    0  501 -0.00000000000E+00  0.00000000000E+00  0.10600075870E+03  0.10600075870E+03  0.00000000000E+00 0.  1.
          1   -1    0    0  501    0  0.00000000000E+00 -0.00000000000E+00 -0.22319067427E+03  0.22319067427E+03  0.00000000000E+00 0. -1.
         25    2    1    2    0    0  0.70996010650E+02  0.44857610997E+02 -0.12895936698E+03  0.19831814883E+03  0.12508769336E+03 0.  0.
          5    1    3    3  502    0  0.85620025446E+02  0.32762732077E+02 -0.14601745126E+03  0.17246087627E+03  0.41800000000E+01 0.  1.
         -5    1    3    3    0  502 -0.14624014797E+02  0.12094878921E+02  0.17058084283E+02  0.25857272561E+02  0.41800000000E+01 0.  1.
        -11    1    1    2    0    0 -0.73910585804E+02 -0.65182014196E+02  0.30419786293E+02  0.10313502347E+03  0.00000000000E+00 0.  1.
         11    1    1    2    0    0  0.29145751548E+01  0.20324403198E+02 -0.18650334892E+02  0.27738260675E+02  0.00000000000E+00 0. -1.
</event>
<event>
 7    1  0.2522928E-009  0.8388064E+02  0.7561462E-02  0.1318386E+00
         -1   -1    0    0    0  501 -0.00000000000E+00  0.00000000000E+00  0.35731515906E+02  0.35731515906E+02  0.00000000000E+00 0.  1.
          1   -1    0    0  501    0  0.00000000000E+00 -0.00000000000E+00 -0.38155183532E+03  0.38155183532E+03  0.00000000000E+00 0. -1.
         25    2    1    2    0    0  0.37048157686E+02 -0.13630905040E+02 -0.26021732406E+03  0.29141849464E+03  0.12511321160E+03 0.  0.
          5    1    3    3  502    0  0.70402814407E+02  0.22831590078E+02 -0.20066588877E+03  0.21392080099E+03  0.41800000000E+01 0. -1.
         -5    1    3    3    0  502 -0.33354656721E+02 -0.36462495118E+02 -0.59551435290E+02  0.77497693645E+02  0.41800000000E+01 0. -1.
        -11    1    1    2    0    0 -0.26764192567E+02 -0.24584782783E+00  0.10106129716E+02  0.28609723920E+02  0.00000000000E+00 0.  1.
         11    1    1    2    0    0 -0.10283965119E+02  0.13876752868E+02 -0.95709125073E+02  0.97255132672E+02  0.00000000000E+00 0. -1.
</event>
<event>
 7    1  0.2522928E-009  0.3243420E+03  0.7561462E-02  0.1073668E+00
         -2   -1    0    0    0  501 -0.00000000000E+00  0.00000000000E+00  0.67017426013E+03  0.67017426013E+03  0.00000000000E+00 0.  1.
          2   -1    0    0  501    0  0.00000000000E+00 -0.00000000000E+00 -0.18755404875E+03  0.18755404875E+03  0.00000000000E+00 0. -1.
         25    2    1    2    0    0  0.24465193501E+03  0.19921266066E+03  0.10090588189E+03  0.35407588594E+03  0.12508989782E+03 0.  0.
          5    1    3    3  502    0  0.12408012960E+03  0.63148478364E+02 -0.12365546508E+02  0.13983557495E+03  0.41800000000E+01 0.  1.
         -5    1    3    3    0  502  0.12057180541E+03  0.13606418229E+03  0.11327142840E+03  0.21424031099E+03  0.41800000000E+01 0.  1.
        -11    1    1    2    0    0 -0.11171734077E+03 -0.14721753912E+03  0.23491663372E+03  0.29889729482E+03  0.00000000000E+00 0.  1.
         11    1    1    2    0    0 -0.13293459424E+03 -0.51995121539E+02  0.14679769578E+03  0.20475512813E+03  0.00000000000E+00 0. -1.
</event>
<event>
 7    1  0.2546786E-009  0.1161930E+03  0.7561462E-02  0.1249513E+00
          2   -1    0    0  501    0  0.00000000000E+00  0.00000000000E+00  0.53436601360E+03  0.53436601360E+03  0.00000000000E+00 0. -1.
         -2   -1    0    0    0  501 -0.00000000000E+00 -0.00000000000E+00 -0.33187904609E+02  0.33187904609E+02  0.00000000000E+00 0.  1.
         25    2    1    2    0    0  0.47539688190E+01  0.64957006946E+02  0.36374287306E+03  0.39012644670E+03  0.12509098187E+03 0.  0.
          5    1    3    3  502    0 -0.47617261494E+02 -0.79607160711E+00  0.20445720503E+03  0.20997204198E+03  0.41800000000E+01 0.  1.
         -5    1    3    3    0  502  0.52371230313E+02  0.65753078553E+02  0.15928566803E+03  0.18015440473E+03  0.41800000000E+01 0.  1.
        -11    1    1    2    0    0  0.27079537524E+02  0.10841441495E+01  0.73081598243E+01  0.28069305675E+02  0.00000000000E+00 0.  1.
         11    1    1    2    0    0 -0.31833506343E+02 -0.66041151095E+02  0.13012707611E+03  0.14935816583E+03  0.00000000000E+00 0. -1.
</event>
<event>
 7    1  0.2522928E-009  0.1142896E+03  0.7561462E-02  0.1252826E+00
          2   -1    0    0  501    0  0.00000000000E+00  0.00000000000E+00  0.11808709171E+03  0.11808709171E+03  0.00000000000E+00 0. -1.
         -2   -1    0    0    0  501 -0.00000000000E+00 -0.00000000000E+00 -0.15143353406E+03  0.15143353406E+03  0.00000000000E+00 0.  1.
         25    2    1    2    0    0 -0.67307065631E+02 -0.28705771385E+02  0.89163561423E+01  0.14518485876E+03  0.12507949237E+03 0.  0.
          5    1    3    3  502    0 -0.89134479288E+00  0.44248495871E+02 -0.75016305685E+01  0.45082931843E+02  0.41800000000E+01 0. -1.
         -5    1    3    3    0  502 -0.66415720838E+02 -0.72954267256E+02  0.16417986711E+02  0.10010192692E+03  0.41800000000E+01 0. -1.
        -11    1    1    2    0    0  0.44712353379E+02 -0.47965645685E+01 -0.64179180718E+02  0.78365609893E+02  0.00000000000E+00 0.  1.
         11    1    1    2    0    0  0.22594712252E+02  0.33502335954E+02  0.21916382225E+02  0.45970157123E+02  0.00000000000E+00 0. -1.
</event>
<event>
 7    1  0.2522928E-009  0.1056108E+03  0.7561462E-02  0.1268921E+00
         -1   -1    0    0    0  501 -0.00000000000E+00  0.00000000000E+00  0.40123259990E+02  0.40123259990E+02  0.00000000000E+00 0.  1.
          1   -1    0    0  501    0  0.00000000000E+00 -0.00000000000E+00 -0.33112573794E+03  0.33112573794E+03  0.00000000000E+00 0. -1.
         25    2    1    2    0    0  0.90016956948E+01  0.40567168580E+02 -0.14270428492E+03  0.19424448688E+03  0.12505871443E+03 0.  0.
          5    1    3    3  502    0  0.23824539343E+02  0.82933101046E+02 -0.87295517053E+02  0.12281485098E+03  0.41800000000E+01 0.  1.
         -5    1    3    3    0  502 -0.14822843648E+02 -0.42365932466E+02 -0.55408767869E+02  0.71429635896E+02  0.41800000000E+01 0.  1.
        -11    1    1    2    0    0 -0.38828800467E+02 -0.23643617379E+02 -0.31582040870E+02  0.55354509247E+02  0.00000000000E+00 0.  1.
         11    1    1    2    0    0  0.29827104773E+02 -0.16923551202E+02 -0.11671615216E+03  0.12165000180E+03  0.00000000000E+00 0. -1.
</event>
<event>
 7    1  0.2522928E-009  0.9556688E+02  0.7561462E-02  0.1289904E+00
          2   -1    0    0  501    0  0.00000000000E+00  0.00000000000E+00  0.53007708233E+03  0.53007708233E+03  0.00000000000E+00 0. -1.
         -2   -1    0    0    0  501 -0.00000000000E+00 -0.00000000000E+00 -0.30696335756E+02  0.30696335756E+02  0.00000000000E+00 0.  1.
         25    2    1    2    0    0 -0.52484092562E+02 -0.14787969244E+01  0.37225386481E+03  0.39620289182E+03  0.12508806823E+03 0.  0.
          5    1    3    3  502    0  0.22158729375E+02 -0.14763459979E+02  0.14750471058E+02  0.30724873221E+02  0.41800000000E+01 0. -1.
         -5    1    3    3    0  502 -0.74642821936E+02  0.13284663054E+02  0.35750339375E+03  0.36547801860E+03  0.41800000000E+01 0. -1.
        -11    1    1    2    0    0 -0.17860584000E+02 -0.66456169654E+00 -0.15138606821E+01  0.17936941691E+02  0.00000000000E+00 0.  1.
         11    1    1    2    0    0  0.70344676561E+02  0.21433586209E+01  0.12864074245E+03  0.14663358457E+03  0.00000000000E+00 0. -1.
</event>
<event>
 7    1  0.2522928E-009  0.1534848E+03  0.7561462E-02  0.1196255E+00
         -2   -1    0    0    0  501 -0.00000000000E+00  0.00000000000E+00  0.43852342872E+02  0.43852342872E+02  0.00000000000E+00 0.  1.
          2   -1    0    0  501    0  0.00000000000E+00 -0.00000000000E+00 -0.69009542640E+03  0.69009542640E+03  0.00000000000E+00 0. -1.
         25    2    1    2    0    0  0.64140300898E+02 -0.94009534740E+02 -0.49261597670E+03  0.52083400288E+03  0.12508312130E+03 0.  0.
          5    1    3    3  502    0 -0.22015779975E+02 -0.74434566081E+02 -0.27908078509E+03  0.28970460163E+03  0.41800000000E+01 0. -1.
         -5    1    3    3    0  502  0.86156080872E+02 -0.19574968658E+02 -0.21353519161E+03  0.23112940126E+03  0.41800000000E+01 0. -1.
        -11    1    1    2    0    0  0.18892229181E+02  0.60804705560E+01 -0.32044248343E+01  0.20103651015E+02  0.00000000000E+00 0.  1.
         11    1    1    2    0    0 -0.83032530079E+02  0.87929064184E+02 -0.15042268200E+03  0.19301011538E+03  0.00000000000E+00 0. -1.
</event>
<event>
 7    1  0.2522928E-009  0.9570579E+02  0.7561462E-02  0.1289594E+00
          1   -1    0    0  501    0  0.00000000000E+00  0.00000000000E+00  0.49533283961E+03  0.49533283961E+03  0.00000000000E+00 0. -1.
         -1   -1    0    0    0  501 -0.00000000000E+00 -0.00000000000E+00 -0.41692717573E+02  0.41692717573E+02  0.00000000000E+00 0.  1.
         25    2    1    2    0    0  0.16621793509E+02 -0.65310711814E+02  0.36729118170E+03  0.39381695009E+03  0.12508878818E+03 0.  0.
          5    1    3    3  502    0  0.46929652203E+02 -0.46006479699E+02  0.34520942813E+03  0.35143421874E+03  0.41800000000E+01 0. -1.
         -5    1    3    3    0  502 -0.30307858694E+02 -0.19304232114E+02  0.22081753563E+02  0.42382731349E+02  0.41800000000E+01 0. -1.
        -11    1    1    2    0    0  0.21970900932E+02  0.29103402817E+02  0.82441391566E+02  0.90146056966E+02  0.00000000000E+00 0. -1.
         11    1    1    2    0    0 -0.38592694441E+02  0.36207308997E+02  0.39075487791E+01  0.53062550131E+02  0.00000000000E+00 0.  1.
</event>
<event>
 7    1  0.2522928E-009  0.1411609E+03  0.7561462E-02  0.1211775E+00
          2   -1    0    0  501    0  0.00000000000E+00  0.00000000000E+00  0.54164930324E+03  0.54164930324E+03  0.00000000000E+00 0. -1.
         -2   -1    0    0    0  501 -0.00000000000E+00 -0.00000000000E+00 -0.40481976876E+02  0.40481976876E+02  0.00000000000E+00 0.  1.
         25    2    1    2    0    0  0.62205035531E+02  0.77285861618E+02  0.28318351718E+03  0.32508867434E+03  0.12508865229E+03 0.  0.
          5    1    3    3  502    0 -0.26131923909E+02  0.55474493043E+02  0.69370213908E+02  0.92682230245E+02  0.41800000000E+01 0.  1.
         -5    1    3    3    0  502  0.88336959440E+02  0.21811368575E+02  0.21381330327E+03  0.23240644410E+03  0.41800000000E+01 0.  1.
        -11    1    1    2    0    0  0.64991415356E+01 -0.58068616409E+02  0.13802680672E+03  0.14988529756E+03  0.00000000000E+00 0.  1.
         11    1    1    2    0    0 -0.68704177067E+02 -0.19217245209E+02  0.79957002465E+02  0.10715730821E+03  0.00000000000E+00 0. -1.
</event>
<event>
 7    1  0.2522928E-009  0.2010166E+03  0.7561462E-02  0.1148884E+00
          1   -1    0    0  501    0  0.00000000000E+00  0.00000000000E+00  0.42472420087E+03  0.42472420087E+03  0.00000000000E+00 0. -1.
         -1   -1    0    0    0  501 -0.00000000000E+00 -0.00000000000E+00 -0.10950389303E+03  0.10950389303E+03  0.00000000000E+00 0.  1.
         25    2    1    2    0    0  0.11920918838E+03 -0.14175242898E+03  0.14775091135E+03  0.26792436059E+03  0.12509416243E+03 0.  0.
          5    1    3    3  502    0  0.52631021644E+02  0.75014428718E+01  0.66863284572E+02  0.85524659065E+02  0.41800000000E+01 0. -1.
         -5    1    3    3    0  502  0.66578166740E+02 -0.14925387185E+03  0.80887626780E+02  0.18239970152E+03  0.41800000000E+01 0. -1.
        -11    1    1    2    0    0 -0.82678380657E+02  0.97094047629E+02  0.16502250998E+03  0.20855550224E+03  0.00000000000E+00 0. -1.
         11    1    1    2    0    0 -0.36530807727E+02  0.44658381354E+02  0.24468865052E+01  0.57748231072E+02  0.00000000000E+00 0.  1.
</event>
<event>
 7    1  0.2556985E-009  0.1259099E+03  0.7561462E-02  0.1233654E+00
          2   -1    0    0  501    0  0.00000000000E+00  0.00000000000E+00  0.52303924637E+03  0.52303924637E+03  0.00000000000E+00 0. -1.
         -2   -1    0    0    0  501 -0.00000000000E+00 -0.00000000000E+00 -0.38047816664E+02  0.38047816664E+02  0.00000000000E+00 0.  1.
         25    2    1    2    0    0  0.83220467583E+02 -0.24939778402E+02  0.31241610411E+03  0.34756136806E+03  0.12508974254E+03 0.  0.
          5    1    3    3  502    0 -0.17017122164E+02 -0.31886724433E+02  0.16596573398E+03  0.16990715964E+03  0.41800000000E+01 0.  1.
         -5    1    3    3    0  502  0.10023758975E+03  0.69469460310E+01  0.14645037014E+03  0.17765420842E+03  0.41800000000E+01 0.  1.
        -11    1    1    2    0    0 -0.61413314156E+02 -0.20273375358E+02  0.13849864280E+03  0.15285443717E+03  0.00000000000E+00 0. -1.
         11    1    1    2    0    0 -0.21807153427E+02  0.45213153760E+02  0.34076682790E+02  0.60671257804E+02  0.00000000000E+00 0.  1.
</event>
<event>
 7    1  0.2522928E-009  0.1013301E+03  0.7561462E-02  0.1277524E+00
          1   -1    0    0  501    0  0.00000000000E+00  0.00000000000E+00  0.38005924553E+03  0.38005924553E+03  0.00000000000E+00 0. -1.
         -1   -1    0    0    0  501 -0.00000000000E+00 -0.00000000000E+00 -0.34566160157E+02  0.34566160157E+02  0.00000000000E+00 0.  1.
         25    2    1    2    0    0 -0.23903922777E+02  0.20318829271E+02  0.21794066980E+03  0.25324227568E+03  0.12509701152E+03 0.  0.
          5    1    3    3  502    0 -0.51989776693E+02  0.52277509057E+02  0.18524474508E+03  0.19942157058E+03  0.41800000000E+01 0. -1.
         -5    1    3    3    0  502  0.28085853916E+02 -0.31958679786E+02  0.32695924722E+02  0.53820705098E+02  0.41800000000E+01 0. -1.
        -11    1    1    2    0    0  0.49001603945E+02 -0.31849494942E+02  0.43346082034E+02  0.72762836290E+02  0.00000000000E+00 0. -1.
         11    1    1    2    0    0 -0.25097681167E+02  0.11530665671E+02  0.84206333538E+02  0.88620293718E+02  0.00000000000E+00 0.  1.
</event>
<event>
 7    1  0.2522928E-009  0.1099834E+03  0.7561462E-02  0.1260601E+00
          2   -1    0    0  501    0  0.00000000000E+00  0.00000000000E+00  0.36292890177E+03  0.36292890177E+03  0.00000000000E+00 0. -1.
         -2   -1    0    0    0  501 -0.00000000000E+00 -0.00000000000E+00 -0.46299167696E+02  0.46299167696E+02  0.00000000000E+00 0.  1.
         25    2    1    2    0    0  0.27733292758E+02 -0.38161380255E+02  0.25962934859E+03  0.29202738442E+03  0.12508864110E+03 0.  0.
          5    1    3    3  502    0  0.69277220318E+02 -0.19497362076E+02  0.22000373774E+03  0.23151370888E+03  0.41800000000E+01 0.  1.
         -5    1    3    3    0  502 -0.41543927560E+02 -0.18664018178E+02  0.39625610855E+02  0.60513675539E+02  0.41800000000E+01 0.  1.
        -11    1    1    2    0    0 -0.48809460100E+02  0.56174046774E+02  0.45204860640E+02  0.87071041981E+02  0.00000000000E+00 0.  1.
         11    1    1    2    0    0  0.21076167341E+02 -0.18012666520E+02  0.11795524847E+02  0.30129643067E+02  0.00000000000E+00 0. -1.
</event>
<event>
 7    1  0.2522928E-009  0.1644821E+03  0.7561462E-02  0.1183727E+00
         -1   -1    0    0    0  501 -0.00000000000E+00  0.00000000000E+00  0.14521161990E+03  0.14521161990E+03  0.00000000000E+00 0.  1.
          1   -1    0    0  501    0  0.00000000000E+00 -0.00000000000E+00 -0.19581989129E+03  0.19581989129E+03  0.00000000000E+00 0. -1.
         25    2    1    2    0    0  0.75251098628E+02 -0.10387815553E+03 -0.32138231806E+02  0.18202557762E+03  0.12508815262E+03 0.  0.
          5    1    3    3  502    0  0.11368632777E+01 -0.98684461202E+02  0.49061525170E+01  0.98901254155E+02  0.41800000000E+01 0. -1.
         -5    1    3    3    0  502  0.74114235350E+02 -0.51936943263E+01 -0.37044384323E+02  0.83124323469E+02  0.41800000000E+01 0. -1.
        -11    1    1    2    0    0  0.15419738474E+02  0.45229664801E+02 -0.17872761304E+02  0.51018883850E+02  0.00000000000E+00 0. -1.
         11    1    1    2    0    0 -0.90670837102E+02  0.58648490727E+02 -0.59727829006E+00  0.10798704972E+03  0.00000000000E+00 0.  1.
</event>
<event>
 7    1  0.2522928E-009  0.6861249E+02  0.7561462E-02  0.1364876E+00
          1   -1    0    0  501    0  0.00000000000E+00  0.00000000000E+00  0.24415376469E+03  0.24415376469E+03  0.00000000000E+00 0. -1.
         -1   -1    0    0    0  501 -0.00000000000E+00 -0.00000000000E+00 -0.33851294163E+02  0.33851294163E+02  0.00000000000E+00 0.  1.
         25    2    1    2    0    0  0.13516580037E+02 -0.30869742594E+02  0.13093488446E+03  0.18419545920E+03  0.12509350213E+03 0.  0.
          5    1    3    3  502    0 -0.10017106581E+02  0.24651845933E+02 -0.11634361628E+02  0.29340870857E+02  0.41800000000E+01 0. -1.
         -5    1    3    3    0  502  0.23533686617E+02 -0.55521588527E+02  0.14256924609E+03  0.15485458834E+03  0.41800000000E+01 0. -1.
        -11    1    1    2    0    0  0.85357156886E+01  0.25853031669E+02  0.39494630081E+02  0.47969401643E+02  0.00000000000E+00 0. -1.
         11    1    1    2    0    0 -0.22052295725E+02  0.50167109249E+01  0.39872955982E+02  0.45840198015E+02  0.00000000000E+00 0.  1.
</event>
<event>
 7    1  0.2522928E-009  0.1281559E+03  0.7561462E-02  0.1230218E+00
         -1   -1    0    0    0  501 -0.00000000000E+00  0.00000000000E+00  0.39840311048E+02  0.39840311048E+02  0.00000000000E+00 0.  1.
          1   -1    0    0  501    0  0.00000000000E+00 -0.00000000000E+00 -0.57007403523E+03  0.57007403523E+03  0.00000000000E+00 0. -1.
         25    2    1    2    0    0 -0.36552411349E+02  0.93345491401E+02 -0.33460442177E+03  0.37101803875E+03  0.12507920079E+03 0.  0.
          5    1    3    3  502    0  0.14941735235E+02  0.84193754921E+02 -0.10491510206E+03  0.13541231429E+03  0.41800000000E+01 0. -1.
         -5    1    3    3    0  502 -0.51494146585E+02  0.91517364798E+01 -0.22968931970E+03  0.23560572446E+03  0.41800000000E+01 0. -1.
        -11    1    1    2    0    0 -0.18005484065E+02 -0.22918387996E+02 -0.11534709268E+03  0.11897227305E+03  0.00000000000E+00 0. -1.
         11    1    1    2    0    0  0.54557895414E+02 -0.70427103405E+02 -0.80282209734E+02  0.11992403448E+03  0.00000000000E+00 0.  1.
</event>
<event>
 7    1  0.2522928E-009  0.1468746E+03  0.7561462E-02  0.1204367E+00
          1   -1    0    0  501    0  0.00000000000E+00  0.00000000000E+00  0.73847019280E+03  0.73847019280E+03  0.00000000000E+00 0. -1.
         -1   -1    0    0    0  501 -0.00000000000E+00 -0.00000000000E+00 -0.36480790179E+02  0.36480790179E+02  0.00000000000E+00 0.  1.
         25    2    1    2    0    0 -0.76591495767E+02 -0.61058412664E+02  0.53946033742E+03  0.56236746661E+03  0.12508127304E+03 0.  0.
          5    1    3    3  502    0  0.14528441846E+02 -0.65379573054E+02  0.20789558716E+03  0.21845734539E+03  0.41800000000E+01 0. -1.
         -5    1    3    3    0  502 -0.91119937613E+02  0.43211603904E+01  0.33156475026E+03  0.34391012122E+03  0.41800000000E+01 0. -1.
        -11    1    1    2    0    0  0.93866729271E+02  0.68815438070E+02  0.12661170712E+03  0.17197980044E+03  0.00000000000E+00 0. -1.
         11    1    1    2    0    0 -0.17275233504E+02 -0.77570254061E+01  0.35917358077E+02  0.40603715926E+02  0.00000000000E+00 0.  1.
</event>
<event>
 7    1  0.2522928E-009  0.1168625E+03  0.7561462E-02  0.1248365E+00
          3   -1    0    0  501    0  0.00000000000E+00  0.00000000000E+00  0.53334038424E+02  0.53334038424E+02  0.00000000000E+00 0. -1.
         -3   -1    0    0    0  501 -0.00000000000E+00 -0.00000000000E+00 -0.27021291372E+03  0.27021291372E+03  0.00000000000E+00 0.  1.
         25    2    1    2    0    0 -0.35919704804E+02 -0.36209264339E+02 -0.10811578073E+03  0.17302564061E+03  0.12509002458E+03 0.  0.
          5    1    3    3  502    0  0.29251785872E+02 -0.57027710748E+02 -0.36416720770E+02  0.73834116244E+02  0.41800000000E+01 0. -1.
         -5    1    3    3    0  502 -0.65171490676E+02  0.20818446410E+02 -0.71699059959E+02  0.99191524370E+02  0.41800000000E+01 0. -1.
        -11    1    1    2    0    0 -0.18746843079E+02  0.41986949953E+02 -0.31655131035E+02  0.55824684617E+02  0.00000000000E+00 0.  1.
         11    1    1    2    0    0  0.54666547882E+02 -0.57776856141E+01 -0.77107963529E+02  0.94696626909E+02  0.00000000000E+00 0. -1.
</event>
<event>
 7    1  0.2522928E-009  0.8436360E+02  0.7561462E-02  0.1317105E+00
          2   -1    0    0  501    0  0.00000000000E+00  0.00000000000E+00  0.24997669982E+02  0.24997669982E+02  0.00000000000E+00 0.  1.
         -2   -1    0    0    0  501 -0.00000000000E+00 -0.00000000000E+00 -0.51472586853E+03  0.51472586853E+03  0.00000000000E+00 0. -1.
         25    2    1    2    0    0  0.86197015145E+01 -0.22371660824E+02 -0.33481408731E+03  0.35822130495E+03  0.12508892756E+03 0.  0.
          5    1    3    3  502    0  0.35435074398E+02  0.32370440884E+02 -0.61299936357E+02  0.77965662557E+02  0.41800000000E+01 0. -1.
         -5    1    3    3    0  502 -0.26815372883E+02 -0.54742101708E+02 -0.27351415096E+03  0.28025564240E+03  0.41800000000E+01 0. -1.
        -11    1    1    2    0    0  0.23165775513E+02  0.74276555596E+01 -0.17807475683E+01  0.24392504671E+02  0.00000000000E+00 0.  1.
         11    1    1    2    0    0 -0.31785477027E+02  0.14944005265E+02 -0.15313336366E+03  0.15710972888E+03  0.00000000000E+00 0. -1.
</event>
<event>
 7    1  0.2522928E-009  0.1163478E+03  0.7561462E-02  0.1249247E+00
          2   -1    0    0  501    0  0.00000000000E+00  0.00000000000E+00  0.17254912956E+03  0.17254912956E+03  0.00000000000E+00 0. -1.
         -2   -1    0    0    0  501 -0.00000000000E+00 -0.00000000000E+00 -0.10083920856E+03  0.10083920856E+03  0.00000000000E+00 0.  1.
         25    2    1    2    0    0  0.34319080819E+02  0.63511721538E+02  0.19583444683E+02  0.14578123399E+03  0.12512840924E+03 0.  0.
          5    1    3    3  502    0  0.52560815313E+02  0.87796653457E+02  0.38891592054E+02  0.10954871061E+03  0.41800000000E+01 0.  1.
         -5    1    3    3    0  502 -0.18241734494E+02 -0.24284931919E+02 -0.19308147371E+02  0.36232523381E+02  0.41800000000E+01 0.  1.
        -11    1    1    2    0    0 -0.53787681018E+02 -0.58604234225E+02  0.90220095743E+01  0.80056027601E+02  0.00000000000E+00 0.  1.
         11    1    1    2    0    0  0.19468600199E+02 -0.49074873126E+01  0.43104466740E+02  0.47551076522E+02  0.00000000000E+00 0. -1.
</event>
<event>
 7    1  0.2522928E-009  0.1131526E+03  0.7561462E-02  0.1254841E+00
          2   -1    0    0  501    0  0.00000000000E+00  0.00000000000E+00  0.99295706107E+03  0.99295706107E+03  0.00000000000E+00 0. -1.
         -2   -1    0    0    0  501 -0.00000000000E+00 -0.00000000000E+00 -0.15351735394E+02  0.15351735394E+02  0.00000000000E+00 0.  1.
         25    2    1    2    0    0 -0.52550250096E+02 -0.21081287397E+02  0.53544465870E+03  0.55276901630E+03  0.12508658359E+03 0.  0.
          5    1    3    3  502    0  0.24193390318E+02  0.32488581326E+02  0.11452021699E+03  0.12154497337E+03  0.41800000000E+01 0. -1.
         -5    1    3    3    0  502 -0.76743640414E+02 -0.53569868724E+02  0.42092444171E+03  0.43122404294E+03  0.41800000000E+01 0. -1.
        -11    1    1    2    0    0 -0.15775661712E+02 -0.79441985671E+01  0.19099495102E+02  0.26014851652E+02  0.00000000000E+00 0.  1.
         11    1    1    2    0    0  0.68325911808E+02  0.29025485964E+02  0.42306117188E+03  0.42952492851E+03  0.00000000000E+00 0. -1.
</event>
<event>
 7    1  0.2522928E-009  0.8262726E+02  0.7561462E-02  0.1321757E+00
         -1   -1    0    0    0  501 -0.00000000000E+00  0.00000000000E+00  0.57046108237E+02  0.57046108237E+02  0.00000000000E+00 0.  1.
          1   -1    0    0  501    0  0.00000000000E+00 -0.00000000000E+00 -0.33301111885E+03  0.33301111885E+03  0.00000000000E+00 0. -1.
         25    2    1    2    0    0  0.41207339512E+02  0.38881395068E+02 -0.23789847658E+03  0.27468394108E+03  0.12508307086E+03 0.  0.
          5    1    3    3  502    0  0.34877297583E+02  0.35089853034E+02 -0.25275062221E+03  0.25758119710E+03  0.41800000000E+01 0.  1.
         -5    1    3    3    0  502  0.63300419287E+01  0.37915420338E+01  0.14852145629E+02  0.17102743978E+02  0.41800000000E+01 0.  1.
        -11    1    1    2    0    0 -0.70512254416E+02 -0.27256381608E+02 -0.17085778499E+02  0.77503626935E+02  0.00000000000E+00 0.  1.
         11    1    1    2    0    0  0.29304914904E+02 -0.11625013460E+02 -0.20980755535E+02  0.37869659073E+02  0.00000000000E+00 0. -1.
</event>
<event>
 7    1  0.2522928E-009  0.1247437E+03  0.7561462E-02  0.1235470E+00
         -3   -1    0    0    0  501 -0.00000000000E+00  0.00000000000E+00  0.26442631765E+02  0.26442631765E+02  0.00000000000E+00 0.  1.
          3   -1    0    0  501    0  0.00000000000E+00 -0.00000000000E+00 -0.59444038768E+03  0.59444038768E+03  0.00000000000E+00 0. -1.
         25    2    1    2    0    0 -0.38289837862E+02 -0.52394210551E+02 -0.32842810956E+03  0.35738244299E+03  0.12508366171E+03 0.  0.
          5    1    3    3  502    0  0.38268674584E+02 -0.50876750998E+02 -0.13537910423E+03  0.14965931147E+03  0.41800000000E+01 0.  1.
         -5    1    3    3    0  502 -0.76558512446E+02 -0.15174595527E+01 -0.19304900533E+03  0.20772313152E+03  0.41800000000E+01 0.  1.
        -11    1    1    2    0    0  0.60150230075E+02  0.95532895008E+01 -0.14866177816E+03  0.16065378864E+03  0.00000000000E+00 0.  1.
         11    1    1    2    0    0 -0.21860392213E+02  0.42840921050E+02 -0.90907868189E+02  0.10284678781E+03  0.00000000000E+00 0. -1.
</event>
<event>
 7    1  0.2522928E-009  0.9545714E+02  0.7561462E-02  0.1290150E+00
          1   -1    0    0  501    0  0.00000000000E+00  0.00000000000E+00  0.10669042189E+03  0.10669042189E+03  0.00000000000E+00 0. -1.
         -1   -1    0    0    0  501 -0.00000000000E+00 -0.00000000000E+00 -0.12503741875E+03  0.12503741875E+03  0.00000000000E+00 0.  1.
         25    2    1    2    0    0  0.11745981426E+02  0.15891004461E+01  0.29117357751E+02  0.12897545037E+03  0.12508538266E+03 0.  0.
          5    1    3    3  502    0 -0.45345585035E+02  0.35551310181E+02  0.22826497839E+02  0.62117945405E+02  0.41800000000E+01 0.  1.
         -5    1    3    3    0  502  0.57091566461E+02 -0.33962209735E+02  0.62908599126E+01  0.66857504961E+02  0.41800000000E+01 0.  1.
        -11    1    1    2    0    0 -0.29595851201E+02  0.22088178597E+02 -0.60084823309E+02  0.70526505898E+02  0.00000000000E+00 0.  1.
         11    1    1    2    0    0  0.17849869775E+02 -0.23677279043E+02  0.12620468702E+02  0.32225884381E+02  0.00000000000E+00 0. -1.
</event>
<event>
 7    1  0.2522928E-009  0.1367470E+03  0.7561462E-02  0.1217774E+00
          2   -1    0    0  501    0  0.00000000000E+00  0.00000000000E+00  0.99341236830E+03  0.99341236830E+03  0.00000000000E+00 0. -1.
         -2   -1    0    0    0  501 -0.00000000000E+00 -0.00000000000E+00 -0.36099283280E+02  0.36099283280E+02  0.00000000000E+00 0.  1.
         25    2    1    2    0    0 -0.76294646642E+02 -0.38112893890E+02  0.85441109243E+03  0.86772062164E+03  0.12508915446E+03 0.  0.
          5    1    3    3  502    0  0.26499927924E+02 -0.39380118422E+02  0.31518784250E+03  0.31876933411E+03  0.41800000000E+01 0.  1.
         -5    1    3    3    0  502 -0.10279457457E+03  0.12672245311E+01  0.53922324993E+03  0.54895128754E+03  0.41800000000E+01 0.  1.
        -11    1    1    2    0    0  0.81023090337E+02 -0.34782143752E+01  0.54052871335E+02  0.97460515300E+02  0.00000000000E+00 0. -1.
         11    1    1    2    0    0 -0.47284436948E+01  0.41591108266E+02  0.48849121249E+02  0.64330514636E+02  0.00000000000E+00 0.  1.
</event>
<event>
 7    1  0.2522928E-009  0.6074697E+02  0.7561462E-02  0.1394724E+00
         -2   -1    0    0    0  501 -0.00000000000E+00  0.00000000000E+00  0.61094318580E+02  0.61094318580E+02  0.00000000000E+00 0. -1.
          2   -1    0    0  501    0  0.00000000000E+00 -0.00000000000E+00 -0.22929710846E+03  0.22929710846E+03  0.00000000000E+00 0.  1.
         25    2    1    2    0    0  0.29856780699E+02 -0.19053251409E+02 -0.13521320400E+03  0.18757637104E+03  0.12509128944E+03 0.  0.
          5    1    3    3  502    0  0.42803526907E+01 -0.91059788958E+01  0.23790995086E+02  0.26167233671E+02  0.41800000000E+01 0. -1.
         -5    1    3    3    0  502  0.25576428009E+02 -0.99472725134E+01 -0.15900419909E+03  0.16140913737E+03  0.41800000000E+01 0. -1.
        -11    1    1    2    0    0 -0.54665905613E+02  0.19461172210E+02 -0.46683596806E+02  0.74474537065E+02  0.00000000000E+00 0.  1.
         11    1    1    2    0    0  0.24809124914E+02 -0.40792080051E+00  0.13694010923E+02  0.28340518935E+02  0.00000000000E+00 0. -1.
</event>
<event>
 7    1  0.2522928E-009  0.1592382E+03  0.7561462E-02  0.1189559E+00
          2   -1    0    0  501    0  0.00000000000E+00  0.00000000000E+00  0.71202512724E+03  0.71202512724E+03  0.00000000000E+00 0. -1.
         -2   -1    0    0    0  501 -0.00000000000E+00 -0.00000000000E+00 -0.39294277749E+02  0.39294277749E+02  0.00000000000E+00 0.  1.
         25    2    1    2    0    0  0.98059757578E+02  0.79637142553E+02  0.32399686389E+03  0.36956532373E+03  0.12508705033E+03 0.  0.
          5    1    3    3  502    0  0.90936374146E+02  0.10986698610E+03  0.29077877342E+03  0.32389804916E+03  0.41800000000E+01 0.  1.
         -5    1    3    3    0  502  0.71233834319E+01 -0.30229843543E+02  0.33218090473E+02  0.45667274572E+02  0.41800000000E+01 0.  1.
        -11    1    1    2    0    0 -0.78580864856E+02 -0.19105910351E+02  0.26207126959E+03  0.27426508797E+03  0.00000000000E+00 0.  1.
         11    1    1    2    0    0 -0.19478892722E+02 -0.60531232201E+02  0.86662716006E+02  0.10748899329E+03  0.00000000000E+00 0. -1.
</event>
<event>
 7    1  0.2522928E-009  0.1488031E+03  0.7561462E-02  0.1201951E+00
          1   -1    0    0  501    0  0.00000000000E+00  0.00000000000E+00  0.39278659719E+02  0.39278659719E+02  0.00000000000E+00 0.  1.
         -1   -1    0    0    0  501 -0.00000000000E+00 -0.00000000000E+00 -0.69693549656E+03  0.69693549656E+03  0.00000000000E+00 0. -1.
         25    2    1    2    0    0  0.91873916745E+02 -0.50294997200E+02 -0.49228183975E+03  0.51861243650E+03  0.12508815380E+03 0.  0.
          5    1    3    3  502    0  0.87943820302E+02 -0.86506386336E+02 -0.33229316882E+03  0.35447664641E+03  0.41800000000E+01 0.  1.
         -5    1    3    3    0  502  0.39300964426E+01  0.36211389137E+02 -0.15998867094E+03  0.16413579009E+03  0.41800000000E+01 0.  1.
        -11    1    1    2    0    0 -0.45422312138E+01  0.49974988297E+02 -0.86093695999E+02  0.99650668892E+02  0.00000000000E+00 0. -1.
         11    1    1    2    0    0 -0.87331685531E+02  0.32000890240E+00 -0.79281301091E+02  0.11795105089E+03  0.00000000000E+00 0.  1.
</event>
<event>
 7    1  0.2522928E-009  0.1444878E+03  0.7561462E-02  0.1207415E+00
         -2   -1    0    0    0  501 -0.00000000000E+00  0.00000000000E+00  0.34643639020E+02  0.34643639020E+02  0.00000000000E+00 0.  1.
          2   -1    0    0  501    0  0.00000000000E+00 -0.00000000000E+00 -0.71698684812E+03  0.71698684812E+03  0.00000000000E+00 0. -1.
         25    2    1    2    0    0  0.10765131965E+03  0.17056479698E+02 -0.29220582459E+03  0.33602309508E+03  0.12509015303E+03 0.  0.
          5    1    3    3  502    0  0.41627638487E+02 -0.51967686742E+02 -0.86982091863E+02  0.10962142791E+03  0.41800000000E+01 0.  1.
         -5    1    3    3    0  502  0.66023681168E+02  0.69024166440E+02 -0.20522373272E+03  0.22640166718E+03  0.41800000000E+01 0.  1.
        -11    1    1    2    0    0 -0.58635330936E+02 -0.41542446752E+02 -0.11919944270E+03  0.13918471200E+03  0.00000000000E+00 0.  1.
         11    1    1    2    0    0 -0.49015988719E+02  0.24485967054E+02 -0.27093794182E+03  0.27642268006E+03  0.00000000000E+00 0. -1.
</event>
<event>
 7    1  0.2522928E-009  0.1071119E+03  0.7561462E-02  0.1266014E+00
         -2   -1    0    0    0  501 -0.00000000000E+00  0.00000000000E+00  0.15047290873E+03  0.15047290873E+03  0.00000000000E+00 0.  1.
          2   -1    0    0  501    0  0.00000000000E+00 -0.00000000000E+00 -0.97183028510E+02  0.97183028510E+02  0.00000000000E+00 0. -1.
         25    2    1    2    0    0  0.12629943075E+02  0.51698074214E+02  0.19063475768E+02  0.13726974021E+03  0.12508940455E+03 0.  0.
          5    1    3    3  502    0  0.49519891265E+02  0.55679497889E+02 -0.25741043091E+02  0.78946183033E+02  0.41800000000E+01 0.  1.
         -5    1    3    3    0  502 -0.36889948190E+02 -0.39814236757E+01  0.44804518859E+02  0.58323557180E+02  0.41800000000E+01 0.  1.
        -11    1    1    2    0    0 -0.31721900915E+02 -0.69344140670E+02  0.36003767545E+02  0.84327694860E+02  0.00000000000E+00 0.  1.
         11    1    1    2    0    0  0.19091957841E+02  0.17646066457E+02 -0.17773630920E+01  0.26058502166E+02  0.00000000000E+00 0. -1.
</event>
<event>
 7    1  0.2522928E-009  0.1064442E+03  0.7561462E-02  0.1267300E+00
         -1   -1    0    0    0  501 -0.00000000000E+00  0.00000000000E+00  0.63270137551E+02  0.63270137551E+02  0.00000000000E+00 0.  1.
          1   -1    0    0  501    0  0.00000000000E+00 -0.00000000000E+00 -0.27216380124E+03  0.27216380124E+03  0.00000000000E+00 0. -1.
         25    2    1    2    0    0 -0.54476364827E+01  0.65373800533E+02 -0.70092897935E+02  0.15768228036E+03  0.12508907490E+03 0.  0.
          5    1    3    3  502    0  0.24534032252E+02  0.73994281757E+02 -0.90998535917E+02  0.11989694913E+03  0.41800000000E+01 0. -1.
         -5    1    3    3    0  502 -0.29981668735E+02 -0.86204812244E+01  0.20905637983E+02  0.37785331230E+02  0.41800000000E+01 0. -1.
        -11    1    1    2    0    0 -0.37223201451E+02 -0.27341073426E+02 -0.30666964938E+02  0.55439730888E+02  0.00000000000E+00 0.  1.
         11    1    1    2    0    0  0.42670837934E+02 -0.38032727106E+02 -0.10813380082E+03  0.12231192755E+03  0.00000000000E+00 0. -1.
</event>
<event>
 7    1  0.2522928E-009  0.1262273E+03  0.7561462E-02  0.1233164E+00
         -2   -1    0    0    0  501 -0.00000000000E+00  0.00000000000E+00  0.70379570883E+02  0.70379570883E+02  0.00000000000E+00 0.  1.
          2   -1    0    0  501    0  0.00000000000E+00 -0.00000000000E+00 -0.39591061076E+03  0.39591061076E+03  0.00000000000E+00 0. -1.
         25    2    1    2    0    0 -0.29580886512E+02 -0.12043575580E+03 -0.13598564628E+03  0.22253065943E+03  0.12509195926E+03 0.  0.
          5    1    3    3  502    0  0.58503323153E+01 -0.95469497873E+01  0.22715128724E+02  0.25667491334E+02  0.41800000000E+01 0.  1.
         -5    1    3    3    0  502 -0.35431218827E+02 -0.11088880601E+03 -0.15870077501E+03  0.19686316810E+03  0.41800000000E+01 0.  1.
        -11    1    1    2    0    0  0.22612321761E+02  0.91217099683E+02 -0.19185191618E+03  0.21363294248E+03  0.00000000000E+00 0. -1.
         11    1    1    2    0    0  0.69685647503E+01  0.29218656117E+02  0.23065225839E+01  0.30126579733E+02  0.00000000000E+00 0.  1.
</event>
<event>
 7    1  0.2522928E-009  0.8725576E+02  0.7561462E-02  0.1309637E+00
         -2   -1    0    0    0  501 -0.00000000000E+00  0.00000000000E+00  0.37718727906E+02  0.37718727906E+02  0.00000000000E+00 0.  1.
          2   -1    0    0  501    0  0.00000000000E+00 -0.00000000000E+00 -0.43053289824E+03  0.43053289824E+03  0.00000000000E+00 0. -1.
         25    2    1    2    0    0  0.14306229409E+02  0.64883573029E+02 -0.21249792149E+03  0.25537718069E+03  0.12509033348E+03 0.  0.
          5    1    3    3  502    0  0.38349225425E+02  0.19946395316E+02 -0.19731091849E+03  0.20203364257E+03  0.41800000000E+01 0.  1.
         -5    1    3    3    0  502 -0.24042996016E+02  0.44937177712E+02 -0.15187003000E+02  0.53343538112E+02  0.41800000000E+01 0.  1.
        -11    1    1    2    0    0 -0.28334395215E+02 -0.25424138152E+02 -0.12739081041E+02  0.40143603958E+02  0.00000000000E+00 0. -1.
         11    1    1    2    0    0  0.14028165805E+02 -0.39459434877E+02 -0.16757716780E+03  0.17273084150E+03  0.00000000000E+00 0.  1.
</event>
<event>
 7    1  0.2522928E-009  0.9645977E+02  0.7561462E-02  0.1287922E+00
         -2   -1    0    0    0  501 -0.00000000000E+00  0.00000000000E+00  0.44823818358E+02  0.44823818358E+02  0.00000000000E+00 0.  1.
          2   -1    0    0  501    0  0.00000000000E+00 -0.00000000000E+00 -0.29825222570E+03  0.29825222570E+03  0.00000000000E+00 0. -1.
         25    2    1    2    0    0  0.32187593115E+02  0.14514930710E+02 -0.11551405442E+03  0.17389608659E+03  0.12509847241E+03 0.  0.
          5    1    3    3  502    0  0.42479303437E+02 -0.28033213772E+02 -0.11928896089E+03  0.12976008972E+03  0.41800000000E+01 0. -1.
         -5    1    3    3    0  502 -0.10291710322E+02  0.42548144482E+02  0.37749064740E+01  0.44135996863E+02  0.41800000000E+01 0. -1.
        -11    1    1    2    0    0  0.17262191063E+02  0.27847789243E+02 -0.49977588263E+02  0.59759868930E+02  0.00000000000E+00 0. -1.
         11    1    1    2    0    0 -0.49449784178E+02 -0.42362719953E+02 -0.87936764665E+02  0.10942008854E+03  0.00000000000E+00 0.  1.
</event>
<event>
 7    1  0.2522928E-009  0.1310461E+03  0.7561462E-02  0.1225912E+00
          2   -1    0    0  501    0  0.00000000000E+00  0.00000000000E+00  0.30875469205E+03  0.30875469205E+03  0.00000000000E+00 0. -1.
         -2   -1    0    0    0  501 -0.00000000000E+00 -0.00000000000E+00 -0.67900577080E+02  0.67900577080E+02  0.00000000000E+00 0.  1.
         25    2    1    2    0    0  0.42734225748E+02  0.82964172988E+02  0.10216770675E+03  0.18653343747E+03  0.12508882821E+03 0.  0.
          5    1    3    3  502    0 -0.20654197506E+02  0.82237796266E+02  0.29180881134E+02  0.89769968437E+02  0.41800000000E+01 0. -1.
         -5    1    3    3    0  502  0.63388423254E+02  0.72637672193E+00  0.72986825619E+02  0.96763469035E+02  0.41800000000E+01 0. -1.
        -11    1    1    2    0    0 -0.29243283135E+02 -0.92587350807E+02  0.70605137868E+02  0.12005279102E+03  0.00000000000E+00 0.  1.
         11    1    1    2    0    0 -0.13490942612E+02  0.96231778182E+01  0.68081270347E+02  0.70069040638E+02  0.00000000000E+00 0. -1.
</event>
<event>
 7    1  0.2522928E-009  0.1112545E+03  0.7561462E-02  0.1258264E+00
          1   -1    0    0  501    0  0.00000000000E+00  0.00000000000E+00  0.12263384693E+02  0.12263384693E+02  0.00000000000E+00 0. -1.
         -1   -1    0    0    0  501 -0.00000000000E+00 -0.00000000000E+00 -0.11617440077E+04  0.11617440077E+04  0.00000000000E+00 0.  1.
         25    2    1    2    0    0  0.12080164175E+02 -0.41697069045E+02 -0.79765764346E+03  0.80857228005E+03  0.12508732935E+03 0.  0.
          5    1    3    3  502    0 -0.38547596826E+02 -0.61602991736E+02 -0.56123851399E+03  0.56593903187E+03  0.41800000000E+01 0.  1.
         -5    1    3    3    0  502  0.50627761001E+02  0.19905922691E+02 -0.23641912947E+03  0.24263324818E+03  0.41800000000E+01 0.  1.
        -11    1    1    2    0    0 -0.25876443948E+02 -0.19515549443E+02 -0.77062613176E+02  0.83600797670E+02  0.00000000000E+00 0. -1.
         11    1    1    2    0    0  0.13796279773E+02  0.61212618488E+02 -0.27476036635E+03  0.28183431465E+03  0.00000000000E+00 0.  1.
</event>
<event>
 7    1  0.2522928E-009  0.8077404E+02  0.7561462E-02  0.1326869E+00
         -2   -1    0    0    0  501 -0.00000000000E+00  0.00000000000E+00  0.17076875497E+03  0.17076875497E+03  0.00000000000E+00 0.  1.
          2   -1    0    0  501    0  0.00000000000E+00 -0.00000000000E+00 -0.99966915125E+02  0.99966915125E+02  0.00000000000E+00 0. -1.
         25    2    1    2    0    0 -0.40938638774E+02  0.54123952636E+02  0.59760606073E+01  0.14243758300E+03  0.12508947740E+03 0.  0.
          5    1    3    3  502    0 -0.27217495487E+02 -0.31568784864E+01 -0.52478704199E+02  0.59348502397E+02  0.41800000000E+01 0. -1.
         -5    1    3    3    0  502 -0.13721143287E+02  0.57280831123E+02  0.58454764806E+02  0.83089080605E+02  0.41800000000E+01 0. -1.
        -11    1    1    2    0    0  0.23442212482E+02 -0.69242453742E+01 -0.18700110871E+02  0.30776235096E+02  0.00000000000E+00 0. -1.
         11    1    1    2    0    0  0.17496426291E+02 -0.47199707262E+02  0.83525890111E+02  0.97521852000E+02  0.00000000000E+00 0.  1.
</event>
<event>
 7    1  0.2522928E-009  0.1805437E+03  0.7561462E-02  0.1167278E+00
         -1   -1    0    0    0  501 -0.00000000000E+00  0.00000000000E+00  0.30261101433E+02  0.30261101433E+02  0.00000000000E+00 0.  1.
          1   -1    0    0  501    0  0.00000000000E+00 -0.00000000000E+00 -0.18304395412E+04  0.18304395412E+04  0.00000000000E+00 0. -1.
         25    2    1    2    0    0  0.11530447625E+03 -0.86933214298E+02 -0.15225842471E+04  0.15345241843E+04  0.12509666893E+03 0.  0.
          5    1    3    3  502    0  0.60018007360E+02 -0.11351755841E+03 -0.95001650212E+03  0.95866429160E+03  0.41800000000E+01 0.  1.
         -5    1    3    3    0  502  0.55286468887E+02  0.26584344111E+02 -0.57256774501E+03  0.57585989270E+03  0.41800000000E+01 0.  1.
        -11    1    1    2    0    0 -0.11812797248E+03  0.40905641954E+02 -0.19675895450E+03  0.23311279588E+03  0.00000000000E+00 0. -1.
         11    1    1    2    0    0  0.28234962338E+01  0.46027572344E+02 -0.80835238153E+02  0.93063662479E+02  0.00000000000E+00 0.  1.
</event>
<event>
 7    1  0.2522928E-009  0.1218854E+03  0.7561462E-02  0.1240019E+00
          2   -1    0    0  501    0  0.00000000000E+00  0.00000000000E+00  0.20743653215E+04  0.20743653215E+04  0.00000000000E+00 0. -1.
         -2   -1    0    0    0  501 -0.00000000000E+00 -0.00000000000E+00 -0.90736309283E+01  0.90736309283E+01  0.00000000000E+00 0.  1.
         25    2    1    2    0    0 -0.49375366609E+02  0.27311749967E+02  0.15741866585E+04  0.15801570694E+04  0.12509544250E+03 0.  0.
          5    1    3    3  502    0  0.39405579849E+02 -0.78433948786E+01  0.37577952578E+03  0.37794449720E+03  0.41800000000E+01 0.  1.
         -5    1    3    3    0  502 -0.88780946458E+02  0.35155144846E+02  0.11984071327E+04  0.12022125722E+04  0.41800000000E+01 0.  1.
        -11    1    1    2    0    0  0.65151834124E+02 -0.48612351924E+02  0.40914466590E+03  0.41714179829E+03  0.00000000000E+00 0. -1.
         11    1    1    2    0    0 -0.15776467515E+02  0.21300601957E+02  0.81960366157E+02  0.86140084696E+02  0.00000000000E+00 0.  1.
</event>
<event>
 7    1  0.2522928E-009  0.1569570E+03  0.7561462E-02  0.1192176E+00
          2   -1    0    0  501    0  0.00000000000E+00  0.00000000000E+00  0.67638836748E+02  0.67638836748E+02  0.00000000000E+00 0.  1.
         -2   -1    0    0    0  501 -0.00000000000E+00 -0.00000000000E+00 -0.60513359537E+03  0.60513359537E+03  0.00000000000E+00 0. -1.
         25    2    1    2    0    0  0.15110180471E+03 -0.28142673276E+02 -0.15853469144E+03  0.25378274471E+03  0.12509463488E+03 0.  0.
          5    1    3    3  502    0  0.14275073507E+03 -0.21982045470E+02 -0.17925151070E+03  0.23023804893E+03  0.41800000000E+01 0. -1.
         -5    1    3    3    0  502  0.83510696440E+01 -0.61606278058E+01  0.20716819261E+02  0.23544695782E+02  0.41800000000E+01 0. -1.
        -11    1    1    2    0    0 -0.44614292134E+02  0.26176688164E+02 -0.23077210577E+03  0.23649824284E+03  0.00000000000E+00 0. -1.
         11    1    1    2    0    0 -0.10648751258E+03  0.19659851116E+01 -0.14818796142E+03  0.18249144457E+03  0.00000000000E+00 0.  1.
</event>
<event>
 7    1  0.2522928E-009  0.7785400E+02  0.7561462E-02  0.1335254E+00
         -1   -1    0    0    0  501 -0.00000000000E+00  0.00000000000E+00  0.91649479706E+02  0.91649479706E+02  0.00000000000E+00 0.  1.
          1   -1    0    0  501    0  0.00000000000E+00 -0.00000000000E+00 -0.16019590211E+03  0.16019590211E+03  0.00000000000E+00 0. -1.
         25    2    1    2    0    0  0.12983931362E+02 -0.13530108937E+02 -0.95074540823E+02  0.15823527328E+03  0.12509031568E+03 0.  0.
          5    1    3    3  502    0  0.27466659898E+02 -0.47979736112E+02 -0.10552799828E+03  0.11920613787E+03  0.41800000000E+01 0. -1.
         -5    1    3    3    0  502 -0.14482728536E+02  0.34449627176E+02  0.10453457461E+02  0.39029135415E+02  0.41800000000E+01 0. -1.
        -11    1    1    2    0    0  0.21734831268E+02  0.17244427132E+02  0.45934033361E+02  0.53662916229E+02  0.00000000000E+00 0.  1.
         11    1    1    2    0    0 -0.34718762630E+02 -0.37143181950E+01 -0.19405914943E+02  0.39947192305E+02  0.00000000000E+00 0. -1.
</event>
<event>
 7    1  0.2522928E-009  0.1573143E+03  0.7561462E-02  0.1191763E+00
         -1   -1    0    0    0  501 -0.00000000000E+00  0.00000000000E+00  0.24772951015E+02  0.24772951015E+02  0.00000000000E+00 0.  1.
          1   -1    0    0  501    0  0.00000000000E+00 -0.00000000000E+00 -0.20555810798E+04  0.20555810798E+04  0.00000000000E+00 0. -1.
         25    2    1    2    0    0 -0.31378518467E+02  0.12550884429E+03 -0.17360571592E+04  0.17453592607E+04  0.12508959784E+03 0.  0.
          5    1    3    3  502    0 -0.60814763885E+02  0.58843312892E+02 -0.13369390512E+04  0.13396210173E+04  0.41800000000E+01 0.  1.
         -5    1    3    3    0  502  0.29436245418E+02  0.66665531400E+02 -0.39911810798E+03  0.40573824338E+03  0.41800000000E+01 0.  1.
        -11    1    1    2    0    0  0.51714149761E+02 -0.12638248508E+03 -0.23405956111E+03  0.27098111368E+03  0.00000000000E+00 0.  1.
         11    1    1    2    0    0 -0.20335631294E+02  0.87364078791E+00 -0.60691408495E+02  0.64013656461E+02  0.00000000000E+00 0. -1.
</event>
<event>
 7    1  0.2522928E-009  0.1096366E+03  0.7561462E-02  0.1261244E+00
         -1   -1    0    0    0  501 -0.00000000000E+00  0.00000000000E+00  0.18996544987E+02  0.18996544987E+02  0.00000000000E+00 0.  1.
          1   -1    0    0  501    0  0.00000000000E+00 -0.00000000000E+00 -0.69305070599E+03  0.69305070599E+03  0.00000000000E+00 0. -1.
         25    2    1    2    0    0 -0.10434838212E+02 -0.37198504486E+02 -0.39666957168E+03  0.41771669553E+03  0.12509146273E+03 0.  0.
          5    1    3    3  502    0 -0.62722455795E+02 -0.17971004606E+02 -0.13309406478E+03  0.14828542055E+03  0.41800000000E+01 0.  1.
         -5    1    3    3    0  502  0.52287617583E+02 -0.19227499880E+02 -0.26357550690E+03  0.26943127498E+03  0.41800000000E+01 0.  1.
        -11    1    1    2    0    0 -0.34761920419E+02 -0.62646638104E+01 -0.87487936839E+02  0.94349224778E+02  0.00000000000E+00 0.  1.
         11    1    1    2    0    0  0.45196758630E+02  0.43463168297E+02 -0.18989665249E+03  0.19998133067E+03  0.00000000000E+00 0. -1.
</event>
<event>
 7    1  0.2522928E-009  0.1003282E+03  0.7561462E-02  0.1279607E+00
         -2   -1    0    0    0  501 -0.00000000000E+00  0.00000000000E+00  0.74726169541E+02  0.74726169541E+02  0.00000000000E+00 0.  1.
          2   -1    0    0  501    0  0.00000000000E+00 -0.00000000000E+00 -0.16237711418E+03  0.16237711418E+03  0.00000000000E+00 0. -1.
         25    2    1    2    0    0 -0.45286035766E+01  0.42475415481E+01 -0.79571743177E+02  0.14838487490E+03  0.12509140230E+03 0.  0.
          5    1    3    3  502    0 -0.12186331123E+02  0.63784438531E+02 -0.41225394063E+02  0.77032245071E+02  0.41800000000E+01 0. -1.
         -5    1    3    3    0  502  0.76577275468E+01 -0.59536896983E+02 -0.38346349114E+02  0.71352629832E+02  0.41800000000E+01 0. -1.
        -11    1    1    2    0    0 -0.23823081491E+02  0.25100007814E+02 -0.26852061770E+02  0.43801630395E+02  0.00000000000E+00 0. -1.
         11    1    1    2    0    0  0.28351685068E+02 -0.29347549362E+02  0.18772860309E+02  0.44916778423E+02  0.00000000000E+00 0.  1.
</event>
<event>
 7    1  0.2522928E-009  0.1737902E+03  0.7561462E-02  0.1173952E+00
         -2   -1    0    0    0  501 -0.00000000000E+00  0.00000000000E+00  0.12115679259E+03  0.12115679259E+03  0.00000000000E+00 0.  1.
          2   -1    0    0  501    0  0.00000000000E+00 -0.00000000000E+00 -0.37434899846E+03  0.37434899846E+03  0.00000000000E+00 0. -1.
         25    2    1    2    0    0 -0.25039824566E+02  0.13951332177E+03  0.36473903388E+01  0.18908710474E+03  0.12509864091E+03 0.  0.
          5    1    3    3  502    0 -0.69554200552E+02  0.81476109198E+02 -0.25567531674E+02  0.11021485499E+03  0.41800000000E+01 0. -1.
         -5    1    3    3    0  502  0.44514375986E+02  0.58037212572E+02  0.29214922013E+02  0.78872249751E+02  0.41800000000E+01 0. -1.
        -11    1    1    2    0    0  0.57440773479E+02 -0.10556948645E+03 -0.18479263493E+03  0.22043746699E+03  0.00000000000E+00 0.  1.
         11    1    1    2    0    0 -0.32400948912E+02 -0.33943835318E+02 -0.72046961277E+02  0.85981219320E+02  0.00000000000E+00 0. -1.
</event>
<event>
 7    1  0.2522928E-009  0.2245022E+03  0.7561462E-02  0.1130570E+00
          2   -1    0    0  501    0  0.00000000000E+00  0.00000000000E+00  0.15255453811E+04  0.15255453811E+04  0.00000000000E+00 0. -1.
         -2   -1    0    0    0  501 -0.00000000000E+00 -0.00000000000E+00 -0.41422123199E+02  0.41422123199E+02  0.00000000000E+00 0.  1.
         25    2    1    2    0    0 -0.13207348701E+03  0.16763534287E+03  0.52541288837E+03  0.58073398574E+03  0.12509294453E+03 0.  0.
          5    1    3    3  502    0 -0.70966245263E+01 -0.12843733340E+02  0.10821879221E+03  0.10928907975E+03  0.41800000000E+01 0. -1.
         -5    1    3    3    0  502 -0.12497686248E+03  0.18047907621E+03  0.41719409616E+03  0.47144490598E+03  0.41800000000E+01 0. -1.
        -11    1    1    2    0    0  0.85141243996E+02 -0.93676145601E+02  0.73798253188E+03  0.74876062199E+03  0.00000000000E+00 0. -1.
         11    1    1    2    0    0  0.46932243011E+02 -0.73959197266E+02  0.22072783766E+03  0.23747289658E+03  0.00000000000E+00 0.  1.
</event>
<event>
 7    1  0.2522928E-009  0.9470943E+02  0.7561462E-02  0.1291832E+00
          1   -1    0    0  501    0  0.00000000000E+00  0.00000000000E+00  0.33147145553E+03  0.33147145553E+03  0.00000000000E+00 0. -1.
         -1   -1    0    0    0  501 -0.00000000000E+00 -0.00000000000E+00 -0.68849783975E+02  0.68849783975E+02  0.00000000000E+00 0.  1.
         25    2    1    2    0    0  0.24390190250E+02  0.63330695952E+02  0.35664090144E+02  0.14670276365E+03  0.12507643706E+03 0.  0.
          5    1    3    3  502    0  0.32998167372E+02  0.94163129101E+01 -0.40277851316E+02  0.53078467436E+02  0.41800000000E+01 0.  1.
         -5    1    3    3    0  502 -0.86079771221E+01  0.53914383042E+02  0.75941941461E+02  0.93624296215E+02  0.41800000000E+01 0.  1.
        -11    1    1    2    0    0 -0.43498776666E+02 -0.11707817026E+02  0.16360009127E+03  0.16968855711E+03  0.00000000000E+00 0. -1.
         11    1    1    2    0    0  0.19108586417E+02 -0.51622878926E+02  0.63357490146E+02  0.83929918748E+02  0.00000000000E+00 0.  1.
</event>
<event>
 7    1  0.2522928E-009  0.1343492E+03  0.7561462E-02  0.1221141E+00
         -2   -1    0    0    0  501 -0.00000000000E+00  0.00000000000E+00  0.10688913685E+03  0.10688913685E+03  0.00000000000E+00 0.  1.
          2   -1    0    0  501    0  0.00000000000E+00 -0.00000000000E+00 -0.23209068754E+03  0.23209068754E+03  0.00000000000E+00 0. -1.
         25    2    1    2    0    0  0.24884040847E+02  0.94984353658E+02 -0.13011461885E+03  0.20547077067E+03  0.12508869107E+03 0.  0.
          5    1    3    3  502    0  0.54567175262E+02  0.38314545737E+01 -0.17641799206E+02  0.57627789646E+02  0.41800000000E+01 0. -1.
         -5    1    3    3    0  502 -0.29683134415E+02  0.91152899084E+02 -0.11247281965E+03  0.14784298103E+03  0.41800000000E+01 0. -1.
        -11    1    1    2    0    0 -0.97473987783E+01 -0.10109116411E+03 -0.20208146268E+02  0.10355097498E+03  0.00000000000E+00 0. -1.
         11    1    1    2    0    0 -0.15136642069E+02  0.61068104476E+01  0.25121214435E+02  0.29958078738E+02  0.00000000000E+00 0.  1.
</event>
<event>
 7    1  0.2522928E-009  0.1726649E+03  0.7561462E-02  0.1175097E+00
          2   -1    0    0  501    0  0.00000000000E+00  0.00000000000E+00  0.22046015005E+03  0.22046015005E+03  0.00000000000E+00 0. -1.
         -2   -1    0    0    0  501 -0.00000000000E+00 -0.00000000000E+00 -0.15489974893E+03  0.15489974893E+03  0.00000000000E+00 0.  1.
         25    2    1    2    0    0 -0.14626896047E+03  0.30441631625E+02  0.29393352717E+02  0.19706027743E+03  0.12508989578E+03 0.  0.
          5    1    3    3  502    0 -0.38259182914E+02  0.50091032724E+02  0.55558354597E+02  0.84125381438E+02  0.41800000000E+01 0.  1.
         -5    1    3    3    0  502 -0.10800977755E+03 -0.19649401098E+02 -0.26165001879E+02  0.11293489600E+03  0.41800000000E+01 0.  1.
        -11    1    1    2    0    0  0.12200605871E+03 -0.58414580750E+02  0.40033708348E+02  0.14106891723E+03  0.00000000000E+00 0. -1.
         11    1    1    2    0    0  0.24262901757E+02  0.27972949125E+02 -0.38666599479E+01  0.37230704312E+02  0.00000000000E+00 0.  1.
</event>
<event>
 7    1  0.2522928E-009  0.1041233E+03  0.7561462E-02  0.1271857E+00
          1   -1    0    0  501    0  0.00000000000E+00  0.00000000000E+00  0.11722782824E+03  0.11722782824E+03  0.00000000000E+00 0. -1.
         -1   -1    0    0    0  501 -0.00000000000E+00 -0.00000000000E+00 -0.10084219923E+03  0.10084219923E+03  0.00000000000E+00 0.  1.
         25    2    1    2    0    0  0.10328886991E+02  0.31991466980E+01  0.56886897372E+01  0.12568988773E+03  0.12509462915E+03 0.  0.
          5    1    3    3  502    0 -0.25657574139E+02 -0.51678925164E+02  0.13690806948E+02  0.59446892363E+02  0.41800000000E+01 0. -1.
         -5    1    3    3    0  502  0.35986461130E+02  0.54878071862E+02 -0.80021172111E+01  0.66242995371E+02  0.41800000000E+01 0. -1.
        -11    1    1    2    0    0 -0.25491841890E+02 -0.38526124218E+02 -0.12009230117E+02  0.47731728004E+02  0.00000000000E+00 0.  1.
         11    1    1    2    0    0  0.15162954899E+02  0.35326977520E+02  0.22706169383E+02  0.44648411731E+02  0.00000000000E+00 0. -1.
</event>
<event>
 7    1  0.2522928E-009  0.9835096E+02  0.7561462E-02  0.1283802E+00
          1   -1    0    0  501    0  0.00000000000E+00  0.00000000000E+00  0.18209097545E+03  0.18209097545E+03  0.00000000000E+00 0. -1.
         -1   -1    0    0    0  501 -0.00000000000E+00 -0.00000000000E+00 -0.95961755172E+02  0.95961755172E+02  0.00000000000E+00 0.  1.
         25    2    1    2    0    0  0.66633990069E+02 -0.15305836943E+02  0.12958261579E+02  0.14314319718E+03  0.12509077135E+03 0.  0.
          5    1    3    3  502    0  0.26663067572E+02  0.24911215663E+02 -0.47570570045E+02  0.60099246023E+02  0.41800000000E+01 0.  1.
         -5    1    3    3    0  502  0.39970922497E+02 -0.40217052606E+02  0.60528831624E+02  0.83043951154E+02  0.41800000000E+01 0.  1.
        -11    1    1    2    0    0 -0.60630692999E+02 -0.22625467760E+02  0.71545806072E+02  0.96471732085E+02  0.00000000000E+00 0. -1.
         11    1    1    2    0    0 -0.60032970694E+01  0.37931304703E+02  0.16251526252E+01  0.38437801358E+02  0.00000000000E+00 0.  1.
</event>
<event>
 7    1  0.2522928E-009  0.7867894E+02  0.7561462E-02  0.1332843E+00
         -2   -1    0    0    0  501 -0.00000000000E+00  0.00000000000E+00  0.16950185120E+02  0.16950185120E+02  0.00000000000E+00 0.  1.
          2   -1    0    0  501    0  0.00000000000E+00 -0.00000000000E+00 -0.69621664038E+03  0.69621664038E+03  0.00000000000E+00 0. -1.
         25    2    1    2    0    0  0.12704143121E+02 -0.60063789635E+01 -0.37794043015E+03  0.39834524984E+03  0.12506997035E+03 0.  0.
          5    1    3    3  502    0 -0.11936427921E+02  0.24220204992E+02 -0.11226428709E+02  0.29539833157E+02  0.41800000000E+01 0.  1.
         -5    1    3    3    0  502  0.24640571042E+02 -0.30226583956E+02 -0.36671400144E+03  0.36880541668E+03  0.41800000000E+01 0.  1.
        -11    1    1    2    0    0 -0.30352500309E+02  0.41358517582E+02 -0.15593026421E+03  0.16415251612E+03  0.00000000000E+00 0.  1.
         11    1    1    2    0    0  0.17648357188E+02 -0.35352138618E+02 -0.14539576089E+03  0.15066905954E+03  0.00000000000E+00 0. -1.
</event>
<event>
 7    1  0.2522928E-009  0.1125222E+03  0.7561462E-02  0.1255969E+00
         -2   -1    0    0    0  501 -0.00000000000E+00  0.00000000000E+00  0.16701321528E+02  0.16701321528E+02  0.00000000000E+00 0.  1.
          2   -1    0    0  501    0  0.00000000000E+00 -0.00000000000E+00 -0.13889078710E+04  0.13889078710E+04  0.00000000000E+00 0. -1.
         25    2    1    2    0    0  0.53581491421E+02  0.85281680080E+02 -0.10336082141E+04  0.10460110513E+04  0.12509691453E+03 0.  0.
          5    1    3    3  502    0  0.44760229903E+02  0.49489686656E+02 -0.18704592882E+03  0.19863624834E+03  0.41800000000E+01 0. -1.
         -5    1    3    3    0  502  0.88212615184E+01  0.35791993424E+02 -0.84656228531E+03  0.84737480300E+03  0.41800000000E+01 0. -1.
        -11    1    1    2    0    0 -0.44936199306E+02 -0.10947415879E+02 -0.12865828364E+03  0.13671891556E+03  0.00000000000E+00 0.  1.
         11    1    1    2    0    0 -0.86452921155E+01 -0.74334264201E+02 -0.20994005174E+03  0.22287922567E+03  0.00000000000E+00 0. -1.
</event>
<event>
 7    1  0.2522928E-009  0.1612340E+03  0.7561462E-02  0.1187311E+00
          1   -1    0    0  501    0  0.00000000000E+00  0.00000000000E+00  0.22113227250E+04  0.22113227250E+04  0.00000000000E+00 0. -1.
         -1   -1    0    0    0  501 -0.00000000000E+00 -0.00000000000E+00 -0.17283502014E+02  0.17283502014E+02  0.00000000000E+00 0.  1.
         25    2    1    2    0    0 -0.74857147779E+02 -0.12545492950E+03  0.15655332218E+04  0.15773028245E+04  0.12508956650E+03 0.  0.
          5    1    3    3  502    0 -0.14354782799E+02 -0.97763463720E+02  0.50008621165E+03  0.50977195500E+03  0.41800000000E+01 0.  1.
         -5    1    3    3    0  502 -0.60502364980E+02 -0.27691465783E+02  0.10654470102E+04  0.10675308695E+04  0.41800000000E+01 0.  1.
        -11    1    1    2    0    0  0.62472837442E+02  0.12957308929E+03  0.61808261309E+03  0.63460078592E+03  0.00000000000E+00 0. -1.
         11    1    1    2    0    0  0.12384310337E+02 -0.41181597846E+01  0.10423388110E+02  0.16702616628E+02  0.00000000000E+00 0.  1.
</event>
<event>
 7    1  0.2522928E-009  0.8352082E+02  0.7561462E-02  0.1319347E+00
          1   -1    0    0  501    0  0.00000000000E+00  0.00000000000E+00  0.13777886037E+03  0.13777886037E+03  0.00000000000E+00 0. -1.
         -1   -1    0    0    0  501 -0.00000000000E+00 -0.00000000000E+00 -0.13994463994E+03  0.13994463994E+03  0.00000000000E+00 0.  1.
         25    2    1    2    0    0  0.41632184848E+02  0.60935899428E+02 -0.44949418563E+02  0.15203565695E+03  0.12509183866E+03 0.  0.
          5    1    3    3  502    0  0.14046890212E+02  0.17730574741E+02  0.43792955949E+02  0.49466997038E+02  0.41800000000E+01 0.  1.
         -5    1    3    3    0  502  0.27585294636E+02  0.43205324687E+02 -0.88742374512E+02  0.10256865991E+03  0.41800000000E+01 0.  1.
        -11    1    1    2    0    0  0.30543103287E+01 -0.45091886090E+02  0.60113302021E+02  0.75207819291E+02  0.00000000000E+00 0.  1.
         11    1    1    2    0    0 -0.44686495176E+02 -0.15844013338E+02 -0.17329663029E+02  0.50480024074E+02  0.00000000000E+00 0. -1.
</event>
<event>
 7    1  0.2522928E-009  0.1740764E+03  0.7561462E-02  0.1173662E+00
          2   -1    0    0  501    0  0.00000000000E+00  0.00000000000E+00  0.45655681839E+03  0.45655681839E+03  0.00000000000E+00 0.  1.
         -2   -1    0    0    0  501 -0.00000000000E+00 -0.00000000000E+00 -0.11116657186E+03  0.11116657186E+03  0.00000000000E+00 0. -1.
         25    2    1    2    0    0  0.14434963311E+03  0.58054020383E+02  0.33425053068E+03  0.38933014766E+03  0.12508981074E+03 0.  0.
          5    1    3    3  502    0  0.13529967080E+03  0.25393731146E+02  0.32643492210E+03  0.35429941189E+03  0.41800000000E+01 0. -1.
         -5    1    3    3    0  502  0.90499623117E+01  0.32660289237E+02  0.78156085844E+01  0.35030735768E+02  0.41800000000E+01 0. -1.
        -11    1    1    2    0    0 -0.83196645833E+02  0.11135388759E+02  0.17825850818E+02  0.85810487227E+02  0.00000000000E+00 0.  1.
         11    1    1    2    0    0 -0.61152987276E+02 -0.69189409142E+02 -0.66861349725E+01  0.92582755366E+02  0.00000000000E+00 0. -1.
</event>
<event>
 7    1  0.2522928E-009  0.6933266E+02  0.7561462E-02  0.1362377E+00
          2   -1    0    0  501    0  0.00000000000E+00  0.00000000000E+00  0.95728254610E+02  0.95728254610E+02  0.00000000000E+00 0. -1.
         -2   -1    0    0    0  501 -0.00000000000E+00 -0.00000000000E+00 -0.18235944030E+03  0.18235944030E+03  0.00000000000E+00 0.  1.
         25    2    1    2    0    0 -0.63629969967E-01 -0.45408111142E+02  0.21751304930E+02  0.13484332902E+03  0.12509078107E+03 0.  0.
          5    1    3    3  502    0  0.11826139481E+02 -0.35856753068E+02 -0.49195843971E+02  0.62155191092E+02  0.41800000000E+01 0.  1.
         -5    1    3    3    0  502 -0.11889769451E+02 -0.95513580736E+01  0.70947148902E+02  0.72688137931E+02  0.41800000000E+01 0.  1.
        -11    1    1    2    0    0  0.35363013377E+02  0.15550380921E+02 -0.80407661145E+02  0.89206216334E+02  0.00000000000E+00 0.  1.
         11    1    1    2    0    0 -0.35299383407E+02  0.29857730221E+02 -0.27974829476E+02  0.54038149552E+02  0.00000000000E+00 0. -1.
</event>
<event>
 7    1  0.2522928E-009  0.1060372E+03  0.7561462E-02  0.1268090E+00
          1   -1    0    0  501    0  0.00000000000E+00  0.00000000000E+00  0.25510180565E+03  0.25510180565E+03  0.00000000000E+00 0. -1.
         -1   -1    0    0    0  501 -0.00000000000E+00 -0.00000000000E+00 -0.10460989162E+03  0.10460989162E+03  0.00000000000E+00 0.  1.
         25    2    1    2    0    0 -0.71503926628E+02  0.75305258652E+02  0.14952413248E+03  0.22088073136E+03  0.12508851981E+03 0.  0.
          5    1    3    3  502    0 -0.70580656475E+02  0.70335491607E+02  0.34291128506E+02  0.10546119828E+03  0.41800000000E+01 0. -1.
         -5    1    3    3    0  502 -0.92327015365E+00  0.49697670449E+01  0.11523300397E+03  0.11541953308E+03  0.41800000000E+01 0. -1.
        -11    1    1    2    0    0  0.43039786695E+02 -0.30684331066E+02  0.45436806625E+02  0.69702616938E+02  0.00000000000E+00 0. -1.
         11    1    1    2    0    0  0.28464139934E+02 -0.44620927585E+02 -0.44469025079E+02  0.69128348976E+02  0.00000000000E+00 0.  1.
</event>
<event>
 7    1  0.2522928E-009  0.9723062E+02  0.7561462E-02  0.1286230E+00
         -1   -1    0    0    0  501 -0.00000000000E+00  0.00000000000E+00  0.27636495038E+03  0.27636495038E+03  0.00000000000E+00 0.  1.
          1   -1    0    0  501    0  0.00000000000E+00 -0.00000000000E+00 -0.48259209889E+02  0.48259209889E+02  0.00000000000E+00 0. -1.
         25    2    1    2    0    0  0.10282296838E+02  0.23765476218E+02  0.17003424098E+03  0.21266983739E+03  0.12508514357E+03 0.  0.
          5    1    3    3  502    0 -0.29126960526E+02  0.63753882854E+02  0.10877089099E+03  0.12946627567E+03  0.41800000000E+01 0.  1.
         -5    1    3    3    0  502  0.39409257364E+02 -0.39988406636E+02  0.61263349989E+02  0.83203561722E+02  0.41800000000E+01 0.  1.
        -11    1    1    2    0    0  0.25784802966E+02 -0.20986402388E+01 -0.13311617524E+02  0.29093977314E+02  0.00000000000E+00 0. -1.
         11    1    1    2    0    0 -0.36067099803E+02 -0.21666835979E+02  0.71383117034E+02  0.82860345565E+02  0.00000000000E+00 0.  1.
</event>
<event>
 7    1  0.3011135E-009  0.1192575E+03  0.7561462E-02  0.1244327E+00
          2   -1    0    0  501    0  0.00000000000E+00  0.00000000000E+00  0.75076153608E+03  0.75076153608E+03  0.00000000000E+00 0. -1.
         -2   -1    0    0    0  501 -0.00000000000E+00 -0.00000000000E+00 -0.30291228350E+02  0.30291228350E+02  0.00000000000E+00 0.  1.
         25    2    1    2    0    0 -0.91904524825E+02  0.48137878819E+02  0.36139739915E+03  0.39625743892E+03  0.12509268852E+03 0.  0.
          5    1    3    3  502    0 -0.53829529409E+02 -0.13873266490E+02  0.28602720109E+03  0.29140885011E+03  0.41800000000E+01 0. -1.
         -5    1    3    3    0  502 -0.38074995416E+02  0.62011145309E+02  0.75370198060E+02  0.10484858880E+03  0.41800000000E+01 0. -1.
        -11    1    1    2    0    0  0.49810061770E+02 -0.57451017476E+01  0.28622373794E+03  0.29058230608E+03  0.00000000000E+00 0. -1.
         11    1    1    2    0    0  0.42094463054E+02 -0.42392777071E+02  0.72849170635E+02  0.94213019429E+02  0.00000000000E+00 0.  1.
</event>
<event>
 7    1  0.2522928E-009  0.1835832E+03  0.7561462E-02  0.1164380E+00
         -1   -1    0    0    0  501 -0.00000000000E+00  0.00000000000E+00  0.75050935521E+02  0.75050935521E+02  0.00000000000E+00 0.  1.
          1   -1    0    0  501    0  0.00000000000E+00 -0.00000000000E+00 -0.52264252783E+03  0.52264252783E+03  0.00000000000E+00 0. -1.
         25    2    1    2    0    0  0.68394639970E+02 -0.14874524495E+03 -0.27399796348E+03  0.34281949460E+03  0.12508935690E+03 0.  0.
          5    1    3    3  502    0  0.87917232509E+02 -0.15620779454E+03 -0.21420556841E+03  0.27934174909E+03  0.41800000000E+01 0. -1.
         -5    1    3    3    0  502 -0.19522592540E+02  0.74625495898E+01 -0.59792395078E+02  0.63477745510E+02  0.41800000000E+01 0. -1.
        -11    1    1    2    0    0 -0.49805404968E+02  0.13358219966E+03 -0.91630815537E+02  0.16947267858E+03  0.00000000000E+00 0.  1.
         11    1    1    2    0    0 -0.18589235001E+02  0.15163045289E+02 -0.81962813283E+02  0.85401290164E+02  0.00000000000E+00 0. -1.
</event>
<event>
 7    1  0.2522928E-009  0.1185855E+03  0.7561462E-02  0.1245449E+00
          1   -1    0    0  501    0  0.00000000000E+00  0.00000000000E+00  0.19148012981E+03  0.19148012981E+03  0.00000000000E+00 0. -1.
         -1   -1    0    0    0  501 -0.00000000000E+00 -0.00000000000E+00 -0.89792712850E+02  0.89792712850E+02  0.00000000000E+00 0.  1.
         25    2    1    2    0    0 -0.81993236836E+00  0.55108085020E+02  0.40644357555E+01  0.13675483403E+03  0.12509113345E+03 0.  0.
          5    1    3    3  502    0 -0.71660328595E+01 -0.38011048889E+02  0.16957385144E+02  0.42440748998E+02  0.41800000000E+01 0. -1.
         -5    1    3    3    0  502  0.63461004912E+01  0.93119133910E+02 -0.12892949388E+02  0.94314085032E+02  0.41800000000E+01 0. -1.
        -11    1    1    2    0    0 -0.26608544194E+00 -0.79960210885E+02  0.62552899819E+02  0.10152128546E+03  0.00000000000E+00 0.  1.
         11    1    1    2    0    0  0.10860178103E+01  0.24852125864E+02  0.35070081385E+02  0.42996723166E+02  0.00000000000E+00 0. -1.
</event>
<event>
 7    1  0.2522928E-009  0.1799191E+03  0.7561462E-02  0.1167881E+00
          2   -1    0    0  501    0  0.00000000000E+00  0.00000000000E+00  0.12063534399E+03  0.12063534399E+03  0.00000000000E+00 0. -1.
         -2   -1    0    0    0  501 -0.00000000000E+00 -0.00000000000E+00 -0.57276155420E+03  0.57276155420E+03  0.00000000000E+00 0.  1.
         25    2    1    2    0    0  0.77983241877E+02  0.16037075003E+03 -0.22296009489E+02  0.21896159798E+03  0.12508759279E+03 0.  0.
          5    1    3    3  502    0  0.48459803014E+02  0.12842457540E+03 -0.70108099392E+02  0.15418768458E+03  0.41800000000E+01 0.  1.
         -5    1    3    3    0  502  0.29523438863E+02  0.31946174629E+02  0.47812089903E+02  0.64773913396E+02  0.41800000000E+01 0.  1.
        -11    1    1    2    0    0 -0.12061778728E+02 -0.37240784042E+02 -0.25640354759E+02  0.46795195206E+02  0.00000000000E+00 0. -1.
         11    1    1    2    0    0 -0.65921463149E+02 -0.12312996599E+03 -0.40418984597E+03  0.42764010501E+03  0.00000000000E+00 0.  1.
</event>
<event>
 7    1  0.2522928E-009  0.8892300E+02  0.7561462E-02  0.1305481E+00
         -1   -1    0    0    0  501 -0.00000000000E+00  0.00000000000E+00  0.12568136490E+03  0.12568136490E+03  0.00000000000E+00 0.  1.
          1   -1    0    0  501    0  0.00000000000E+00 -0.00000000000E+00 -0.10537890662E+03  0.10537890662E+03  0.00000000000E+00 0. -1.
         25    2    1    2    0    0  0.96349412512E+01  0.37482155785E+02  0.24056048343E+02  0.13312669136E+03  0.12508508462E+03 0.  0.
          5    1    3    3  502    0 -0.21534720042E+02  0.77001057520E+02  0.19576000575E+02  0.82423292976E+02  0.41800000000E+01 0. -1.
         -5    1    3    3    0  502  0.31169661293E+02 -0.39518901736E+02  0.44800477671E+01  0.50703398382E+02  0.41800000000E+01 0. -1.
        -11    1    1    2    0    0  0.55237230198E+01 -0.29751560970E+02 -0.44478922303E+02  0.53796295648E+02  0.00000000000E+00 0. -1.
         11    1    1    2    0    0 -0.15158664271E+02 -0.77305948147E+01  0.40725332235E+02  0.44137284515E+02  0.00000000000E+00 0.  1.
</event>
<event>
 7    1  0.2522928E-009  0.1219154E+03  0.7561462E-02  0.1239970E+00
         -1   -1    0    0    0  501 -0.00000000000E+00  0.00000000000E+00  0.77245546885E+02  0.77245546885E+02  0.00000000000E+00 0.  1.
          1   -1    0    0  501    0  0.00000000000E+00 -0.00000000000E+00 -0.22741871248E+03  0.22741871248E+03  0.00000000000E+00 0. -1.
         25    2    1    2    0    0  0.12517596315E+02  0.69431294677E+02 -0.11704553341E+03  0.18527189233E+03  0.12509445350E+03 0.  0.
          5    1    3    3  502    0  0.45436953993E+01 -0.36182770845E+02 -0.39610617046E+02  0.54002883781E+02  0.41800000000E+01 0. -1.
         -5    1    3    3    0  502  0.79739009162E+01  0.10561406552E+03 -0.77434916364E+02  0.13126900854E+03  0.41800000000E+01 0. -1.
        -11    1    1    2    0    0 -0.39837475564E+02 -0.19828789585E+02  0.12994396232E+02  0.46357951736E+02  0.00000000000E+00 0. -1.
         11    1    1    2    0    0  0.27319879249E+02 -0.49602505092E+02 -0.46122028421E+02  0.73034415307E+02  0.00000000000E+00 0.  1.
</event>
<event>
 7    1  0.2522928E-009  0.1022846E+03  0.7561462E-02  0.1275564E+00
         -3   -1    0    0    0  501 -0.00000000000E+00  0.00000000000E+00  0.22820712486E+03  0.22820712486E+03  0.00000000000E+00 0.  1.
          3   -1    0    0  501    0  0.00000000000E+00 -0.00000000000E+00 -0.69938811116E+02  0.69938811116E+02  0.00000000000E+00 0. -1.
         25    2    1    2    0    0  0.30381332033E+02 -0.19175460618E+02  0.24753231125E+02  0.13247523764E+03  0.12508494119E+03 0.  0.
          5    1    3    3  502    0  0.52875415881E+02  0.26611855472E+02 -0.21865330468E+02  0.63242118344E+02  0.41800000000E+01 0.  1.
         -5    1    3    3    0  502 -0.22494083847E+02 -0.45787316090E+02  0.46618561593E+02  0.69233119299E+02  0.41800000000E+01 0.  1.
        -11    1    1    2    0    0  0.94500302258E+01 -0.29598297631E+02  0.68195879739E+02  0.74940244911E+02  0.00000000000E+00 0. -1.
         11    1    1    2    0    0 -0.39831362259E+02  0.48773758249E+02  0.65319202875E+02  0.90730453418E+02  0.00000000000E+00 0.  1.
</event>
<event>
 7    1  0.2522928E-009  0.8435777E+02  0.7561462E-02  0.1317121E+00
         -4   -1    0    0    0  501 -0.00000000000E+00  0.00000000000E+00  0.10690228141E+02  0.10690228141E+02  0.00000000000E+00 0.  1.
          4   -1    0    0  501    0  0.00000000000E+00 -0.00000000000E+00 -0.11384453463E+04  0.11384453463E+04  0.00000000000E+00 0. -1.
         25    2    1    2    0    0 -0.28346997081E+02  0.39777486479E+00 -0.68653409704E+03  0.69841247904E+03  0.12508882449E+03 0.  0.
          5    1    3    3  502    0 -0.57906612657E+01 -0.34854239515E+02 -0.61037858621E+03  0.61141462255E+03  0.41800000000E+01 0.  1.
         -5    1    3    3    0  502 -0.22556335815E+02  0.35252014380E+02 -0.76155510832E+02  0.86997856487E+02  0.41800000000E+01 0.  1.
        -11    1    1    2    0    0  0.49001610182E+02 -0.28128095139E+02 -0.24067887757E+03  0.24722190365E+03  0.00000000000E+00 0.  1.
         11    1    1    2    0    0 -0.20654613101E+02  0.27730320274E+02 -0.20054214356E+03  0.20350119176E+03  0.00000000000E+00 0. -1.
</event>
<event>
 7    1  0.2522928E-009  0.1058435E+03  0.7561462E-02  0.1268467E+00
          1   -1    0    0  501    0  0.00000000000E+00  0.00000000000E+00  0.55138084841E+02  0.55138084841E+02  0.00000000000E+00 0. -1.
         -1   -1    0    0    0  501 -0.00000000000E+00 -0.00000000000E+00 -0.30309936283E+03  0.30309936283E+03  0.00000000000E+00 0.  1.
         25    2    1    2    0    0 -0.56367254292E+02  0.31672079366E+02 -0.18338215568E+03  0.23120805652E+03  0.12509101651E+03 0.  0.
          5    1    3    3  502    0 -0.26302092949E+02 -0.43673153854E+02 -0.34789812221E+02  0.61862330181E+02  0.41800000000E+01 0.  1.
         -5    1    3    3    0  502 -0.30065161343E+02  0.75345233220E+02 -0.14859234346E+03  0.16934572634E+03  0.41800000000E+01 0.  1.
        -11    1    1    2    0    0  0.11075335695E+02 -0.32155857668E+02  0.13639422389E+02  0.36642817663E+02  0.00000000000E+00 0. -1.
         11    1    1    2    0    0  0.45291918598E+02  0.48377830233E+00 -0.78218544697E+02  0.90386573484E+02  0.00000000000E+00 0.  1.
</event>
<event>
 7    1  0.2522928E-009  0.1669187E+03  0.7561462E-02  0.1181100E+00
          2   -1    0    0  501    0  0.00000000000E+00  0.00000000000E+00  0.49987435633E+03  0.49987435633E+03  0.00000000000E+00 0. -1.
         -2   -1    0    0    0  501 -0.00000000000E+00 -0.00000000000E+00 -0.77317716522E+02  0.77317716522E+02  0.00000000000E+00 0.  1.
         25    2    1    2    0    0 -0.11444581899E+03 -0.85597080427E+02  0.10111041886E+03  0.21516485255E+03  0.12509153172E+03 0.  0.
          5    1    3    3  502    0 -0.11321240376E+03 -0.11427848979E+03  0.85893140099E+02  0.18240538783E+03  0.41800000000E+01 0.  1.
         -5    1    3    3    0  502 -0.12334152283E+01  0.28681409359E+02  0.15217278763E+02  0.32759464722E+02  0.41800000000E+01 0.  1.
        -11    1    1    2    0    0  0.79185437950E+02  0.49152580146E+02  0.28424611692E+03  0.29913569614E+03  0.00000000000E+00 0. -1.
         11    1    1    2    0    0  0.35260381043E+02  0.36444500281E+02  0.37200104027E+02  0.62891524164E+02  0.00000000000E+00 0.  1.
</event>
<event>
 7    1  0.2522928E-009  0.1041737E+03  0.7561462E-02  0.1271756E+00
          2   -1    0    0  501    0  0.00000000000E+00  0.00000000000E+00  0.27874274739E+03  0.27874274739E+03  0.00000000000E+00 0.  1.
         -2   -1    0    0    0  501 -0.00000000000E+00 -0.00000000000E+00 -0.73219765257E+02  0.73219765257E+02  0.00000000000E+00 0. -1.
         25    2    1    2    0    0  0.52955980592E+02 -0.33857568032E+02  0.19593479680E+03  0.24080644912E+03  0.12508649227E+03 0.  0.
          5    1    3    3  502    0  0.50141071096E+02  0.28132327894E+02  0.15744314472E+03  0.16766445987E+03  0.41800000000E+01 0. -1.
         -5    1    3    3    0  502  0.28149094959E+01 -0.61989895925E+02  0.38491652074E+02  0.73141989252E+02  0.41800000000E+01 0. -1.
        -11    1    1    2    0    0  0.14187699801E+02  0.25166694101E+01  0.30865803610E+02  0.34063503681E+02  0.00000000000E+00 0.  1.
         11    1    1    2    0    0 -0.67143680393E+02  0.31340898622E+02 -0.21277618278E+02  0.77092559840E+02  0.00000000000E+00 0. -1.
</event>
<event>
 7    1  0.2522928E-009  0.1028141E+03  0.7561462E-02  0.1274487E+00
         -2   -1    0    0    0  501 -0.00000000000E+00  0.00000000000E+00  0.30021255399E+02  0.30021255399E+02  0.00000000000E+00 0.  1.
          2   -1    0    0  501    0  0.00000000000E+00 -0.00000000000E+00 -0.56273184844E+03  0.56273184844E+03  0.00000000000E+00 0. -1.
         25    2    1    2    0    0  0.57895569796E+02  0.29341558760E+02 -0.37877483274E+03  0.40414215913E+03  0.12509071427E+03 0.  0.
          5    1    3    3  502    0 -0.38926682809E+02  0.18181631240E+02 -0.10627949814E+03  0.11471121337E+03  0.41800000000E+01 0.  1.
         -5    1    3    3    0  502  0.96822252605E+02  0.11159927519E+02 -0.27249533461E+03  0.28943094576E+03  0.41800000000E+01 0.  1.
        -11    1    1    2    0    0 -0.35898406864E+02 -0.17870447614E+02 -0.83935556599E+01  0.40969504389E+02  0.00000000000E+00 0.  1.
         11    1    1    2    0    0 -0.21997162932E+02 -0.11471111146E+02 -0.14554220463E+03  0.14764144031E+03  0.00000000000E+00 0. -1.
</event>
<event>
 7    1  0.2522928E-009  0.1389964E+03  0.7561462E-02  0.1214686E+00
          1   -1    0    0  501    0  0.00000000000E+00  0.00000000000E+00  0.53332822158E+03  0.53332822158E+03  0.00000000000E+00 0. -1.
         -1   -1    0    0    0  501 -0.00000000000E+00 -0.00000000000E+00 -0.39765593607E+02  0.39765593607E+02  0.00000000000E+00 0.  1.
         25    2    1    2    0    0  0.76424629192E+02  0.59747301080E+02  0.24927824266E+03  0.29529395489E+03  0.12509361934E+03 0.  0.
          5    1    3    3  502    0 -0.67933750053E+00 -0.35361004643E+02  0.50435700286E+02  0.61742160734E+02  0.41800000000E+01 0.  1.
         -5    1    3    3    0  502  0.77103966693E+02  0.95108305723E+02  0.19884254238E+03  0.23355179416E+03  0.41800000000E+01 0.  1.
        -11    1    1    2    0    0  0.21014850576E+01 -0.38451873126E+02  0.30718202342E+02  0.49260234890E+02  0.00000000000E+00 0.  1.
         11    1    1    2    0    0 -0.78526114250E+02 -0.21295427954E+02  0.21356618297E+03  0.22853962541E+03  0.00000000000E+00 0. -1.
</event>
<event>
 7    1  0.2522928E-009  0.1020127E+03  0.7561462E-02  0.1276119E+00
         -2   -1    0    0    0  501 -0.00000000000E+00  0.00000000000E+00  0.27745050617E+02  0.27745050617E+02  0.00000000000E+00 0.  1.
          2   -1    0    0  501    0  0.00000000000E+00 -0.00000000000E+00 -0.48932483896E+03  0.48932483896E+03  0.00000000000E+00 0. -1.
         25    2    1    2    0    0 -0.62379344906E+01 -0.49981150659E+02 -0.40057268252E+03  0.42266135332E+03  0.12508844216E+03 0.  0.
          5    1    3    3  502    0  0.33949734454E+02  0.28752214034E+02 -0.16736029878E+03  0.17322302471E+03  0.41800000000E+01 0.  1.
         -5    1    3    3    0  502 -0.40187668945E+02 -0.78733364693E+02 -0.23321238374E+03  0.24943832861E+03  0.41800000000E+01 0.  1.
        -11    1    1    2    0    0 -0.21933229739E+02  0.24154330076E+02 -0.19606868592E+02  0.38064780627E+02  0.00000000000E+00 0.  1.
         11    1    1    2    0    0  0.28171164230E+02  0.25826820583E+02 -0.41400237229E+02  0.56343755626E+02  0.00000000000E+00 0. -1.
</event>
<event>
 7    1  0.2522928E-009  0.1220810E+03  0.7561462E-02  0.1239703E+00
          2   -1    0    0  501    0  0.00000000000E+00  0.00000000000E+00  0.20282445341E+03  0.20282445341E+03  0.00000000000E+00 0. -1.
         -2   -1    0    0    0  501 -0.00000000000E+00 -0.00000000000E+00 -0.90551577547E+02  0.90551577547E+02  0.00000000000E+00 0.  1.
         25    2    1    2    0    0  0.50490899637E+02  0.59269905188E+02  0.37213699944E+02  0.15196925736E+03  0.12509013994E+03 0.  0.
          5    1    3    3  502    0 -0.27746771883E+02  0.61145925262E+02  0.57660316071E+01  0.67523529577E+02  0.41800000000E+01 0. -1.
         -5    1    3    3    0  502  0.78237671520E+02 -0.18760200739E+01  0.31447668337E+02  0.84445727778E+02  0.41800000000E+01 0. -1.
        -11    1    1    2    0    0 -0.21879374466E+02 -0.65649263681E+02  0.85763516725E+02  0.11019942672E+03  0.00000000000E+00 0. -1.
         11    1    1    2    0    0 -0.28611525171E+02  0.63793584934E+01 -0.10704340802E+02  0.31207346882E+02  0.00000000000E+00 0.  1.
</event>
<event>
 7    1  0.2522928E-009  0.1218699E+03  0.7561462E-02  0.1240044E+00
         -1   -1    0    0    0  501 -0.00000000000E+00  0.00000000000E+00  0.12640210214E+03  0.12640210214E+03  0.00000000000E+00 0.  1.
          1   -1    0    0  501    0  0.00000000000E+00 -0.00000000000E+00 -0.15343720946E+03  0.15343720946E+03  0.00000000000E+00 0. -1.
         25    2    1    2    0    0  0.47100464969E+02 -0.44662232679E+02  0.44333987490E+02  0.14773649278E+03  0.12508956801E+03 0.  0.
          5    1    3    3  502    0 -0.37271114611E+02  0.37826183159E+01  0.32251823895E+02  0.49609441946E+02  0.41800000000E+01 0.  1.
         -5    1    3    3    0  502  0.84371579580E+02 -0.48444850995E+02  0.12082163595E+02  0.98127050837E+02  0.41800000000E+01 0.  1.
        -11    1    1    2    0    0 -0.62771369007E+02  0.15479878013E+01 -0.27224559050E+02  0.68438422313E+02  0.00000000000E+00 0.  1.
         11    1    1    2    0    0  0.15670904037E+02  0.43114244878E+02 -0.44144535754E+02  0.63664396500E+02  0.00000000000E+00 0. -1.
</event>
<event>
 7    1  0.2669194E-009  0.9829439E+02  0.7561462E-02  0.1283924E+00
          1   -1    0    0  501    0  0.00000000000E+00  0.00000000000E+00  0.17688668530E+03  0.17688668530E+03  0.00000000000E+00 0. -1.
         -1   -1    0    0    0  501 -0.00000000000E+00 -0.00000000000E+00 -0.87059420510E+02  0.87059420510E+02  0.00000000000E+00 0.  1.
         25    2    1    2    0    0 -0.48322556440E+02  0.10478367090E+02  0.86903576514E+02  0.16014180190E+03  0.12509316315E+03 0.  0.
          5    1    3    3  502    0  0.37294419065E+02 -0.77979400487E+00  0.57801496244E+02  0.68920005369E+02  0.41800000000E+01 0.  1.
         -5    1    3    3    0  502 -0.85616975505E+02  0.11258161095E+02  0.29102080270E+02  0.91221796528E+02  0.41800000000E+01 0.  1.
        -11    1    1    2    0    0  0.23929509870E+02 -0.32075081007E+02  0.38523224461E+02  0.55547016906E+02  0.00000000000E+00 0. -1.
         11    1    1    2    0    0  0.24393046570E+02  0.21596713918E+02 -0.35599536183E+02  0.48257287009E+02  0.00000000000E+00 0.  1.
</event>
<event>
 7    1  0.2522928E-009  0.6665001E+02  0.7561462E-02  0.1371870E+00
         -2   -1    0    0    0  501 -0.00000000000E+00  0.00000000000E+00  0.18972506810E+02  0.18972506810E+02  0.00000000000E+00 0.  1.
          2   -1    0    0  501    0  0.00000000000E+00 -0.00000000000E+00 -0.11557189706E+04  0.11557189706E+04  0.00000000000E+00 0. -1.
         25    2    1    2    0    0 -0.15774359189E+02 -0.78805552872E+01 -0.99989954546E+03  0.10078477682E+04  0.12508832587E+03 0.  0.
          5    1    3    3  502    0  0.11571648380E+02  0.10952352541E+02 -0.93203352435E+03  0.93217907077E+03  0.41800000000E+01 0. -1.
         -5    1    3    3    0  502 -0.27346007569E+02 -0.18832907828E+02 -0.67866021113E+02  0.75668697418E+02  0.41800000000E+01 0. -1.
        -11    1    1    2    0    0  0.49141487883E+02  0.28882465280E+00 -0.11789318904E+03  0.12772538226E+03  0.00000000000E+00 0. -1.
         11    1    1    2    0    0 -0.33367128695E+02  0.75917306344E+01 -0.18953729308E+02  0.39118326984E+02  0.00000000000E+00 0.  1.
</event>
<event>
 7    1  0.2522928E-009  0.1251726E+03  0.7561462E-02  0.1234800E+00
         -2   -1    0    0    0  501 -0.00000000000E+00  0.00000000000E+00  0.45256204920E+02  0.45256204920E+02  0.00000000000E+00 0.  1.
          2   -1    0    0  501    0  0.00000000000E+00 -0.00000000000E+00 -0.65624952863E+03  0.65624952863E+03  0.00000000000E+00 0. -1.
         25    2    1    2    0    0 -0.36609965479E+02 -0.93330393469E+02 -0.50299987262E+03  0.52792721837E+03  0.12508966434E+03 0.  0.
          5    1    3    3  502    0 -0.25951579486E+02  0.35282658142E+01 -0.31517304019E+03  0.31628697538E+03  0.41800000000E+01 0. -1.
         -5    1    3    3    0  502 -0.10658385993E+02 -0.96858659284E+02 -0.18782683244E+03  0.21164024299E+03  0.41800000000E+01 0. -1.
        -11    1    1    2    0    0  0.46343900761E+02  0.17033419913E+02 -0.75207335854E+02  0.89966871113E+02  0.00000000000E+00 0. -1.
         11    1    1    2    0    0 -0.97339352824E+01  0.76296973557E+02 -0.32786115229E+02  0.83611644057E+02  0.00000000000E+00 0.  1.
</event>
<event>
 7    1  0.2522928E-009  0.1347055E+03  0.7561462E-02  0.1220636E+00
         -1   -1    0    0    0  501 -0.00000000000E+00  0.00000000000E+00  0.63378484852E+02  0.63378484852E+02  0.00000000000E+00 0.  1.
          1   -1    0    0  501    0  0.00000000000E+00 -0.00000000000E+00 -0.39038416662E+03  0.39038416662E+03  0.00000000000E+00 0. -1.
         25    2    1    2    0    0 -0.10940990692E+03 -0.23262766840E+01 -0.12745535489E+03  0.20944728112E+03  0.12508939515E+03 0.  0.
          5    1    3    3  502    0 -0.16260672803E+00 -0.38766503706E+02 -0.71272381711E+02  0.81240956698E+02  0.41800000000E+01 0. -1.
         -5    1    3    3    0  502 -0.10924730019E+03  0.36440227022E+02 -0.56182973183E+02  0.12820632442E+03  0.41800000000E+01 0. -1.
        -11    1    1    2    0    0  0.77808335211E+02  0.18060867210E+02 -0.19236459409E+03  0.20828938766E+03  0.00000000000E+00 0. -1.
         11    1    1    2    0    0  0.31601571711E+02 -0.15734590526E+02 -0.71857327854E+01  0.36025982697E+02  0.00000000000E+00 0.  1.
</event>
<event>
 7    1  0.2522928E-009  0.1212808E+03  0.7561462E-02  0.1240999E+00
          2   -1    0    0  501    0  0.00000000000E+00  0.00000000000E+00  0.68698168249E+03  0.68698168249E+03  0.00000000000E+00 0. -1.
         -2   -1    0    0    0  501 -0.00000000000E+00 -0.00000000000E+00 -0.23910681605E+02  0.23910681605E+02  0.00000000000E+00 0.  1.
         25    2    1    2    0    0 -0.56383563347E+02 -0.26598715251E+02  0.29290520567E+03  0.32454302167E+03  0.12509242797E+03 0.  0.
          5    1    3    3  502    0 -0.18009016921E+01  0.43070238404E+02  0.50924754818E+02  0.66851265780E+02  0.41800000000E+01 0. -1.
         -5    1    3    3    0  502 -0.54582661655E+02 -0.69668953655E+02  0.24198045085E+03  0.25769175589E+03  0.41800000000E+01 0. -1.
        -11    1    1    2    0    0  0.49302948041E+02 -0.27252583694E+02  0.18827423398E+03  0.19652142678E+03  0.00000000000E+00 0.  1.
         11    1    1    2    0    0  0.70806153063E+01  0.53851298945E+02  0.18189156124E+03  0.18982791565E+03  0.00000000000E+00 0. -1.
</event>
<event>
 7    1  0.2522928E-009  0.2029592E+03  0.7561462E-02  0.1147266E+00
          2   -1    0    0  501    0  0.00000000000E+00  0.00000000000E+00  0.66839596731E+03  0.66839596731E+03  0.00000000000E+00 0. -1.
         -2   -1    0    0    0  501 -0.00000000000E+00 -0.00000000000E+00 -0.16947701322E+03  0.16947701322E+03  0.00000000000E+00 0.  1.
         25    2    1    2    0    0 -0.14621389516E+02  0.19355988640E+03  0.56768196334E+03  0.61285490376E+03  0.12509639044E+03 0.  0.
          5    1    3    3  502    0 -0.43615525308E+01  0.84357934762E+02  0.93244627948E+02  0.12588612846E+03  0.41800000000E+01 0.  1.
         -5    1    3    3    0  502 -0.10259836985E+02  0.10920195164E+03  0.47443733540E+03  0.48696877530E+03  0.41800000000E+01 0.  1.
        -11    1    1    2    0    0  0.45230712562E+02 -0.63457554581E+02 -0.42654156784E+02  0.88837242659E+02  0.00000000000E+00 0.  1.
         11    1    1    2    0    0 -0.30609323046E+02 -0.13010233182E+03 -0.26108852471E+02  0.13618083411E+03  0.00000000000E+00 0. -1.
</event>
<event>
 7    1  0.2522928E-009  0.9383790E+02  0.7561462E-02  0.1293815E+00
          1   -1    0    0  501    0  0.00000000000E+00  0.00000000000E+00  0.55629089983E+03  0.55629089983E+03  0.00000000000E+00 0. -1.
         -1   -1    0    0    0  501 -0.00000000000E+00 -0.00000000000E+00 -0.28245695095E+02  0.28245695095E+02  0.00000000000E+00 0.  1.
         25    2    1    2    0    0  0.47824250804E+01 -0.55688899812E+02  0.37410111989E+03  0.39840001540E+03  0.12508716649E+03 0.  0.
          5    1    3    3  502    0 -0.40676167184E+01 -0.84416150076E+02  0.34871186448E+03  0.35883153252E+03  0.41800000000E+01 0. -1.
         -5    1    3    3    0  502  0.88500417988E+01  0.28727250265E+02  0.25389255403E+02  0.39568482881E+02  0.41800000000E+01 0. -1.
        -11    1    1    2    0    0  0.18202470635E+02  0.42441906770E+02  0.15275273309E+03  0.15958083485E+03  0.00000000000E+00 0.  1.
         11    1    1    2    0    0 -0.22984895716E+02  0.13246993042E+02  0.11913517588E+01  0.26555744665E+02  0.00000000000E+00 0. -1.
</event>
<event>
 7    1  0.2522928E-009  0.9960613E+02  0.7561462E-02  0.1281126E+00
         -2   -1    0    0    0  501 -0.00000000000E+00  0.00000000000E+00  0.23561722328E+02  0.23561722328E+02  0.00000000000E+00 0.  1.
          2   -1    0    0  501    0  0.00000000000E+00 -0.00000000000E+00 -0.11558724954E+04  0.11558724954E+04  0.00000000000E+00 0. -1.
         25    2    1    2    0    0  0.44191217046E+02 -0.38917640422E+02 -0.10020657767E+04  0.10115600212E+04  0.12510159626E+03 0.  0.
          5    1    3    3  502    0  0.22123253133E+02 -0.59359774026E+02 -0.94308437395E+03  0.94521882646E+03  0.41800000000E+01 0. -1.
         -5    1    3    3    0  502  0.22067963913E+02  0.20442133603E+02 -0.58981402718E+02  0.66341194774E+02  0.41800000000E+01 0. -1.
        -11    1    1    2    0    0 -0.19724045653E+02 -0.27917960539E+02 -0.50569226893E+02  0.61038489547E+02  0.00000000000E+00 0.  1.
         11    1    1    2    0    0 -0.24467171393E+02  0.66835600962E+02 -0.79675769508E+02  0.10683570695E+03  0.00000000000E+00 0. -1.
</event>
<event>
 7    1  0.2522928E-009  0.1295317E+03  0.7561462E-02  0.1228152E+00
          1   -1    0    0  501    0  0.00000000000E+00  0.00000000000E+00  0.17319252838E+03  0.17319252838E+03  0.00000000000E+00 0. -1.
         -1   -1    0    0    0  501 -0.00000000000E+00 -0.00000000000E+00 -0.15785248223E+03  0.15785248223E+03  0.00000000000E+00 0.  1.
         25    2    1    2    0    0 -0.72151855202E+02 -0.27694682473E+02 -0.90075186475E+02  0.17243498820E+03  0.12508956907E+03 0.  0.
          5    1    3    3  502    0  0.34629819313E+02 -0.13419361104E+02 -0.11759529940E+02  0.39179874713E+02  0.41800000000E+01 0.  1.
         -5    1    3    3    0  502 -0.10678167452E+03 -0.14275321369E+02 -0.78315656534E+02  0.13325511349E+03  0.41800000000E+01 0.  1.
        -11    1    1    2    0    0  0.37560209388E+02 -0.29006787993E+02  0.66279119785E+02  0.81517389546E+02  0.00000000000E+00 0.  1.
         11    1    1    2    0    0  0.34591645814E+02  0.56701470466E+02  0.39136112837E+02  0.77092632859E+02  0.00000000000E+00 0. -1.
</event>
<event>
 7    1  0.2522928E-009  0.2907033E+03  0.7561462E-02  0.1089983E+00
          2   -1    0    0  501    0  0.00000000000E+00  0.00000000000E+00  0.15440502237E+04  0.15440502237E+04  0.00000000000E+00 0. -1.
         -2   -1    0    0    0  501 -0.00000000000E+00 -0.00000000000E+00 -0.65983240176E+02  0.65983240176E+02  0.00000000000E+00 0.  1.
         25    2    1    2    0    0 -0.11333328144E+02  0.28249259430E+03  0.50065133969E+03  0.58841244448E+03  0.12508769214E+03 0.  0.
          5    1    3    3  502    0 -0.44535372498E+02  0.18764913814E+03  0.23302629323E+03  0.30251334547E+03  0.41800000000E+01 0. -1.
         -5    1    3    3    0  502  0.33202044354E+02  0.94843456162E+02  0.26762504646E+03  0.28589909902E+03  0.41800000000E+01 0. -1.
        -11    1    1    2    0    0 -0.95757324654E+01 -0.24343726490E+03  0.71184124995E+03  0.75237714062E+03  0.00000000000E+00 0.  1.
         11    1    1    2    0    0  0.20909060610E+02 -0.39055329397E+02  0.26557439386E+03  0.26924387875E+03  0.00000000000E+00 0. -1.
</event>
<event>
 7    1  0.2522928E-009  0.1174330E+03  0.7561462E-02  0.1247393E+00
         -2   -1    0    0    0  501 -0.00000000000E+00  0.00000000000E+00  0.10420150655E+03  0.10420150655E+03  0.00000000000E+00 0.  1.
          2   -1    0    0  501    0  0.00000000000E+00 -0.00000000000E+00 -0.17044827718E+03  0.17044827718E+03  0.00000000000E+00 0. -1.
         25    2    1    2    0    0 -0.95514357068E+01 -0.76761784403E+02 -0.48653509105E+02  0.15491110998E+03  0.12508671624E+03 0.  0.
          5    1    3    3  502    0  0.34969344177E+02 -0.68826770793E+02  0.12935133508E+02  0.78388580092E+02  0.41800000000E+01 0. -1.
         -5    1    3    3    0  502 -0.44520779883E+02 -0.79350136104E+01 -0.61588642612E+02  0.76522529893E+02  0.41800000000E+01 0. -1.
        -11    1    1    2    0    0 -0.32512592199E+02  0.57093296781E+02  0.88610361140E+01  0.66296539501E+02  0.00000000000E+00 0.  1.
         11    1    1    2    0    0  0.42064027905E+02  0.19668487623E+02 -0.26454297637E+02  0.53442134243E+02  0.00000000000E+00 0. -1.
</event>
<event>
 7    1  0.2522928E-009  0.1264274E+03  0.7561462E-02  0.1232855E+00
          1   -1    0    0  501    0  0.00000000000E+00  0.00000000000E+00  0.11678726284E+04  0.11678726284E+04  0.00000000000E+00 0. -1.
         -1   -1    0    0    0  501 -0.00000000000E+00 -0.00000000000E+00 -0.17350366615E+02  0.17350366615E+02  0.00000000000E+00 0.  1.
         25    2    1    2    0    0 -0.33482699637E+02  0.68838197388E+02  0.84547437529E+03  0.85809957456E+03  0.12509265363E+03 0.  0.
          5    1    3    3  502    0 -0.77943244414E+02  0.63609927129E+02  0.53595857319E+03  0.54533516002E+03  0.41800000000E+01 0. -1.
         -5    1    3    3    0  502  0.44460544776E+02  0.52282702593E+01  0.30951580210E+03  0.31276441454E+03  0.41800000000E+01 0. -1.
        -11    1    1    2    0    0  0.51118428628E+02 -0.19339067342E+02  0.86284922651E+02  0.10213804946E+03  0.00000000000E+00 0.  1.
         11    1    1    2    0    0 -0.17635728990E+02 -0.49499130046E+02  0.21876296387E+03  0.22498537102E+03  0.00000000000E+00 0. -1.
</event>
<event>
 7    1  0.2522928E-009  0.7438928E+02  0.7561462E-02  0.1345773E+00
         -2   -1    0    0    0  501 -0.00000000000E+00  0.00000000000E+00  0.54186424527E+02  0.54186424527E+02  0.00000000000E+00 0.  1.
          2   -1    0    0  501    0  0.00000000000E+00 -0.00000000000E+00 -0.28097765043E+03  0.28097765043E+03  0.00000000000E+00 0. -1.
         25    2    1    2    0    0 -0.31554720096E+02 -0.36828844809E+02 -0.17282633562E+03  0.21878807871E+03  0.12508883616E+03 0.  0.
          5    1    3    3  502    0  0.19748502669E+02 -0.13769975600E+02 -0.15879867044E+03  0.16066768723E+03  0.41800000000E+01 0. -1.
         -5    1    3    3    0  502 -0.51303222765E+02 -0.23058869208E+02 -0.14027665175E+02  0.58120391478E+02  0.41800000000E+01 0. -1.
        -11    1    1    2    0    0  0.19850244445E+02 -0.81544694451E+01 -0.65128606110E+02  0.68573047987E+02  0.00000000000E+00 0. -1.
         11    1    1    2    0    0  0.11704475651E+02  0.44983314254E+02  0.11163715825E+02  0.47802948262E+02  0.00000000000E+00 0.  1.
</event>
<event>
 7    1  0.2522928E-009  0.8717632E+02  0.7561462E-02  0.1309837E+00
         -1   -1    0    0    0  501 -0.00000000000E+00  0.00000000000E+00  0.16932023782E+03  0.16932023782E+03  0.00000000000E+00 0.  1.
          1   -1    0    0  501    0  0.00000000000E+00 -0.00000000000E+00 -0.80773802915E+02  0.80773802915E+02  0.00000000000E+00 0. -1.
         25    2    1    2    0    0  0.33130394821E+02  0.13491121871E+02  0.70901934194E+02  0.14816479947E+03  0.12508433195E+03 0.  0.
          5    1    3    3  502    0  0.55459765072E+01  0.44891236217E+02  0.90918830836E+02  0.10163506848E+03  0.41800000000E+01 0.  1.
         -5    1    3    3    0  502  0.27584418314E+02 -0.31400114346E+02 -0.20016896643E+02  0.46529730988E+02  0.41800000000E+01 0.  1.
        -11    1    1    2    0    0 -0.79086246969E+01 -0.45494005464E+02  0.34695587025E+02  0.57758416155E+02  0.00000000000E+00 0.  1.
         11    1    1    2    0    0 -0.25221770124E+02  0.32002883592E+02 -0.17051086314E+02  0.44170825110E+02  0.00000000000E+00 0. -1.
</event>
<event>
 7    1  0.2522928E-009  0.9894283E+02  0.7561462E-02  0.1282535E+00
          1   -1    0    0  501    0  0.00000000000E+00  0.00000000000E+00  0.11831121962E+03  0.11831121962E+03  0.00000000000E+00 0. -1.
         -1   -1    0    0    0  501 -0.00000000000E+00 -0.00000000000E+00 -0.15151630388E+03  0.15151630388E+03  0.00000000000E+00 0.  1.
         25    2    1    2    0    0 -0.76159923931E+02 -0.31299518693E+01 -0.59014099089E+02  0.15791880438E+03  0.12508219008E+03 0.  0.
          5    1    3    3  502    0 -0.87400560324E+02  0.24167683129E+02 -0.80371001911E+02  0.12124316558E+03  0.41800000000E+01 0. -1.
         -5    1    3    3    0  502  0.11240636393E+02 -0.27297634999E+02  0.21356902822E+02  0.36675638797E+02  0.41800000000E+01 0. -1.
        -11    1    1    2    0    0  0.26324451294E+02  0.72011366003E+01 -0.27552733617E+02  0.38781261377E+02  0.00000000000E+00 0.  1.
         11    1    1    2    0    0  0.49835472637E+02 -0.40711847310E+01  0.53361748451E+02  0.73127457742E+02  0.00000000000E+00 0. -1.
</event>
<event>
 7    1  0.2522928E-009  0.1552574E+03  0.7561462E-02  0.1194158E+00
          1   -1    0    0  501    0  0.00000000000E+00  0.00000000000E+00  0.10346808704E+04  0.10346808704E+04  0.00000000000E+00 0. -1.
         -1   -1    0    0    0  501 -0.00000000000E+00 -0.00000000000E+00 -0.59655383524E+02  0.59655383524E+02  0.00000000000E+00 0.  1.
         25    2    1    2    0    0  0.22633523135E+02 -0.12106817010E+03  0.91094880805E+03  0.92770931821E+03  0.12508824897E+03 0.  0.
          5    1    3    3  502    0 -0.61083075436E+01  0.21413000983E+02  0.54784121250E+02  0.59284065087E+02  0.41800000000E+01 0.  1.
         -5    1    3    3    0  502  0.28741830679E+02 -0.14248117108E+03  0.85616468680E+03  0.86842525312E+03  0.41800000000E+01 0.  1.
        -11    1    1    2    0    0  0.22374934196E+02  0.74061455792E+02  0.65740012503E+02  0.10152579061E+03  0.00000000000E+00 0.  1.
         11    1    1    2    0    0 -0.45008457331E+02  0.47006714306E+02 -0.16633336298E+01  0.65101145151E+02  0.00000000000E+00 0. -1.
</event>
<event>
 7    1  0.2522928E-009  0.7312009E+02  0.7561462E-02  0.1349793E+00
          4   -1    0    0  501    0  0.00000000000E+00  0.00000000000E+00  0.10379577650E+03  0.10379577650E+03  0.00000000000E+00 0. -1.
         -4   -1    0    0    0  501 -0.00000000000E+00 -0.00000000000E+00 -0.14352532569E+03  0.14352532569E+03  0.00000000000E+00 0.  1.
         25    2    1    2    0    0  0.42309666543E+02  0.20571679519E+02 -0.53415010742E+02  0.14391403534E+03  0.12507911222E+03 0.  0.
          5    1    3    3  502    0  0.20053056020E+02  0.27764381797E+02 -0.92191698257E+02  0.98436617068E+02  0.41800000000E+01 0. -1.
         -5    1    3    3    0  502  0.22256610523E+02 -0.71927022776E+01  0.38776687515E+02  0.45477418272E+02  0.41800000000E+01 0. -1.
        -11    1    1    2    0    0  0.15479403096E+02 -0.25656297493E+02 -0.20280902771E+02  0.36182489390E+02  0.00000000000E+00 0.  1.
         11    1    1    2    0    0 -0.57789069639E+02  0.50846179738E+01  0.33966364316E+02  0.67224577459E+02  0.00000000000E+00 0. -1.
</event>
<event>
 7    1  0.2522928E-009  0.9549496E+02  0.7561462E-02  0.1290065E+00
          1   -1    0    0  501    0  0.00000000000E+00  0.00000000000E+00  0.43280015223E+02  0.43280015223E+02  0.00000000000E+00 0. -1.
         -1   -1    0    0    0  501 -0.00000000000E+00 -0.00000000000E+00 -0.33958125232E+03  0.33958125232E+03  0.00000000000E+00 0.  1.
         25    2    1    2    0    0  0.54332015553E+02  0.11189865554E+02 -0.17258802723E+03  0.22025249977E+03  0.12508939007E+03 0.  0.
          5    1    3    3  502    0  0.74163086016E+02  0.20045835613E+02 -0.41706093424E+02  0.87514967186E+02  0.41800000000E+01 0.  1.
         -5    1    3    3    0  502 -0.19831070463E+02 -0.88559700585E+01 -0.13088193380E+03  0.13273753259E+03  0.41800000000E+01 0.  1.
        -11    1    1    2    0    0 -0.56135985848E+02  0.20821030450E+02 -0.11456612371E+03  0.12926778763E+03  0.00000000000E+00 0.  1.
         11    1    1    2    0    0  0.18039702950E+01 -0.32010896004E+02 -0.91470861619E+01  0.33340980145E+02  0.00000000000E+00 0. -1.
</event>
<event>
 7    1  0.2522928E-009  0.1149556E+03  0.7561462E-02  0.1251659E+00
         -1   -1    0    0    0  501 -0.00000000000E+00  0.00000000000E+00  0.52040526240E+02  0.52040526240E+02  0.00000000000E+00 0.  1.
          1   -1    0    0  501    0  0.00000000000E+00 -0.00000000000E+00 -0.32116199506E+03  0.32116199506E+03  0.00000000000E+00 0. -1.
         25    2    1    2    0    0  0.70425013047E+02  0.14715634143E+01 -0.12456276446E+03  0.19006547507E+03  0.12508858685E+03 0.  0.
          5    1    3    3  502    0  0.40728565039E+02  0.47450602026E+02 -0.11950058553E+03  0.13493790418E+03  0.41800000000E+01 0.  1.
         -5    1    3    3    0  502  0.29696448008E+02 -0.45979038611E+02 -0.50621789314E+01  0.55127570883E+02  0.41800000000E+01 0.  1.
        -11    1    1    2    0    0  0.15594923414E+02 -0.18975221595E+02 -0.28602380100E+02  0.37700886173E+02  0.00000000000E+00 0. -1.
         11    1    1    2    0    0 -0.86019936461E+02  0.17503658181E+02 -0.11595632426E+03  0.14543616006E+03  0.00000000000E+00 0.  1.
</event>
<event>
 7    1  0.2522928E-009  0.1146568E+03  0.7561462E-02  0.1252181E+00
          2   -1    0    0  501    0  0.00000000000E+00  0.00000000000E+00  0.66593548947E+03  0.66593548947E+03  0.00000000000E+00 0. -1.
         -2   -1    0    0    0  501 -0.00000000000E+00 -0.00000000000E+00 -0.29944411525E+02  0.29944411525E+02  0.00000000000E+00 0.  1.
         25    2    1    2    0    0  0.63746271875E+02  0.51663114198E+02  0.43981490501E+03  0.46456116372E+03  0.12508900681E+03 0.  0.
          5    1    3    3  502    0  0.74612777878E+02  0.83592029101E+01  0.11997005489E+03  0.14158823880E+03  0.41800000000E+01 0. -1.
         -5    1    3    3    0  502 -0.10866506002E+02  0.43303911287E+02  0.31984485012E+03  0.32297292493E+03  0.41800000000E+01 0. -1.
        -11    1    1    2    0    0 -0.37083307914E+02 -0.68392619372E+02  0.82636998232E+02  0.11349711709E+03  0.00000000000E+00 0.  1.
         11    1    1    2    0    0 -0.26662963962E+02  0.16729505174E+02  0.11353917470E+03  0.11782162018E+03  0.00000000000E+00 0. -1.
</event>
<event>
 7    1  0.2522928E-009  0.1381107E+03  0.7561462E-02  0.1215894E+00
         -1   -1    0    0    0  501 -0.00000000000E+00  0.00000000000E+00  0.76255926341E+02  0.76255926341E+02  0.00000000000E+00 0.  1.
          1   -1    0    0  501    0  0.00000000000E+00 -0.00000000000E+00 -0.28453816225E+03  0.28453816225E+03  0.00000000000E+00 0. -1.
         25    2    1    2    0    0  0.85598441525E+02 -0.56977791035E+02 -0.11664605386E+03  0.19957930189E+03  0.12510808927E+03 0.  0.
          5    1    3    3  502    0 -0.35743484311E+01  0.33464357583E+02 -0.33799736569E+02  0.47880411311E+02  0.41800000000E+01 0. -1.
         -5    1    3    3    0  502  0.89172789956E+02 -0.90442148618E+02 -0.82846317292E+02  0.15169889058E+03  0.41800000000E+01 0. -1.
        -11    1    1    2    0    0 -0.44538325007E+02 -0.56161204523E+00  0.11662558154E+01  0.44557131361E+02  0.00000000000E+00 0.  1.
         11    1    1    2    0    0 -0.41060116518E+02  0.57539403080E+02 -0.92802437865E+02  0.11665765534E+03  0.00000000000E+00 0. -1.
</event>
<event>
 7    1  0.2522928E-009  0.4185002E+03  0.7561462E-02  0.1037556E+00
          1   -1    0    0  501    0  0.00000000000E+00  0.00000000000E+00  0.10423830228E+04  0.10423830228E+04  0.00000000000E+00 0. -1.
         -1   -1    0    0    0  501 -0.00000000000E+00 -0.00000000000E+00 -0.20305634226E+03  0.20305634226E+03  0.00000000000E+00 0.  1.
         25    2    1    2    0    0  0.38576976851E+03  0.14243076061E+03  0.18644604433E+03  0.46852316200E+03  0.12508792914E+03 0.  0.
          5    1    3    3  502    0  0.32724405095E+03  0.78708094360E+02  0.11333038615E+03  0.35516880751E+03  0.41800000000E+01 0.  1.
         -5    1    3    3    0  502  0.58525717555E+02  0.63722666253E+02  0.73115658185E+02  0.11335435449E+03  0.41800000000E+01 0.  1.
        -11    1    1    2    0    0 -0.19420743104E+03 -0.47257364645E+02  0.24354785160E+03  0.31506402652E+03  0.00000000000E+00 0. -1.
         11    1    1    2    0    0 -0.19156233747E+03 -0.95173395968E+02  0.40933278461E+03  0.46185217656E+03  0.00000000000E+00 0.  1.
</event>
<event>
 7    1  0.2522928E-009  0.1083683E+03  0.7561462E-02  0.1263622E+00
         -2   -1    0    0    0  501 -0.00000000000E+00  0.00000000000E+00  0.25285461122E+02  0.25285461122E+02  0.00000000000E+00 0.  1.
          2   -1    0    0  501    0  0.00000000000E+00 -0.00000000000E+00 -0.69658642652E+03  0.69658642652E+03  0.00000000000E+00 0. -1.
         25    2    1    2    0    0  0.38452835339E+02 -0.39700945174E+02 -0.52037397976E+03  0.53804410375E+03  0.12509034003E+03 0.  0.
          5    1    3    3  502    0  0.64891652613E+02  0.97488470438E+01 -0.39767779635E+03  0.40307700096E+03  0.41800000000E+01 0.  1.
         -5    1    3    3    0  502 -0.26438817274E+02 -0.49449792218E+02 -0.12269618342E+03  0.13496710278E+03  0.41800000000E+01 0.  1.
        -11    1    1    2    0    0 -0.56522738073E+02  0.64226703517E+01 -0.48953011705E+02  0.75049769945E+02  0.00000000000E+00 0.  1.
         11    1    1    2    0    0  0.18069902735E+02  0.33278274823E+02 -0.10197397393E+03  0.10877801395E+03  0.00000000000E+00 0. -1.
</event>
<event>
 7    1  0.2522928E-009  0.1095591E+03  0.7561462E-02  0.1261389E+00
          3   -1    0    0  501    0  0.00000000000E+00  0.00000000000E+00  0.10451128290E+02  0.10451128290E+02  0.00000000000E+00 0. -1.
         -3   -1    0    0    0  501 -0.00000000000E+00 -0.00000000000E+00 -0.16056449347E+04  0.16056449347E+04  0.00000000000E+00 0.  1.
         25    2    1    2    0    0  0.34222789695E+01 -0.42293903574E+02 -0.12097960217E+04  0.12169860497E+04  0.12509254554E+03 0.  0.
          5    1    3    3  502    0  0.57615293743E+02 -0.39745822602E+02 -0.47123729279E+03  0.47642555662E+03  0.41800000000E+01 0.  1.
         -5    1    3    3    0  502 -0.54193014774E+02 -0.25480809719E+01 -0.73855872887E+03  0.74056049311E+03  0.41800000000E+01 0.  1.
        -11    1    1    2    0    0  0.34748007849E+02  0.44371540453E+02 -0.30403734792E+03  0.30921669842E+03  0.00000000000E+00 0.  1.
         11    1    1    2    0    0 -0.38170286818E+02 -0.20776368791E+01 -0.81360436821E+02  0.89893314826E+02  0.00000000000E+00 0. -1.
</event>
<event>
 7    1  0.2522928E-009  0.1037433E+03  0.7561462E-02  0.1272616E+00
         -2   -1    0    0    0  501 -0.00000000000E+00  0.00000000000E+00  0.11338533041E+03  0.11338533041E+03  0.00000000000E+00 0.  1.
          2   -1    0    0  501    0  0.00000000000E+00 -0.00000000000E+00 -0.13785189223E+03  0.13785189223E+03  0.00000000000E+00 0. -1.
         25    2    1    2    0    0  0.48552374284E+02  0.37217986345E+02 -0.62110880006E+01  0.13938356159E+03  0.12508672221E+03 0.  0.
          5    1    3    3  502    0 -0.26875308317E+02 -0.27632488362E+02  0.54040629881E+01  0.39147323114E+02  0.41800000000E+01 0. -1.
         -5    1    3    3    0  502  0.75427682600E+02  0.64850474707E+02 -0.11615150989E+02  0.10023623848E+03  0.41800000000E+01 0. -1.
        -11    1    1    2    0    0 -0.33651766979E+02 -0.54849609930E+01  0.34504324711E+02  0.48508500716E+02  0.00000000000E+00 0.  1.
         11    1    1    2    0    0 -0.14900607304E+02 -0.31733025352E+02 -0.52759798528E+02  0.63345160326E+02  0.00000000000E+00 0. -1.
</event>
<event>
 7    1  0.2522928E-009  0.9102323E+02  0.7561462E-02  0.1300393E+00
          2   -1    0    0  501    0  0.00000000000E+00  0.00000000000E+00  0.73604289629E+03  0.73604289629E+03  0.00000000000E+00 0. -1.
         -2   -1    0    0    0  501 -0.00000000000E+00 -0.00000000000E+00 -0.18593964211E+02  0.18593964211E+02  0.00000000000E+00 0.  1.
         25    2    1    2    0    0  0.40816600805E+02 -0.53388604249E+00  0.45150327736E+03  0.47028538866E+03  0.12508739899E+03 0.  0.
          5    1    3    3  502    0  0.28660060385E+02  0.36683249116E+02  0.56509171052E+02  0.73333611939E+02  0.41800000000E+01 0.  1.
         -5    1    3    3    0  502  0.12156540420E+02 -0.37217135159E+02  0.39499410631E+03  0.39695177672E+03  0.41800000000E+01 0.  1.
        -11    1    1    2    0    0 -0.31773994542E+02  0.42465705149E+02  0.10298498154E+03  0.11583967052E+03  0.00000000000E+00 0.  1.
         11    1    1    2    0    0 -0.90426062628E+01 -0.41931819107E+02  0.16296067318E+03  0.16851180132E+03  0.00000000000E+00 0. -1.
</event>
<event>
 7    1  0.2522928E-009  0.1000886E+03  0.7561462E-02  0.1280110E+00
         -2   -1    0    0    0  501 -0.00000000000E+00  0.00000000000E+00  0.14340586574E+02  0.14340586574E+02  0.00000000000E+00 0.  1.
          2   -1    0    0  501    0  0.00000000000E+00 -0.00000000000E+00 -0.99448958995E+03  0.99448958995E+03  0.00000000000E+00 0. -1.
         25    2    1    2    0    0 -0.33015656599E+02 -0.23269085745E+02 -0.68475122726E+03  0.69725036328E+03  0.12506934846E+03 0.  0.
          5    1    3    3  502    0 -0.19725861620E+02 -0.59583613826E+02 -0.60761841202E+03  0.61086571657E+03  0.41800000000E+01 0.  1.
         -5    1    3    3    0  502 -0.13289794979E+02  0.36314528081E+02 -0.77132815246E+02  0.86384646715E+02  0.41800000000E+01 0.  1.
        -11    1    1    2    0    0 -0.92660524634E+01  0.48342072625E+02 -0.12895100857E+03  0.13802600597E+03  0.00000000000E+00 0. -1.
         11    1    1    2    0    0  0.42281709062E+02 -0.25072986881E+02 -0.16644676754E+03  0.17355380726E+03  0.00000000000E+00 0.  1.
</event>
<event>
 7    1  0.2534133E-009  0.1372310E+03  0.7561462E-02  0.1217104E+00
         -2   -1    0    0    0  501 -0.00000000000E+00  0.00000000000E+00  0.29641591556E+02  0.29641591556E+02  0.00000000000E+00 0.  1.
          2   -1    0    0  501    0  0.00000000000E+00 -0.00000000000E+00 -0.74991460460E+03  0.74991460460E+03  0.00000000000E+00 0. -1.
         25    2    1    2    0    0  0.30441198779E+02  0.95076346063E+02 -0.44414511461E+03  0.47210011035E+03  0.12508978055E+03 0.  0.
          5    1    3    3  502    0  0.70295941832E+02  0.60705899614E+02 -0.17852595271E+03  0.20128515563E+03  0.41800000000E+01 0.  1.
         -5    1    3    3    0  502 -0.39854743053E+02  0.34370446449E+02 -0.26561916190E+03  0.27081495472E+03  0.41800000000E+01 0.  1.
        -11    1    1    2    0    0 -0.49037912379E+01 -0.10209243683E+03 -0.17258946112E+03  0.20058423397E+03  0.00000000000E+00 0.  1.
         11    1    1    2    0    0 -0.25537407542E+02  0.70160907661E+01 -0.10353843732E+03  0.10687185184E+03  0.00000000000E+00 0. -1.
</event>
<event>
 7    1  0.2522928E-009  0.1100831E+03  0.7561462E-02  0.1260416E+00
         -1   -1    0    0    0  501 -0.00000000000E+00  0.00000000000E+00  0.58215488785E+02  0.58215488785E+02  0.00000000000E+00 0.  1.
          1   -1    0    0  501    0  0.00000000000E+00 -0.00000000000E+00 -0.23724188295E+03  0.23724188295E+03  0.00000000000E+00 0. -1.
         25    2    1    2    0    0  0.20821798762E+01  0.41950709538E+02 -0.12104443312E+03  0.17904924659E+03  0.12507070166E+03 0.  0.
          5    1    3    3  502    0 -0.56449664679E+02  0.35336327323E+01 -0.30119683585E+02  0.64216189095E+02  0.41800000000E+01 0.  1.
         -5    1    3    3    0  502  0.58531844555E+02  0.38417076806E+02 -0.90924749531E+02  0.11483305750E+03  0.41800000000E+01 0.  1.
        -11    1    1    2    0    0  0.40002650771E+02 -0.12363975881E+02 -0.48542550463E+02  0.64105063558E+02  0.00000000000E+00 0. -1.
         11    1    1    2    0    0 -0.42084830647E+02 -0.29586733657E+02 -0.94394105894E+01  0.52303061587E+02  0.00000000000E+00 0.  1.
</event>
<event>
 7    1  0.2522928E-009  0.1524135E+03  0.7561462E-02  0.1197538E+00
          1   -1    0    0  501    0  0.00000000000E+00  0.00000000000E+00  0.33993684677E+03  0.33993684677E+03  0.00000000000E+00 0. -1.
         -1   -1    0    0    0  501 -0.00000000000E+00 -0.00000000000E+00 -0.82120753900E+02  0.82120753900E+02  0.00000000000E+00 0.  1.
         25    2    1    2    0    0  0.92290640419E+01  0.11148589205E+03  0.20600965280E+03  0.26571088870E+03  0.12509204441E+03 0.  0.
          5    1    3    3  502    0 -0.45324665324E+02  0.10015961640E+03  0.11686143025E+03  0.16050028138E+03  0.41800000000E+01 0. -1.
         -5    1    3    3    0  502  0.54553729366E+02  0.11326275657E+02  0.89148222551E+02  0.10521060732E+03  0.41800000000E+01 0. -1.
        -11    1    1    2    0    0 -0.37551639422E+02 -0.10259432760E+03  0.16942348210E+02  0.11055661374E+03  0.00000000000E+00 0.  1.
         11    1    1    2    0    0  0.28322575380E+02 -0.88915644508E+01  0.34864091859E+02  0.45790098228E+02  0.00000000000E+00 0. -1.
</event>
<event>
 7    1  0.2522928E-009  0.1288826E+03  0.7561462E-02  0.1229123E+00
          1   -1    0    0  501    0  0.00000000000E+00  0.00000000000E+00  0.20894899924E+04  0.20894899924E+04  0.00000000000E+00 0. -1.
         -1   -1    0    0    0  501 -0.00000000000E+00 -0.00000000000E+00 -0.23584692100E+02  0.23584692100E+02  0.00000000000E+00 0.  1.
         25    2    1    2    0    0 -0.76833019354E+02  0.57850513883E+02  0.18673862288E+04  0.18740408381E+04  0.12509092937E+03 0.  0.
          5    1    3    3  502    0  0.23214144990E+02  0.49714613413E+02  0.51611249303E+03  0.51903758744E+03  0.41800000000E+01 0. -1.
         -5    1    3    3    0  502 -0.10004716434E+03  0.81359004703E+01  0.13512737358E+04  0.13550032507E+04  0.41800000000E+01 0. -1.
        -11    1    1    2    0    0  0.34176278264E+02 -0.52915024419E+01  0.61804146261E+01  0.35131403602E+02  0.00000000000E+00 0.  1.
         11    1    1    2    0    0  0.42656741090E+02 -0.52559011441E+02  0.19233865690E+03  0.20390244281E+03  0.00000000000E+00 0. -1.
</event>
<event>
 7    1  0.2522928E-009  0.2081230E+03  0.7561462E-02  0.1143061E+00
          3   -1    0    0  501    0  0.00000000000E+00  0.00000000000E+00  0.25016549803E+03  0.25016549803E+03  0.00000000000E+00 0. -1.
         -3   -1    0    0    0  501 -0.00000000000E+00 -0.00000000000E+00 -0.19700839738E+03  0.19700839738E+03  0.00000000000E+00 0.  1.
         25    2    1    2    0    0 -0.84685401414E+02  0.17353212796E+03  0.11020768391E+02  0.23033387813E+03  0.12508885415E+03 0.  0.
          5    1    3    3  502    0 -0.86317021271E+00  0.12525158140E+03  0.35901779633E+02  0.13036530937E+03  0.41800000000E+01 0. -1.
         -5    1    3    3    0  502 -0.83822231201E+02  0.48280546560E+02 -0.24881011242E+02  0.99968568761E+02  0.41800000000E+01 0. -1.
        -11    1    1    2    0    0  0.53037192403E+02 -0.86205893263E+02 -0.22492403630E+02  0.10368369222E+03  0.00000000000E+00 0.  1.
         11    1    1    2    0    0  0.31648209011E+02 -0.87326234697E+02  0.64628735885E+02  0.11315632506E+03  0.00000000000E+00 0. -1.
</event>
<event>
 7    1  0.2522928E-009  0.8717798E+02  0.7561462E-02  0.1309833E+00
         -1   -1    0    0    0  501 -0.00000000000E+00  0.00000000000E+00  0.12342930415E+03  0.12342930415E+03  0.00000000000E+00 0.  1.
          1   -1    0    0  501    0  0.00000000000E+00 -0.00000000000E+00 -0.11447822144E+03  0.11447822144E+03  0.00000000000E+00 0. -1.
         25    2    1    2    0    0 -0.50130916628E+01 -0.34665089981E+02 -0.27849913356E+02  0.13284131256E+03  0.12507756432E+03 0.  0.
          5    1    3    3  502    0  0.47835608675E+02 -0.55009804857E+02 -0.13259358075E+02  0.74213253966E+02  0.41800000000E+01 0.  1.
         -5    1    3    3    0  502 -0.52848700338E+02  0.20344714875E+02 -0.14590555280E+02  0.58628058591E+02  0.41800000000E+01 0.  1.
        -11    1    1    2    0    0  0.16423079756E+02  0.22722962297E+02  0.65894641047E+02  0.71611132396E+02  0.00000000000E+00 0.  1.
         11    1    1    2    0    0 -0.11409988093E+02  0.11942127684E+02 -0.29093644982E+02  0.33455080634E+02  0.00000000000E+00 0. -1.
</event>
<event>
 7    1  0.2522928E-009  0.1266204E+03  0.7561462E-02  0.1232558E+00
         -2   -1    0    0    0  501 -0.00000000000E+00  0.00000000000E+00  0.11292089874E+03  0.11292089874E+03  0.00000000000E+00 0.  1.
          2   -1    0    0  501    0  0.00000000000E+00 -0.00000000000E+00 -0.14370050835E+03  0.14370050835E+03  0.00000000000E+00 0. -1.
         25    2    1    2    0    0 -0.77788029040E+02  0.15280834504E+02 -0.10936136973E+02  0.14849842005E+03  0.12509076825E+03 0.  0.
          5    1    3    3  502    0 -0.33985404630E+02 -0.54637323918E+02  0.37592974634E+01  0.64589856868E+02  0.41800000000E+01 0. -1.
         -5    1    3    3    0  502 -0.43802624410E+02  0.69918158422E+02 -0.14695434437E+02  0.83908563184E+02  0.41800000000E+01 0. -1.
        -11    1    1    2    0    0  0.77017392952E+02  0.12785821755E+02 -0.12154309958E+02  0.79011918757E+02  0.00000000000E+00 0.  1.
         11    1    1    2    0    0  0.77063608783E+00 -0.28066656259E+02 -0.76891626775E+01  0.29111068277E+02  0.00000000000E+00 0. -1.
</event>
<event>
 7    1  0.2522928E-009  0.1155999E+03  0.7561462E-02  0.1250538E+00
          2   -1    0    0  501    0  0.00000000000E+00  0.00000000000E+00  0.11988155797E+04  0.11988155797E+04  0.00000000000E+00 0. -1.
         -2   -1    0    0    0  501 -0.00000000000E+00 -0.00000000000E+00 -0.20128485403E+02  0.20128485403E+02  0.00000000000E+00 0.  1.
         25    2    1    2    0    0 -0.12974197878E+02  0.47660881022E+02  0.10295075899E+04  0.10382548108E+04  0.12508910862E+03 0.  0.
          5    1    3    3  502    0  0.31305868115E+02 -0.29837076327E+02  0.26423265897E+03  0.26778102802E+03  0.41800000000E+01 0.  1.
         -5    1    3    3    0  502 -0.44280065992E+02  0.77497957349E+02  0.76527493095E+03  0.77047378279E+03  0.41800000000E+01 0.  1.
        -11    1    1    2    0    0 -0.34773929618E+02 -0.65415969978E+01  0.77842001062E+02  0.85506700332E+02  0.00000000000E+00 0. -1.
         11    1    1    2    0    0  0.47748127495E+02 -0.41119284024E+02  0.71337503324E+02  0.95182553961E+02  0.00000000000E+00 0.  1.
</event>
<event>
 7    1  0.2522928E-009  0.9451269E+02  0.7561462E-02  0.1292277E+00
          1   -1    0    0  501    0  0.00000000000E+00  0.00000000000E+00  0.56604235349E+02  0.56604235349E+02  0.00000000000E+00 0. -1.
         -1   -1    0    0    0  501 -0.00000000000E+00 -0.00000000000E+00 -0.24735189835E+03  0.24735189835E+03  0.00000000000E+00 0.  1.
         25    2    1    2    0    0  0.30461471784E+02 -0.12761266195E+02 -0.64576926102E+02  0.14459769250E+03  0.12509021590E+03 0.  0.
          5    1    3    3  502    0  0.48378210582E+02 -0.37807308761E+02  0.11330016531E+02  0.62575438708E+02  0.41800000000E+01 0.  1.
         -5    1    3    3    0  502 -0.17916738799E+02  0.25046042566E+02 -0.75906942634E+02  0.82022253794E+02  0.41800000000E+01 0.  1.
        -11    1    1    2    0    0 -0.54520302175E+02 -0.17945439507E+02 -0.64051719839E+02  0.86006540232E+02  0.00000000000E+00 0.  1.
         11    1    1    2    0    0  0.24058830391E+02  0.30706705702E+02 -0.62119017063E+02  0.73351900969E+02  0.00000000000E+00 0. -1.
</event>
<event>
 7    1  0.2522928E-009  0.8507190E+02  0.7561462E-02  0.1315245E+00
          2   -1    0    0  501    0  0.00000000000E+00  0.00000000000E+00  0.28921727277E+03  0.28921727277E+03  0.00000000000E+00 0. -1.
         -2   -1    0    0    0  501 -0.00000000000E+00 -0.00000000000E+00 -0.51262285732E+02  0.51262285732E+02  0.00000000000E+00 0.  1.
         25    2    1    2    0    0 -0.17014007024E+01  0.99201880274E+01  0.21992576970E+03  0.25320877931E+03  0.12508411908E+03 0.  0.
          5    1    3    3  502    0  0.30537691063E+01  0.60738347695E+02  0.61007789864E+02  0.86243232840E+02  0.41800000000E+01 0.  1.
         -5    1    3    3    0  502 -0.47551698088E+01 -0.50818159668E+02  0.15891797984E+03  0.16696554647E+03  0.41800000000E+01 0.  1.
        -11    1    1    2    0    0  0.28446211058E+02  0.23618253264E+01  0.40985829808E+02  0.49946004720E+02  0.00000000000E+00 0. -1.
         11    1    1    2    0    0 -0.26744810356E+02 -0.12282013354E+02 -0.22956612475E+02  0.37324774471E+02  0.00000000000E+00 0.  1.
</event>
<event>
 7    1  0.2522928E-009  0.8761103E+02  0.7561462E-02  0.1308742E+00
          2   -1    0    0  501    0  0.00000000000E+00  0.00000000000E+00  0.18413826895E+03  0.18413826895E+03  0.00000000000E+00 0. -1.
         -2   -1    0    0    0  501 -0.00000000000E+00 -0.00000000000E+00 -0.67268491571E+02  0.67268491571E+02  0.00000000000E+00 0.  1.
         25    2    1    2    0    0 -0.69212920338E+01 -0.17368499887E+02  0.67451694205E+02  0.14335371492E+03  0.12510390665E+03 0.  0.
          5    1    3    3  502    0  0.30875571967E+02  0.38668457403E+02  0.28180662042E+01  0.49738962990E+02  0.41800000000E+01 0.  1.
         -5    1    3    3    0  502 -0.37796864001E+02 -0.56036957290E+02  0.64633628000E+02  0.93614751931E+02  0.41800000000E+01 0.  1.
        -11    1    1    2    0    0  0.31024125286E+02  0.86123642033E+01  0.68765002211E+02  0.75929537705E+02  0.00000000000E+00 0. -1.
         11    1    1    2    0    0 -0.24102833252E+02  0.87561356838E+01 -0.19346919040E+02  0.32123507892E+02  0.00000000000E+00 0.  1.
</event>
<event>
 7    1  0.2522928E-009  0.1128336E+03  0.7561462E-02  0.1255411E+00
          2   -1    0    0  501    0  0.00000000000E+00  0.00000000000E+00  0.74713695406E+02  0.74713695406E+02  0.00000000000E+00 0. -1.
         -2   -1    0    0    0  501 -0.00000000000E+00 -0.00000000000E+00 -0.22312233627E+03  0.22312233627E+03  0.00000000000E+00 0.  1.
         25    2    1    2    0    0  0.48829564142E+02 -0.12105826800E+02 -0.25652173467E+02  0.13724519834E+03  0.12508930045E+03 0.  0.
          5    1    3    3  502    0  0.55348366123E+02 -0.62372794471E+02 -0.10350660363E+02  0.84133320941E+02  0.41800000000E+01 0. -1.
         -5    1    3    3    0  502 -0.65188019807E+01  0.50266967671E+02 -0.15301513104E+02  0.53111877404E+02  0.41800000000E+01 0. -1.
        -11    1    1    2    0    0  0.48799890983E+01  0.33239092950E+02 -0.85576195250E+02  0.91934415684E+02  0.00000000000E+00 0.  1.
         11    1    1    2    0    0 -0.53709553241E+02 -0.21133266150E+02 -0.37180272151E+02  0.68656417651E+02  0.00000000000E+00 0. -1.
</event>
<event>
 7    1  0.2522928E-009  0.2012886E+03  0.7561462E-02  0.1148656E+00
          2   -1    0    0  501    0  0.00000000000E+00  0.00000000000E+00  0.48524364474E+03  0.48524364474E+03  0.00000000000E+00 0.  1.
         -2   -1    0    0    0  501 -0.00000000000E+00 -0.00000000000E+00 -0.88312521082E+02  0.88312521082E+02  0.00000000000E+00 0. -1.
         25    2    1    2    0    0 -0.22974367687E+02 -0.17494188523E+03  0.19856799329E+03  0.29361161318E+03  0.12508415830E+03 0.  0.
          5    1    3    3  502    0  0.64431527868E+01 -0.18199739124E+03  0.14874865800E+03  0.23517695528E+03  0.41800000000E+01 0. -1.
         -5    1    3    3    0  502 -0.29417520474E+02  0.70555060079E+01  0.49819335289E+02  0.58434657905E+02  0.41800000000E+01 0. -1.
        -11    1    1    2    0    0  0.17664311973E+02  0.30752149064E+01  0.68025917226E+00  0.17942898783E+02  0.00000000000E+00 0. -1.
         11    1    1    2    0    0  0.53100557138E+01  0.17186667032E+03  0.19768287119E+03  0.26200165385E+03  0.00000000000E+00 0.  1.
</event>
<event>
 7    1  0.2522928E-009  0.8347186E+02  0.7561462E-02  0.1319478E+00
          1   -1    0    0  501    0  0.00000000000E+00  0.00000000000E+00  0.50667323237E+03  0.50667323237E+03  0.00000000000E+00 0. -1.
         -1   -1    0    0    0  501 -0.00000000000E+00 -0.00000000000E+00 -0.25049889161E+02  0.25049889161E+02  0.00000000000E+00 0.  1.
         25    2    1    2    0    0 -0.20106206694E+02  0.13357715280E+02  0.23171342460E+03  0.26442665489E+03  0.12509059344E+03 0.  0.
          5    1    3    3  502    0  0.22289605872E+02  0.24761561347E+02  0.21445658415E+03  0.21706925239E+03  0.41800000000E+01 0.  1.
         -5    1    3    3    0  502 -0.42395812566E+02 -0.11403846067E+02  0.17256840454E+02  0.47357402491E+02  0.41800000000E+01 0.  1.
        -11    1    1    2    0    0 -0.33237429606E+02 -0.13622751639E+02  0.59007381486E+02  0.69080946424E+02  0.00000000000E+00 0. -1.
         11    1    1    2    0    0  0.53343636300E+02  0.26503635848E+00  0.19090253712E+03  0.19821552022E+03  0.00000000000E+00 0.  1.
</event>
<event>
 7    1  0.2522928E-009  0.8364244E+02  0.7561462E-02  0.1319021E+00
         -2   -1    0    0    0  501 -0.00000000000E+00  0.00000000000E+00  0.11368687946E+03  0.11368687946E+03  0.00000000000E+00 0.  1.
          2   -1    0    0  501    0  0.00000000000E+00 -0.00000000000E+00 -0.11461197678E+03  0.11461197678E+03  0.00000000000E+00 0. -1.
         25    2    1    2    0    0  0.61547207884E+01 -0.94501187519E+01  0.32007443074E+02  0.12961815971E+03  0.12509678486E+03 0.  0.
          5    1    3    3  502    0  0.39693248512E+02 -0.54455100832E+01 -0.35708084617E+02  0.53830727884E+02  0.41800000000E+01 0. -1.
         -5    1    3    3    0  502 -0.33538527724E+02 -0.40046086687E+01  0.67715527691E+02  0.75787431827E+02  0.41800000000E+01 0. -1.
        -11    1    1    2    0    0  0.36717295825E+02  0.28079230560E+02 -0.18075165053E+02  0.49631790147E+02  0.00000000000E+00 0.  1.
         11    1    1    2    0    0 -0.42872016613E+02 -0.18629111808E+02 -0.14857375345E+02  0.49048906383E+02  0.00000000000E+00 0. -1.
</event>
<event>
 7    1  0.2522928E-009  0.1208660E+03  0.7561462E-02  0.1241675E+00
         -2   -1    0    0    0  501 -0.00000000000E+00  0.00000000000E+00  0.32001878363E+02  0.32001878363E+02  0.00000000000E+00 0.  1.
          2   -1    0    0  501    0  0.00000000000E+00 -0.00000000000E+00 -0.64435869169E+03  0.64435869169E+03  0.00000000000E+00 0. -1.
         25    2    1    2    0    0  0.49401282276E+02  0.32066125199E+02 -0.50580146402E+03  0.52436069657E+03  0.12510114317E+03 0.  0.
          5    1    3    3  502    0  0.24796463334E+02 -0.46849467365E+02 -0.15284378371E+03  0.16182840234E+03  0.41800000000E+01 0. -1.
         -5    1    3    3    0  502  0.24604818942E+02  0.78915592564E+02 -0.35295768032E+03  0.36253229423E+03  0.41800000000E+01 0. -1.
        -11    1    1    2    0    0 -0.31488852793E+02  0.28599295524E+02 -0.59594792248E+02  0.73218896589E+02  0.00000000000E+00 0.  1.
         11    1    1    2    0    0 -0.17912429483E+02 -0.60665420723E+02 -0.46960557058E+02  0.78780976896E+02  0.00000000000E+00 0. -1.
</event>
<event>
 7    1  0.2522928E-009  0.9224290E+02  0.7561462E-02  0.1297509E+00
          2   -1    0    0  501    0  0.00000000000E+00  0.00000000000E+00  0.14436975227E+03  0.14436975227E+03  0.00000000000E+00 0. -1.
         -2   -1    0    0    0  501 -0.00000000000E+00 -0.00000000000E+00 -0.11212281084E+03  0.11212281084E+03  0.00000000000E+00 0.  1.
         25    2    1    2    0    0 -0.66260050679E+02 -0.55129387461E+01  0.19347143737E+02  0.14297735446E+03  0.12508966827E+03 0.  0.
          5    1    3    3  502    0 -0.62866903724E+02  0.20369715368E+01  0.68421701997E+02  0.93034394398E+02  0.41800000000E+01 0. -1.
         -5    1    3    3    0  502 -0.33931469550E+01 -0.75499102829E+01 -0.49074558260E+02  0.49942960064E+02  0.41800000000E+01 0. -1.
        -11    1    1    2    0    0  0.27645553995E+01  0.39879326198E+02  0.10246060470E+02  0.41267241000E+02  0.00000000000E+00 0. -1.
         11    1    1    2    0    0  0.63495495280E+02 -0.34366387452E+02  0.26537372198E+01  0.72247967643E+02  0.00000000000E+00 0.  1.
</event>
<event>
 7    1  0.3047068E-009  0.1290954E+03  0.7561462E-02  0.1228804E+00
         -1   -1    0    0    0  501 -0.00000000000E+00  0.00000000000E+00  0.11834358704E+03  0.11834358704E+03  0.00000000000E+00 0.  1.
          1   -1    0    0  501    0  0.00000000000E+00 -0.00000000000E+00 -0.16922342803E+03  0.16922342803E+03  0.00000000000E+00 0. -1.
         25    2    1    2    0    0  0.24837125739E+02  0.73767467322E+02 -0.74507387092E+02  0.16509854274E+03  0.12509059131E+03 0.  0.
          5    1    3    3  502    0  0.65055373278E+02  0.83654219745E+01 -0.13865357225E+02  0.67170696053E+02  0.41800000000E+01 0.  1.
         -5    1    3    3    0  502 -0.40218247540E+02  0.65402045347E+02 -0.60642029867E+02  0.97927846689E+02  0.41800000000E+01 0.  1.
        -11    1    1    2    0    0 -0.55921155814E+02 -0.35352549975E+02 -0.32074747991E+01  0.66236442778E+02  0.00000000000E+00 0.  1.
         11    1    1    2    0    0  0.31084030075E+02 -0.38414917346E+02  0.26835020896E+02  0.56232029547E+02  0.00000000000E+00 0. -1.
</event>
<event>
 7    1  0.2522928E-009  0.1419313E+03  0.7561462E-02  0.1210754E+00
          1   -1    0    0  501    0  0.00000000000E+00  0.00000000000E+00  0.97755663696E+03  0.97755663696E+03  0.00000000000E+00 0. -1.
         -1   -1    0    0    0  501 -0.00000000000E+00 -0.00000000000E+00 -0.37145573201E+02  0.37145573201E+02  0.00000000000E+00 0.  1.
         25    2    1    2    0    0  0.86544250579E+02  0.68554352903E+02  0.77315182837E+03  0.79094888008E+03  0.12508706801E+03 0.  0.
          5    1    3    3  502    0 -0.27223910170E+02 -0.29004731152E+01  0.74416936551E+02  0.79403443722E+02  0.41800000000E+01 0. -1.
         -5    1    3    3    0  502  0.11376816075E+03  0.71454826018E+02  0.69873489182E+03  0.71154543636E+03  0.41800000000E+01 0. -1.
        -11    1    1    2    0    0 -0.39023514980E+02 -0.62732662781E+02  0.32444456121E+02  0.80689927711E+02  0.00000000000E+00 0.  1.
         11    1    1    2    0    0 -0.47520735599E+02 -0.58216901224E+01  0.13481477927E+03  0.14306340237E+03  0.00000000000E+00 0. -1.
</event>
<event>
 7    1  0.2522928E-009  0.1057015E+03  0.7561462E-02  0.1268744E+00
         -2   -1    0    0    0  501 -0.00000000000E+00  0.00000000000E+00  0.70944256795E+02  0.70944256795E+02  0.00000000000E+00 0.  1.
          2   -1    0    0  501    0  0.00000000000E+00 -0.00000000000E+00 -0.20344050466E+03  0.20344050466E+03  0.00000000000E+00 0. -1.
         25    2    1    2    0    0  0.20762452161E+02 -0.42327302928E+02 -0.97432452982E+02  0.16542061613E+03  0.12509283495E+03 0.  0.
          5    1    3    3  502    0 -0.41052006082E+02 -0.62332614806E+01 -0.82098731369E+02  0.92096660333E+02  0.41800000000E+01 0. -1.
         -5    1    3    3    0  502  0.61814458242E+02 -0.36094041447E+02 -0.15333721612E+02  0.73323955801E+02  0.41800000000E+01 0. -1.
        -11    1    1    2    0    0  0.51174162644E+01 -0.25167041713E+02 -0.25248927849E+02  0.36014945443E+02  0.00000000000E+00 0. -1.
         11    1    1    2    0    0 -0.25879868425E+02  0.67494344640E+02 -0.98148670367E+01  0.72949199880E+02  0.00000000000E+00 0.  1.
</event>
<event>
 7    1  0.2522928E-009  0.1093963E+03  0.7561462E-02  0.1261692E+00
         -2   -1    0    0    0  501 -0.00000000000E+00  0.00000000000E+00  0.40842309830E+02  0.40842309830E+02  0.00000000000E+00 0.  1.
          2   -1    0    0  501    0  0.00000000000E+00 -0.00000000000E+00 -0.35080048436E+03  0.35080048436E+03  0.00000000000E+00 0. -1.
         25    2    1    2    0    0 -0.49478290282E+02 -0.53011378804E+02 -0.18300182899E+03  0.23322648468E+03  0.12508643512E+03 0.  0.
          5    1    3    3  502    0  0.29427659486E+02 -0.84059944632E+00 -0.30585787588E+01  0.29891822532E+02  0.41800000000E+01 0.  1.
         -5    1    3    3    0  502 -0.78905949768E+02 -0.52170779358E+02 -0.17994325023E+03  0.20333466215E+03  0.41800000000E+01 0.  1.
        -11    1    1    2    0    0  0.40054513387E+02 -0.47936132595E+00 -0.46964136953E+02  0.61727011832E+02  0.00000000000E+00 0.  1.
         11    1    1    2    0    0  0.94237768956E+01  0.53490740130E+02 -0.79992208586E+02  0.96689297676E+02  0.00000000000E+00 0. -1.
</event>
<event>
 7    1  0.2522928E-009  0.1819751E+03  0.7561462E-02  0.1165905E+00
          1   -1    0    0  501    0  0.00000000000E+00  0.00000000000E+00  0.10168731950E+03  0.10168731950E+03  0.00000000000E+00 0. -1.
         -1   -1    0    0    0  501 -0.00000000000E+00 -0.00000000000E+00 -0.34817559719E+03  0.34817559719E+03  0.00000000000E+00 0.  1.
         25    2    1    2    0    0  0.28046615279E+02 -0.14252529389E+03 -0.72626076992E+02  0.20499091259E+03  0.12508659065E+03 0.  0.
          5    1    3    3  502    0  0.71870854251E+02 -0.46004397821E+02 -0.36721086381E+02  0.92993198110E+02  0.41800000000E+01 0.  1.
         -5    1    3    3    0  502 -0.43824238973E+02 -0.96520896065E+02 -0.35904990611E+02  0.11199771448E+03  0.41800000000E+01 0.  1.
        -11    1    1    2    0    0  0.16813402384E+02  0.12189919300E+03 -0.12515642131E+03  0.17551704632E+03  0.00000000000E+00 0. -1.
         11    1    1    2    0    0 -0.44860017662E+02  0.20626100887E+02 -0.48705779388E+02  0.69354957777E+02  0.00000000000E+00 0.  1.
</event>
<event>
 7    1  0.2522928E-009  0.9034237E+02  0.7561462E-02  0.1302025E+00
         -1   -1    0    0    0  501 -0.00000000000E+00  0.00000000000E+00  0.14115346995E+03  0.14115346995E+03  0.00000000000E+00 0.  1.
          1   -1    0    0  501    0  0.00000000000E+00 -0.00000000000E+00 -0.91327066035E+02  0.91327066035E+02  0.00000000000E+00 0. -1.
         25    2    1    2    0    0  0.11654163296E+02  0.18337657321E+02 -0.18271163690E+01  0.12697696680E+03  0.12509085716E+03 0.  0.
          5    1    3    3  502    0  0.56440327806E+02 -0.40633930228E+01 -0.35090658735E+02  0.66714679765E+02  0.41800000000E+01 0. -1.
         -5    1    3    3    0  502 -0.44786164510E+02  0.22401050344E+02  0.33263542366E+02  0.60262287035E+02  0.41800000000E+01 0. -1.
        -11    1    1    2    0    0 -0.73625259992E+01 -0.45552078094E+02  0.60932024179E+02  0.76432389589E+02  0.00000000000E+00 0.  1.
         11    1    1    2    0    0 -0.42916372973E+01  0.27214420773E+02 -0.92785038937E+01  0.29071179597E+02  0.00000000000E+00 0. -1.
</event>
<event>
 7    1  0.2522928E-009  0.1218973E+03  0.7561462E-02  0.1240000E+00
         -1   -1    0    0    0  501 -0.00000000000E+00  0.00000000000E+00  0.56564822826E+02  0.56564822826E+02  0.00000000000E+00 0.  1.
          1   -1    0    0  501    0  0.00000000000E+00 -0.00000000000E+00 -0.60898255937E+03  0.60898255937E+03  0.00000000000E+00 0. -1.
         25    2    1    2    0    0  0.17849120753E+02  0.56418069711E+02 -0.53823733853E+03  0.55574189876E+03  0.12509210906E+03 0.  0.
          5    1    3    3  502    0  0.16968775723E+02 -0.38898046742E+02 -0.14909490205E+03  0.15507340071E+03  0.41800000000E+01 0. -1.
         -5    1    3    3    0  502  0.88034502989E+00  0.95316116453E+02 -0.38914243648E+03  0.40066849806E+03  0.41800000000E+01 0. -1.
        -11    1    1    2    0    0  0.10175690082E+02  0.21037729162E+02  0.76538585328E+01  0.24590898060E+02  0.00000000000E+00 0.  1.
         11    1    1    2    0    0 -0.28024810835E+02 -0.77455798874E+02 -0.21834256547E+02  0.85214585374E+02  0.00000000000E+00 0. -1.
</event>
<event>
 7    1  0.2522928E-009  0.1163477E+03  0.7561462E-02  0.1249247E+00
         -3   -1    0    0    0  501 -0.00000000000E+00  0.00000000000E+00  0.11889456594E+03  0.11889456594E+03  0.00000000000E+00 0.  1.
          3   -1    0    0  501    0  0.00000000000E+00 -0.00000000000E+00 -0.16118745754E+03  0.16118745754E+03  0.00000000000E+00 0. -1.
         25    2    1    2    0    0 -0.40325678542E+02  0.75224383015E+02 -0.12942285847E+02  0.15199100941E+03  0.12509554760E+03 0.  0.
          5    1    3    3  502    0 -0.10980094013E+02 -0.12358859052E+02  0.41376812710E+02  0.44752842275E+02  0.41800000000E+01 0. -1.
         -5    1    3    3    0  502 -0.29345584529E+02  0.87583242067E+02 -0.54319098558E+02  0.10723816713E+03  0.41800000000E+01 0. -1.
        -11    1    1    2    0    0  0.46747735692E+02  0.92827974691E+00 -0.20855594289E+02  0.51197346696E+02  0.00000000000E+00 0. -1.
         11    1    1    2    0    0 -0.64220571501E+01 -0.76152662762E+02 -0.84950114648E+01  0.76893667383E+02  0.00000000000E+00 0.  1.
</event>
<event>
 6    1  0.2522928E-009  0.1311316E+03  0.7561462E-02  0.1225786E+00
         -2   -1    0    0    0  501 -0.00000000000E+00  0.00000000000E+00  0.16096974649E+02  0.16096974649E+02  0.00000000000E+00 0.  1.
          2   -1    0    0  501    0  0.00000000000E+00 -0.00000000000E+00 -0.14389715566E+04  0.14389715566E+04  0.00000000000E+00 0. -1.
          5    1    1    2  502    0  0.71690232432E+02 -0.79724148641E+02 -0.41861665175E+03  0.43214905163E+03  0.41800000000E+01 0. -1.
         -5    1    1    2    0  502  0.16141986571E+02  0.28429498924E+02 -0.47424559126E+03  0.47538947545E+03  0.41800000000E+01 0. -1.
        -11    1    1    2    0    0 -0.74397613254E+01 -0.15690027970E+02 -0.18297383470E+02  0.25225409176E+02  0.00000000000E+00 0.  1.
         11    1    1    2    0    0 -0.80392457677E+02  0.66984677687E+02 -0.51171495546E+03  0.52230459498E+03  0.00000000000E+00 0. -1.
</event>
<event>
 7    1  0.2522928E-009  0.1396814E+03  0.7561462E-02  0.1213758E+00
          1   -1    0    0  501    0  0.00000000000E+00  0.00000000000E+00  0.71778682722E+03  0.71778682722E+03  0.00000000000E+00 0. -1.
         -1   -1    0    0    0  501 -0.00000000000E+00 -0.00000000000E+00 -0.68863365878E+02  0.68863365878E+02  0.00000000000E+00 0.  1.
         25    2    1    2    0    0 -0.11026540361E+03 -0.19120750985E+02  0.62028030553E+03  0.64258708246E+03  0.12508572568E+03 0.  0.
          5    1    3    3  502    0 -0.21763780110E+02 -0.62025897406E+02  0.18688891968E+03  0.19815603643E+03  0.41800000000E+01 0.  1.
         -5    1    3    3    0  502 -0.88501623496E+02  0.42905146421E+02  0.43339138585E+03  0.44443104604E+03  0.41800000000E+01 0.  1.
        -11    1    1    2    0    0  0.33200984393E+02 -0.65226564377E+01 -0.28922553437E+02  0.44512520811E+02  0.00000000000E+00 0.  1.
         11    1    1    2    0    0  0.77064419213E+02  0.25643407423E+02  0.57565709247E+02  0.99550589822E+02  0.00000000000E+00 0. -1.
</event>
<event>
 7    1  0.2522928E-009  0.1450607E+03  0.7561462E-02  0.1206677E+00
          2   -1    0    0  501    0  0.00000000000E+00  0.00000000000E+00  0.18645485340E+03  0.18645485340E+03  0.00000000000E+00 0. -1.
         -2   -1    0    0    0  501 -0.00000000000E+00 -0.00000000000E+00 -0.17463766694E+03  0.17463766694E+03  0.00000000000E+00 0.  1.
         25    2    1    2    0    0 -0.54935758104E+02 -0.81272622149E+02 -0.97511940473E+02  0.18649494809E+03  0.12509440634E+03 0.  0.
          5    1    3    3  502    0 -0.75451351464E+02 -0.37128181662E+01 -0.65300986555E+02  0.99941896628E+02  0.41800000000E+01 0. -1.
         -5    1    3    3    0  502  0.20515593360E+02 -0.77559803982E+02 -0.32210953918E+02  0.86553051460E+02  0.41800000000E+01 0. -1.
        -11    1    1    2    0    0 -0.25016785649E+02  0.30366107716E+02  0.19102486906E+02  0.43736084278E+02  0.00000000000E+00 0.  1.
         11    1    1    2    0    0  0.79952543753E+02  0.50906514433E+02  0.90226640022E+02  0.13086148797E+03  0.00000000000E+00 0. -1.
</event>
<event>
 7    1  0.2522928E-009  0.9946105E+02  0.7561462E-02  0.1281433E+00
          3   -1    0    0  501    0  0.00000000000E+00  0.00000000000E+00  0.59512425131E+02  0.59512425131E+02  0.00000000000E+00 0. -1.
         -3   -1    0    0    0  501 -0.00000000000E+00 -0.00000000000E+00 -0.27933249500E+03  0.27933249500E+03  0.00000000000E+00 0.  1.
         25    2    1    2    0    0  0.17359680731E+02  0.12978582970E+02 -0.20902888385E+03  0.24456208165E+03  0.12509090842E+03 0.  0.
          5    1    3    3  502    0  0.43534848208E+02 -0.43858425711E+02 -0.80703165596E+02  0.10173159711E+03  0.41800000000E+01 0.  1.
         -5    1    3    3    0  502 -0.26175167478E+02  0.56837008681E+02 -0.12832571825E+03  0.14283048454E+03  0.41800000000E+01 0.  1.
        -11    1    1    2    0    0  0.25050802846E+02 -0.18990718065E+02  0.23634414176E+02  0.39329068502E+02  0.00000000000E+00 0. -1.
         11    1    1    2    0    0 -0.42410483576E+02  0.60121350951E+01 -0.34425600195E+02  0.54953769974E+02  0.00000000000E+00 0.  1.
</event>
<event>
 7    1  0.2522928E-009  0.9480865E+02  0.7561462E-02  0.1291608E+00
         -2   -1    0    0    0  501 -0.00000000000E+00  0.00000000000E+00  0.22378245721E+02  0.22378245721E+02  0.00000000000E+00 0. -1.
          2   -1    0    0  501    0  0.00000000000E+00 -0.00000000000E+00 -0.69959037540E+03  0.69959037540E+03  0.00000000000E+00 0.  1.
         25    2    1    2    0    0 -0.50416686166E+02 -0.25919014210E+02 -0.46151099024E+03  0.48151088964E+03  0.12508679063E+03 0.  0.
          5    1    3    3  502    0  0.12433706897E+02 -0.26054094123E+02 -0.19623026152E+02  0.35156058413E+02  0.41800000000E+01 0.  1.
         -5    1    3    3    0  502 -0.62850393063E+02  0.13507991319E+00 -0.44188796409E+03  0.44635483123E+03  0.41800000000E+01 0.  1.
        -11    1    1    2    0    0  0.72179497858E+02  0.19453479937E+02 -0.11451000887E+03  0.13675108747E+03  0.00000000000E+00 0. -1.
         11    1    1    2    0    0 -0.21762811692E+02  0.64655342732E+01 -0.10119113057E+03  0.10370664402E+03  0.00000000000E+00 0.  1.
</event>
<event>
 7    1  0.2522928E-009  0.1326011E+03  0.7561462E-02  0.1223646E+00
         -1   -1    0    0    0  501 -0.00000000000E+00  0.00000000000E+00  0.46728539349E+02  0.46728539349E+02  0.00000000000E+00 0.  1.
          1   -1    0    0  501    0  0.00000000000E+00 -0.00000000000E+00 -0.60735294778E+03  0.60735294778E+03  0.00000000000E+00 0. -1.
         25    2    1    2    0    0  0.11545509584E+03 -0.51814846527E+02 -0.27821898806E+03  0.33025516325E+03  0.12509200639E+03 0.  0.
          5    1    3    3  502    0  0.59554489277E+01 -0.21596861057E+02 -0.17573646571E+03  0.17720798390E+03  0.41800000000E+01 0. -1.
         -5    1    3    3    0  502  0.10949964691E+03 -0.30217985470E+02 -0.10248252235E+03  0.15304717935E+03  0.41800000000E+01 0. -1.
        -11    1    1    2    0    0 -0.53795627700E+02  0.37111498926E+02 -0.23702028053E+03  0.24586550448E+03  0.00000000000E+00 0. -1.
         11    1    1    2    0    0 -0.61659468139E+02  0.14703347601E+02 -0.45385139842E+02  0.77960819392E+02  0.00000000000E+00 0.  1.
</event>
<event>
 7    1  0.2522928E-009  0.1004254E+03  0.7561462E-02  0.1279404E+00
         -3   -1    0    0    0  501 -0.00000000000E+00  0.00000000000E+00  0.14896979623E+03  0.14896979623E+03  0.00000000000E+00 0.  1.
          3   -1    0    0  501    0  0.00000000000E+00 -0.00000000000E+00 -0.10577443391E+03  0.10577443391E+03  0.00000000000E+00 0. -1.
         25    2    1    2    0    0  0.25221728842E+02  0.27133622730E+02 -0.28195079008E+02  0.13345674379E+03  0.12507346199E+03 0.  0.
          5    1    3    3  502    0 -0.42970899259E+02  0.48891535927E+01  0.19073557394E+02  0.47451817643E+02  0.41800000000E+01 0.  1.
         -5    1    3    3    0  502  0.68192628101E+02  0.22244469137E+02 -0.47268636402E+02  0.86004926149E+02  0.41800000000E+01 0.  1.
        -11    1    1    2    0    0  0.27804576413E+02 -0.12873092083E+02  0.56694740471E+02  0.64444585237E+02  0.00000000000E+00 0.  1.
         11    1    1    2    0    0 -0.53026305255E+02 -0.14260530647E+02  0.14695700850E+02  0.56842901111E+02  0.00000000000E+00 0. -1.
</event>
<event>
 7    1  0.2522928E-009  0.1019512E+03  0.7561462E-02  0.1276246E+00
         -1   -1    0    0    0  501 -0.00000000000E+00  0.00000000000E+00  0.19623381546E+03  0.19623381546E+03  0.00000000000E+00 0. -1.
          1   -1    0    0  501    0  0.00000000000E+00 -0.00000000000E+00 -0.79964255662E+02  0.79964255662E+02  0.00000000000E+00 0.  1.
         25    2    1    2    0    0 -0.32730625769E+02  0.50405233070E+02  0.89946956040E+02  0.16537789042E+03  0.12508960930E+03 0.  0.
          5    1    3    3  502    0 -0.50568050240E+02  0.79060698452E+02  0.34003945544E+02  0.99907269291E+02  0.41800000000E+01 0.  1.
         -5    1    3    3    0  502  0.17837424470E+02 -0.28655465382E+02  0.55943010496E+02  0.65470621131E+02  0.41800000000E+01 0.  1.
        -11    1    1    2    0    0  0.28362680860E+02 -0.59469382059E+02  0.51552296922E+02  0.83658163894E+02  0.00000000000E+00 0. -1.
         11    1    1    2    0    0  0.43679449092E+01  0.90641489897E+01 -0.25229693166E+02  0.27162016805E+02  0.00000000000E+00 0.  1.
</event>
<event>
 7    1  0.2522928E-009  0.1516932E+03  0.7561462E-02  0.1198408E+00
          2   -1    0    0  501    0  0.00000000000E+00  0.00000000000E+00  0.19402992966E+04  0.19402992966E+04  0.00000000000E+00 0. -1.
         -2   -1    0    0    0  501 -0.00000000000E+00 -0.00000000000E+00 -0.27421808633E+02  0.27421808633E+02  0.00000000000E+00 0.  1.
         25    2    1    2    0    0 -0.91856755656E+02  0.63529934530E+02  0.17148625661E+04  0.17230426748E+04  0.12509485368E+03 0.  0.
          5    1    3    3  502    0 -0.11642047053E+03  0.22990555412E+02  0.13178167946E+04  0.13231556477E+04  0.41800000000E+01 0. -1.
         -5    1    3    3    0  502  0.24563714877E+02  0.40539379118E+02  0.39704577150E+03  0.39988702706E+03  0.41800000000E+01 0. -1.
        -11    1    1    2    0    0  0.10737837860E+02 -0.54375529535E+02  0.45577603115E+02  0.71758743577E+02  0.00000000000E+00 0.  1.
         11    1    1    2    0    0  0.81118917796E+02 -0.91544049953E+01  0.15243731876E+03  0.17291968686E+03  0.00000000000E+00 0. -1.
</event>
<event>
 7    1  0.2522928E-009  0.8654333E+02  0.7561462E-02  0.1311445E+00
         -2   -1    0    0    0  501 -0.00000000000E+00  0.00000000000E+00  0.22120112354E+02  0.22120112354E+02  0.00000000000E+00 0.  1.
          2   -1    0    0  501    0  0.00000000000E+00 -0.00000000000E+00 -0.68548396940E+03  0.68548396940E+03  0.00000000000E+00 0. -1.
         25    2    1    2    0    0 -0.75747977418E+01 -0.80042861056E+01 -0.53799476143E+03  0.55245627680E+03  0.12509247898E+03 0.  0.
          5    1    3    3  502    0 -0.23426378469E+02  0.40933249947E+02 -0.43176127514E+03  0.43434962561E+03  0.41800000000E+01 0. -1.
         -5    1    3    3    0  502  0.15851580728E+02 -0.48937536053E+02 -0.10623348629E+03  0.11810665119E+03  0.41800000000E+01 0. -1.
        -11    1    1    2    0    0  0.22842731244E+02 -0.27340532114E+02 -0.10644090875E+03  0.11224509843E+03  0.00000000000E+00 0. -1.
         11    1    1    2    0    0 -0.15267933502E+02  0.35344818220E+02 -0.18928186868E+02  0.42902706518E+02  0.00000000000E+00 0.  1.
</event>
<event>
 7    1  0.2522928E-009  0.1315094E+03  0.7561462E-02  0.1225233E+00
         -2   -1    0    0    0  501 -0.00000000000E+00  0.00000000000E+00  0.35168974653E+02  0.35168974653E+02  0.00000000000E+00 0.  1.
          2   -1    0    0  501    0  0.00000000000E+00 -0.00000000000E+00 -0.70941197908E+03  0.70941197908E+03  0.00000000000E+00 0. -1.
         25    2    1    2    0    0 -0.10234701218E+03 -0.45334693870E+02 -0.40584632225E+03  0.43919093081E+03  0.12508913241E+03 0.  0.
          5    1    3    3  502    0 -0.25291979092E+02  0.38246581613E+01 -0.29193585358E+03  0.29308416406E+03  0.41800000000E+01 0.  1.
         -5    1    3    3    0  502 -0.77055033093E+02 -0.49159352031E+02 -0.11391046867E+03  0.14610676675E+03  0.41800000000E+01 0.  1.
        -11    1    1    2    0    0  0.62054963454E+02  0.73687099190E+02 -0.18257174451E+03  0.20642928322E+03  0.00000000000E+00 0.  1.
         11    1    1    2    0    0  0.40292048730E+02 -0.28352405320E+02 -0.85824937666E+02  0.98960739709E+02  0.00000000000E+00 0. -1.
</event>
<event>
 7    1  0.2522928E-009  0.1201027E+03  0.7561462E-02  0.1242928E+00
         -1   -1    0    0    0  501 -0.00000000000E+00  0.00000000000E+00  0.91708139993E+02  0.91708139993E+02  0.00000000000E+00 0.  1.
          1   -1    0    0  501    0  0.00000000000E+00 -0.00000000000E+00 -0.29300302165E+03  0.29300302165E+03  0.00000000000E+00 0. -1.
         25    2    1    2    0    0 -0.67946340599E+02 -0.29051756346E+02  0.69934398802E+01  0.14545426979E+03  0.12508927472E+03 0.  0.
          5    1    3    3  502    0  0.25686955862E+02  0.24229228761E+01 -0.30091307788E+02  0.39857865737E+02  0.41800000000E+01 0. -1.
         -5    1    3    3    0  502 -0.93633296461E+02 -0.31474679222E+02  0.37084747668E+02  0.10559640405E+03  0.41800000000E+01 0. -1.
        -11    1    1    2    0    0  0.62384230626E+02  0.58323977328E+02 -0.13053472412E+03  0.15598972006E+03  0.00000000000E+00 0.  1.
         11    1    1    2    0    0  0.55621099729E+01 -0.29272220981E+02 -0.77753597419E+02  0.83267171803E+02  0.00000000000E+00 0. -1.
</event>
<event>
 7    1  0.2522928E-009  0.1004830E+03  0.7561462E-02  0.1279284E+00
         -2   -1    0    0    0  501 -0.00000000000E+00  0.00000000000E+00  0.26843262708E+03  0.26843262708E+03  0.00000000000E+00 0.  1.
          2   -1    0    0  501    0  0.00000000000E+00 -0.00000000000E+00 -0.52487657812E+02  0.52487657812E+02  0.00000000000E+00 0. -1.
         25    2    1    2    0    0  0.30223077197E+02  0.37815947299E+01  0.17385297919E+03  0.21633563776E+03  0.12509402439E+03 0.  0.
          5    1    3    3  502    0 -0.12772619136E+02 -0.51073432736E+02  0.43337821043E+02  0.68317453581E+02  0.41800000000E+01 0. -1.
         -5    1    3    3    0  502  0.42995696333E+02  0.54855027465E+02  0.13051515814E+03  0.14801818418E+03  0.41800000000E+01 0. -1.
        -11    1    1    2    0    0  0.23738806653E+02 -0.54006897576E+01  0.44304876260E+02  0.50553144823E+02  0.00000000000E+00 0.  1.
         11    1    1    2    0    0 -0.53961883850E+02  0.16190950276E+01 -0.22128861742E+01  0.54031502316E+02  0.00000000000E+00 0. -1.
</event>
<event>
 7    1  0.2522928E-009  0.1394378E+03  0.7561462E-02  0.1214088E+00
          3   -1    0    0  501    0  0.00000000000E+00  0.00000000000E+00  0.36986863116E+03  0.36986863116E+03  0.00000000000E+00 0. -1.
         -3   -1    0    0    0  501 -0.00000000000E+00 -0.00000000000E+00 -0.96977022021E+02  0.96977022021E+02  0.00000000000E+00 0.  1.
         25    2    1    2    0    0  0.94219161102E+02 -0.93636045144E+02  0.46424725369E+02  0.18828025254E+03  0.12509691884E+03 0.  0.
          5    1    3    3  502    0  0.77308511899E+02 -0.95882274106E+02  0.82399419763E+02  0.14824693345E+03  0.41800000000E+01 0.  1.
         -5    1    3    3    0  502  0.16910649203E+02  0.22462289628E+01 -0.35974694393E+02  0.40033319095E+02  0.41800000000E+01 0.  1.
        -11    1    1    2    0    0 -0.45390365977E+02  0.19726598998E+02  0.19061962824E+02  0.53035671564E+02  0.00000000000E+00 0.  1.
         11    1    1    2    0    0 -0.48828795125E+02  0.73909446146E+02  0.20740492094E+03  0.22552972907E+03  0.00000000000E+00 0. -1.
</event>
<event>
 7    1  0.2522928E-009  0.2381118E+03  0.7561462E-02  0.1121057E+00
         -4   -1    0    0    0  501 -0.00000000000E+00  0.00000000000E+00  0.15167911910E+03  0.15167911910E+03  0.00000000000E+00 0.  1.
          4   -1    0    0  501    0  0.00000000000E+00 -0.00000000000E+00 -0.46806310305E+03  0.46806310305E+03  0.00000000000E+00 0. -1.
         25    2    1    2    0    0 -0.11610545709E+02  0.22264991824E+03 -0.50722564430E+02  0.26061828945E+03  0.12506527651E+03 0.  0.
          5    1    3    3  502    0 -0.42120168119E+02  0.88726651627E+02 -0.71609222566E+02  0.12162187479E+03  0.41800000000E+01 0. -1.
         -5    1    3    3    0  502  0.30509622410E+02  0.13392326662E+03  0.20886658135E+02  0.13899641466E+03  0.41800000000E+01 0. -1.
        -11    1    1    2    0    0 -0.39527949549E+02 -0.88181538090E+02 -0.89842688134E+02  0.13194753149E+03  0.00000000000E+00 0.  1.
         11    1    1    2    0    0  0.51138495258E+02 -0.13446838015E+03 -0.17581873139E+03  0.22717640120E+03  0.00000000000E+00 0. -1.
</event>
<event>
 7    1  0.2522928E-009  0.1128937E+03  0.7561462E-02  0.1255303E+00
         -3   -1    0    0    0  501 -0.00000000000E+00  0.00000000000E+00  0.73426267653E+02  0.73426267653E+02  0.00000000000E+00 0.  1.
          3   -1    0    0  501    0  0.00000000000E+00 -0.00000000000E+00 -0.21101042492E+03  0.21101042492E+03  0.00000000000E+00 0. -1.
         25    2    1    2    0    0  0.46820214691E+02 -0.77027258669E+01 -0.33541599310E+02  0.13792535491E+03  0.12508756993E+03 0.  0.
          5    1    3    3  502    0  0.40551233626E+02 -0.58969334871E+02  0.71443945537E+01  0.72043735170E+02  0.41800000000E+01 0. -1.
         -5    1    3    3    0  502  0.62689810648E+01  0.51266609004E+02 -0.40685993863E+02  0.65881619735E+02  0.41800000000E+01 0. -1.
        -11    1    1    2    0    0  0.21587163902E+02  0.23669755942E+02 -0.24083366877E+02  0.40078317727E+02  0.00000000000E+00 0.  1.
         11    1    1    2    0    0 -0.68407378592E+02 -0.15967030075E+02 -0.79959191077E+02  0.10643301994E+03  0.00000000000E+00 0. -1.
</event>
<event>
 7    1  0.2522928E-009  0.7574601E+02  0.7561462E-02  0.1341576E+00
         -1   -1    0    0    0  501 -0.00000000000E+00  0.00000000000E+00  0.73305732792E+02  0.73305732792E+02  0.00000000000E+00 0.  1.
          1   -1    0    0  501    0  0.00000000000E+00 -0.00000000000E+00 -0.18467686183E+03  0.18467686183E+03  0.00000000000E+00 0. -1.
         25    2    1    2    0    0 -0.12338188605E+02 -0.32581559299E+02 -0.34584391639E+02  0.13438174081E+03  0.12509429728E+03 0.  0.
          5    1    3    3  502    0 -0.34584749501E+02 -0.29091354529E+02  0.37419723338E+02  0.58822783860E+02  0.41800000000E+01 0. -1.
         -5    1    3    3    0  502  0.22246560896E+02 -0.34902047705E+01 -0.72004114977E+02  0.75558956945E+02  0.41800000000E+01 0. -1.
        -11    1    1    2    0    0  0.19183488331E+02  0.55795149255E+02 -0.20719599098E+02  0.62533244692E+02  0.00000000000E+00 0.  1.
         11    1    1    2    0    0 -0.68452997269E+01 -0.23213589956E+02 -0.56067138303E+02  0.61067609127E+02  0.00000000000E+00 0. -1.
</event>
<event>
 7    1  0.2522928E-009  0.1120801E+03  0.7561462E-02  0.1256766E+00
          2   -1    0    0  501    0  0.00000000000E+00  0.00000000000E+00  0.29929803497E+03  0.29929803497E+03  0.00000000000E+00 0. -1.
         -2   -1    0    0    0  501 -0.00000000000E+00 -0.00000000000E+00 -0.68971495442E+02  0.68971495442E+02  0.00000000000E+00 0.  1.
         25    2    1    2    0    0  0.38885520907E+02  0.47620131703E+02  0.34665254354E+02  0.14363298475E+03  0.12509593826E+03 0.  0.
          5    1    3    3  502    0  0.44944900447E+02 -0.23306766831E+02  0.49354469314E+02  0.70827858202E+02  0.41800000000E+01 0. -1.
         -5    1    3    3    0  502 -0.60593795396E+01  0.70926898534E+02 -0.14689214960E+02  0.72805126551E+02  0.41800000000E+01 0. -1.
        -11    1    1    2    0    0 -0.45598620416E+01 -0.63898953909E+02  0.77670276197E+02  0.10068038765E+03  0.00000000000E+00 0.  1.
         11    1    1    2    0    0 -0.34325658866E+02  0.16278822206E+02  0.11799100898E+03  0.12395615801E+03  0.00000000000E+00 0. -1.
</event>
<event>
 7    1  0.2753792E-009  0.1291778E+03  0.7561462E-02  0.1228681E+00
          1   -1    0    0  501    0  0.00000000000E+00  0.00000000000E+00  0.50465289677E+03  0.50465289677E+03  0.00000000000E+00 0. -1.
         -1   -1    0    0    0  501 -0.00000000000E+00 -0.00000000000E+00 -0.37558417841E+02  0.37558417841E+02  0.00000000000E+00 0.  1.
         25    2    1    2    0    0  0.75013165447E+02  0.23581523538E+02  0.31733302087E+03  0.35004432795E+03  0.12509085558E+03 0.  0.
          5    1    3    3  502    0  0.49674289746E+02  0.71598753542E+02  0.14407831120E+03  0.16843381112E+03  0.41800000000E+01 0.  1.
         -5    1    3    3    0  502  0.25338875701E+02 -0.48017230003E+02  0.17325470967E+03  0.18161051682E+03  0.41800000000E+01 0.  1.
        -11    1    1    2    0    0 -0.31299876502E+02 -0.54685236151E+02  0.10425701108E+03  0.12181823214E+03  0.00000000000E+00 0. -1.
         11    1    1    2    0    0 -0.43713288944E+02  0.31103712613E+02  0.45504446977E+02  0.70348754526E+02  0.00000000000E+00 0.  1.
</event>
<event>
 7    1  0.2522928E-009  0.9953243E+02  0.7561462E-02  0.1281282E+00
          2   -1    0    0  501    0  0.00000000000E+00  0.00000000000E+00  0.40561382676E+02  0.40561382676E+02  0.00000000000E+00 0. -1.
         -2   -1    0    0    0  501 -0.00000000000E+00 -0.00000000000E+00 -0.32314942167E+03  0.32314942167E+03  0.00000000000E+00 0.  1.
         25    2    1    2    0    0  0.22318542505E+02 -0.19289299341E+02 -0.19230323760E+03  0.23129629028E+03  0.12508894555E+03 0.  0.
          5    1    3    3  502    0  0.28352757828E+02 -0.70856601376E+02 -0.11433682054E+03  0.13753151554E+03  0.41800000000E+01 0. -1.
         -5    1    3    3    0  502 -0.60342153232E+01  0.51567302035E+02 -0.77966417062E+02  0.93764774746E+02  0.41800000000E+01 0. -1.
        -11    1    1    2    0    0  0.66070278505E+00  0.39762567900E+02 -0.93367459672E+02  0.10148389458E+03  0.00000000000E+00 0.  1.
         11    1    1    2    0    0 -0.22979245290E+02 -0.20473268559E+02  0.30826582742E+01  0.30930619483E+02  0.00000000000E+00 0. -1.
</event>
<event>
 7    1  0.2522928E-009  0.7781220E+02  0.7561462E-02  0.1335377E+00
         -1   -1    0    0    0  501 -0.00000000000E+00  0.00000000000E+00  0.12302578995E+03  0.12302578995E+03  0.00000000000E+00 0.  1.
          1   -1    0    0  501    0  0.00000000000E+00 -0.00000000000E+00 -0.10558409046E+03  0.10558409046E+03  0.00000000000E+00 0. -1.
         25    2    1    2    0    0 -0.15172633142E+02 -0.21887070886E+02  0.34168137642E+02  0.13237947610E+03  0.12509041288E+03 0.  0.
          5    1    3    3  502    0 -0.52693956002E+02  0.30543056592E+02  0.28936096233E+02  0.67559613456E+02  0.41800000000E+01 0.  1.
         -5    1    3    3    0  502  0.37521322860E+02 -0.52430127478E+02  0.52320414093E+01  0.64819862649E+02  0.41800000000E+01 0.  1.
        -11    1    1    2    0    0  0.13366112749E+02  0.72249123062E+01  0.37270787385E+02  0.40248775387E+02  0.00000000000E+00 0.  1.
         11    1    1    2    0    0  0.18065203933E+01  0.14662158580E+02 -0.53997225541E+02  0.55981628918E+02  0.00000000000E+00 0. -1.
</event>
<event>
 7    1  0.2522928E-009  0.1327186E+03  0.7561462E-02  0.1223477E+00
          2   -1    0    0  501    0  0.00000000000E+00  0.00000000000E+00  0.13466005789E+03  0.13466005789E+03  0.00000000000E+00 0. -1.
         -2   -1    0    0    0  501 -0.00000000000E+00 -0.00000000000E+00 -0.14919710113E+03  0.14919710113E+03  0.00000000000E+00 0.  1.
         25    2    1    2    0    0 -0.74125103908E+02  0.35848016524E+02  0.32452222899E+02  0.15322994476E+03  0.12508660153E+03 0.  0.
          5    1    3    3  502    0  0.17940636436E+02  0.51537738545E+02  0.14960612045E+01  0.54751397509E+02  0.41800000000E+01 0. -1.
         -5    1    3    3    0  502 -0.92065740344E+02 -0.15689722022E+02  0.30956161695E+02  0.98478547253E+02  0.41800000000E+01 0. -1.
        -11    1    1    2    0    0  0.53726556971E+02  0.20336537854E+02 -0.40954065581E+02  0.70550359201E+02  0.00000000000E+00 0.  1.
         11    1    1    2    0    0  0.20398546937E+02 -0.56184554377E+02 -0.60352005564E+01  0.60076855056E+02  0.00000000000E+00 0. -1.
</event>
<event>
 7    1  0.2522928E-009  0.1188663E+03  0.7561462E-02  0.1244979E+00
         -2   -1    0    0    0  501 -0.00000000000E+00  0.00000000000E+00  0.25058406748E+02  0.25058406748E+02  0.00000000000E+00 0.  1.
          2   -1    0    0  501    0  0.00000000000E+00 -0.00000000000E+00 -0.69731416835E+03  0.69731416835E+03  0.00000000000E+00 0. -1.
         25    2    1    2    0    0 -0.75207732776E+02 -0.26303188750E+00 -0.39436381965E+03  0.42051867181E+03  0.12512737047E+03 0.  0.
          5    1    3    3  502    0  0.25231761745E+02 -0.29566484452E+02 -0.14226857389E+03  0.14754198833E+03  0.41800000000E+01 0. -1.
         -5    1    3    3    0  502 -0.10043949452E+03  0.29303452565E+02 -0.25209524576E+03  0.27297668348E+03  0.41800000000E+01 0. -1.
        -11    1    1    2    0    0  0.32407947522E+02 -0.27842712997E+02 -0.40046761180E+02  0.58559668806E+02  0.00000000000E+00 0.  1.
         11    1    1    2    0    0  0.42799785253E+02  0.28105744884E+02 -0.23784518077E+03  0.24329423448E+03  0.00000000000E+00 0. -1.
</event>
<event>
 7    1  0.2522928E-009  0.1435843E+03  0.7561462E-02  0.1208586E+00
          2   -1    0    0  501    0  0.00000000000E+00  0.00000000000E+00  0.23823574097E+04  0.23823574097E+04  0.00000000000E+00 0. -1.
         -2   -1    0    0    0  501 -0.00000000000E+00 -0.00000000000E+00 -0.12297198201E+02  0.12297198201E+02  0.00000000000E+00 0.  1.
         25    2    1    2    0    0 -0.64321442107E+02 -0.96125718362E+02  0.17172500614E+04  0.17256802572E+04  0.12508866861E+03 0.  0.
          5    1    3    3  502    0 -0.83266108343E+02 -0.82672866221E+02  0.16540952076E+04  0.16582570597E+04  0.41800000000E+01 0. -1.
         -5    1    3    3    0  502  0.18944666237E+02 -0.13452852141E+02  0.63154853739E+02  0.67423197495E+02  0.41800000000E+01 0. -1.
        -11    1    1    2    0    0  0.54608073310E+02  0.53665754920E+01  0.23960912412E+03  0.24581166401E+03  0.00000000000E+00 0.  1.
         11    1    1    2    0    0  0.97133687971E+01  0.90759142870E+02  0.41320102600E+03  0.42316268672E+03  0.00000000000E+00 0. -1.
</event>
<event>
 7    1  0.2522928E-009  0.1178604E+03  0.7561462E-02  0.1246669E+00
         -1   -1    0    0    0  501 -0.00000000000E+00  0.00000000000E+00  0.66920226261E+02  0.66920226261E+02  0.00000000000E+00 0.  1.
          1   -1    0    0  501    0  0.00000000000E+00 -0.00000000000E+00 -0.26647141206E+03  0.26647141206E+03  0.00000000000E+00 0. -1.
         25    2    1    2    0    0 -0.11393235881E+02  0.43823631828E+02 -0.18197798085E+03  0.22541985120E+03  0.12509119582E+03 0.  0.
          5    1    3    3  502    0 -0.21435200080E+02  0.84436222691E+02 -0.14608423147E+03  0.17013823377E+03  0.41800000000E+01 0. -1.
         -5    1    3    3    0  502  0.10041964199E+02 -0.40612590863E+02 -0.35893749381E+02  0.55281617435E+02  0.41800000000E+01 0. -1.
        -11    1    1    2    0    0  0.51584552735E+02 -0.71951219045E+01 -0.10553277389E+02  0.53142332690E+02  0.00000000000E+00 0. -1.
         11    1    1    2    0    0 -0.40191316854E+02 -0.36628509924E+02 -0.70199275540E+01  0.54829454425E+02  0.00000000000E+00 0.  1.
</event>
<event>
 7    1  0.2522928E-009  0.8783735E+02  0.7561462E-02  0.1308175E+00
          1   -1    0    0  501    0  0.00000000000E+00  0.00000000000E+00  0.10507063441E+03  0.10507063441E+03  0.00000000000E+00 0. -1.
         -1   -1    0    0    0  501 -0.00000000000E+00 -0.00000000000E+00 -0.17155117039E+03  0.17155117039E+03  0.00000000000E+00 0.  1.
         25    2    1    2    0    0  0.34243162454E+02 -0.31396729531E+02 -0.10342637423E+03  0.16882691083E+03  0.12508861712E+03 0.  0.
          5    1    3    3  502    0 -0.93736198078E+00 -0.42306749876E+02 -0.12066968984E+03  0.12794290202E+03  0.41800000000E+01 0.  1.
         -5    1    3    3    0  502  0.35180524435E+02  0.10910020346E+02  0.17243315601E+02  0.40884008810E+02  0.41800000000E+01 0.  1.
        -11    1    1    2    0    0  0.19963642928E+02  0.36533425899E+02 -0.63216769324E+00  0.41636977350E+02  0.00000000000E+00 0.  1.
         11    1    1    2    0    0 -0.54206805382E+02 -0.51366963680E+01  0.37578005948E+02  0.66157916612E+02  0.00000000000E+00 0. -1.
</event>
<event>
 7    1  0.2522928E-009  0.9723828E+02  0.7561462E-02  0.1286213E+00
          2   -1    0    0  501    0  0.00000000000E+00  0.00000000000E+00  0.25754873274E+03  0.25754873274E+03  0.00000000000E+00 0. -1.
         -2   -1    0    0    0  501 -0.00000000000E+00 -0.00000000000E+00 -0.87286785524E+02  0.87286785524E+02  0.00000000000E+00 0.  1.
         25    2    1    2    0    0 -0.61822118520E+02  0.50534943606E+02  0.12036954869E+02  0.14889219683E+03  0.12509293797E+03 0.  0.
          5    1    3    3  502    0 -0.11624748630E+02  0.69216803775E+01  0.63275178551E+02  0.64840304291E+02  0.41800000000E+01 0. -1.
         -5    1    3    3    0  502 -0.50197369890E+02  0.43613263229E+02 -0.51238223681E+02  0.84051892539E+02  0.41800000000E+01 0. -1.
        -11    1    1    2    0    0  0.68163760467E+02 -0.56948027561E+01  0.11197281871E+03  0.13121219894E+03  0.00000000000E+00 0. -1.
         11    1    1    2    0    0 -0.63416419468E+01 -0.44840140850E+02  0.46252173638E+02  0.64731122502E+02  0.00000000000E+00 0.  1.
</event>
<event>
 7    1  0.2522928E-009  0.9238759E+02  0.7561462E-02  0.1297171E+00
         -3   -1    0    0    0  501 -0.00000000000E+00  0.00000000000E+00  0.41821846119E+02  0.41821846119E+02  0.00000000000E+00 0.  1.
          3   -1    0    0  501    0  0.00000000000E+00 -0.00000000000E+00 -0.33872322428E+03  0.33872322428E+03  0.00000000000E+00 0. -1.
         25    2    1    2    0    0 -0.56425480196E+00 -0.48047685482E+02 -0.16227446051E+03  0.21044701736E+03  0.12508416414E+03 0.  0.
          5    1    3    3  502    0 -0.43961679356E+02  0.15863847399E+02 -0.25746797161E+02  0.53522526754E+02  0.41800000000E+01 0. -1.
         -5    1    3    3    0  502  0.43397424554E+02 -0.63911532881E+02 -0.13652766335E+03  0.15692449061E+03  0.41800000000E+01 0. -1.
        -11    1    1    2    0    0  0.18484162053E+02  0.28483938171E+02 -0.11133564574E+01  0.33974086347E+02  0.00000000000E+00 0.  1.
         11    1    1    2    0    0 -0.17919907251E+02  0.19563747310E+02 -0.13351356119E+03  0.13612396669E+03  0.00000000000E+00 0. -1.
</event>
<event>
 7    1  0.2522928E-009  0.1271947E+03  0.7561462E-02  0.1231679E+00
          1   -1    0    0  501    0  0.00000000000E+00  0.00000000000E+00  0.52317127060E+03  0.52317127060E+03  0.00000000000E+00 0. -1.
         -1   -1    0    0    0  501 -0.00000000000E+00 -0.00000000000E+00 -0.62783484984E+02  0.62783484984E+02  0.00000000000E+00 0.  1.
         25    2    1    2    0    0  0.23594248394E+02 -0.11197926287E+03  0.99518979521E+02  0.19658972733E+03  0.12508976671E+03 0.  0.
          5    1    3    3  502    0 -0.67822315654E+01 -0.10609478487E+03  0.11912693895E+03  0.15972101310E+03  0.41800000000E+01 0. -1.
         -5    1    3    3    0  502  0.30376479959E+02 -0.58844780041E+01 -0.19607959428E+02  0.36868714230E+02  0.41800000000E+01 0. -1.
        -11    1    1    2    0    0 -0.28011605928E+01  0.68715601912E+02  0.31687849404E+03  0.32425554804E+03  0.00000000000E+00 0. -1.
         11    1    1    2    0    0 -0.20793087801E+02  0.43263660961E+02  0.43990312054E+02  0.65109480221E+02  0.00000000000E+00 0.  1.
</event>
<event>
 7    1  0.2522928E-009  0.3144476E+03  0.7561462E-02  0.1078233E+00
         -1   -1    0    0    0  501 -0.00000000000E+00  0.00000000000E+00  0.72255664354E+03  0.72255664354E+03  0.00000000000E+00 0.  1.
          1   -1    0    0  501    0  0.00000000000E+00 -0.00000000000E+00 -0.14712538713E+03  0.14712538713E+03  0.00000000000E+00 0. -1.
         25    2    1    2    0    0  0.46485059443E+02  0.30362277267E+03  0.29365655670E+03  0.44297731939E+03  0.12508830228E+03 0.  0.
          5    1    3    3  502    0 -0.20967647704E+01  0.12594110274E+03  0.19972782841E+03  0.23616569527E+03  0.41800000000E+01 0. -1.
         -5    1    3    3    0  502  0.48581824213E+02  0.17768166993E+03  0.93928728291E+02  0.20681162412E+03  0.41800000000E+01 0. -1.
        -11    1    1    2    0    0 -0.71520663342E+02 -0.22118758879E+03  0.22505688240E+03  0.32355796240E+03  0.00000000000E+00 0. -1.
         11    1    1    2    0    0  0.25035603900E+02 -0.82435183878E+02  0.56717817316E+02  0.10314674888E+03  0.00000000000E+00 0.  1.
</event>
<event>
 7    1  0.2522928E-009  0.8039191E+02  0.7561462E-02  0.1327943E+00
          2   -1    0    0  501    0  0.00000000000E+00  0.00000000000E+00  0.18873347023E+04  0.18873347023E+04  0.00000000000E+00 0. -1.
         -2   -1    0    0    0  501 -0.00000000000E+00 -0.00000000000E+00 -0.35881612184E+02  0.35881612184E+02  0.00000000000E+00 0.  1.
         25    2    1    2    0    0  0.36654947750E+02 -0.49316240186E+01  0.17888618897E+04  0.17936115084E+04  0.12508987449E+03 0.  0.
          5    1    3    3  502    0  0.77380708351E+02  0.31961128249E+01  0.14678305804E+04  0.14698782516E+04  0.41800000000E+01 0. -1.
         -5    1    3    3    0  502 -0.40725760601E+02 -0.81277368435E+01  0.32103130925E+03  0.32373325686E+03  0.41800000000E+01 0. -1.
        -11    1    1    2    0    0 -0.25838601311E+02 -0.55455413159E+01 -0.27572638707E+02  0.38192103260E+02  0.00000000000E+00 0.  1.
         11    1    1    2    0    0 -0.10816346440E+02  0.10477165335E+02  0.90163839154E+02  0.91412702808E+02  0.00000000000E+00 0. -1.
</event>
<event>
 7    1  0.2522928E-009  0.9689461E+02  0.7561462E-02  0.1286965E+00
         -1   -1    0    0    0  501 -0.00000000000E+00  0.00000000000E+00  0.32969305682E+02  0.32969305682E+02  0.00000000000E+00 0.  1.
          1   -1    0    0  501    0  0.00000000000E+00 -0.00000000000E+00 -0.39185334824E+03  0.39185334824E+03  0.00000000000E+00 0. -1.
         25    2    1    2    0    0  0.13935375148E+02 -0.33359510492E+02 -0.20887712734E+03  0.24615861548E+03  0.12512936518E+03 0.  0.
          5    1    3    3  502    0 -0.47746912183E+02  0.16639669056E+02 -0.81526963508E+02  0.96024811315E+02  0.41800000000E+01 0. -1.
         -5    1    3    3    0  502  0.61682287330E+02 -0.49999179548E+02 -0.12735016383E+03  0.15013380417E+03  0.41800000000E+01 0. -1.
        -11    1    1    2    0    0  0.17605964372E+02  0.25583413037E+02 -0.67647022193E+01  0.31784307452E+02  0.00000000000E+00 0.  1.
         11    1    1    2    0    0 -0.31541339520E+02  0.77760974549E+01 -0.14324221300E+03  0.14687973099E+03  0.00000000000E+00 0. -1.
</event>
<event>
 7    1  0.2522928E-009  0.1325667E+03  0.7561462E-02  0.1223696E+00
          2   -1    0    0  501    0  0.00000000000E+00  0.00000000000E+00  0.70614423795E+03  0.70614423795E+03  0.00000000000E+00 0.  1.
         -2   -1    0    0    0  501 -0.00000000000E+00 -0.00000000000E+00 -0.44311727157E+02  0.44311727157E+02  0.00000000000E+00 0. -1.
         25    2    1    2    0    0  0.74770400628E+02 -0.21354476707E+02  0.10648756383E+03  0.18175272632E+03  0.12509126983E+03 0.  0.
          5    1    3    3  502    0 -0.24041692392E+02 -0.35370995109E+02  0.12886426025E+02  0.44862485930E+02  0.41800000000E+01 0. -1.
         -5    1    3    3    0  502  0.98812093020E+02  0.14016518402E+02  0.93601137809E+02  0.13689024039E+03  0.41800000000E+01 0. -1.
        -11    1    1    2    0    0 -0.80280588719E+02 -0.18215363051E+02  0.39099331701E+03  0.39956544686E+03  0.00000000000E+00 0.  1.
         11    1    1    2    0    0  0.55101880910E+01  0.39569839758E+02  0.16435162995E+03  0.16913779193E+03  0.00000000000E+00 0. -1.
</event>
<event>
 7    1  0.2522928E-009  0.1126474E+03  0.7561462E-02  0.1255744E+00
         -2   -1    0    0    0  501 -0.00000000000E+00  0.00000000000E+00  0.23233175356E+03  0.23233175356E+03  0.00000000000E+00 0.  1.
          2   -1    0    0  501    0  0.00000000000E+00 -0.00000000000E+00 -0.71919180877E+02  0.71919180877E+02  0.00000000000E+00 0. -1.
         25    2    1    2    0    0  0.22749448949E+02 -0.48105930814E+02  0.35134504931E+02  0.14040295241E+03  0.12508731991E+03 0.  0.
          5    1    3    3  502    0 -0.20051212299E+02  0.29427079748E+02  0.37270791497E+02  0.51716423271E+02  0.41800000000E+01 0. -1.
         -5    1    3    3    0  502  0.42800661247E+02 -0.77533010562E+02 -0.21362865660E+01  0.88686529137E+02  0.41800000000E+01 0. -1.
        -11    1    1    2    0    0  0.31648139120E+02  0.29566719298E+02  0.78872046368E+02  0.89981083001E+02  0.00000000000E+00 0.  1.
         11    1    1    2    0    0 -0.54397588069E+02  0.18539211516E+02  0.46406021384E+02  0.73866899028E+02  0.00000000000E+00 0. -1.
</event>
<event>
 7    1  0.2522928E-009  0.1195480E+03  0.7561462E-02  0.1243845E+00
          2   -1    0    0  501    0  0.00000000000E+00  0.00000000000E+00  0.65226316911E+03  0.65226316911E+03  0.00000000000E+00 0. -1.
         -2   -1    0    0    0  501 -0.00000000000E+00 -0.00000000000E+00 -0.34030834064E+02  0.34030834064E+02  0.00000000000E+00 0.  1.
         25    2    1    2    0    0 -0.81822079775E+02  0.27935875199E+02  0.45627685977E+03  0.48094924616E+03  0.12509332019E+03 0.  0.
          5    1    3    3  502    0 -0.47717261669E+02 -0.22424168725E+02  0.59885121202E+02  0.79896686700E+02  0.41800000000E+01 0.  1.
         -5    1    3    3    0  502 -0.34104818106E+02  0.50360043924E+02  0.39639173857E+03  0.40105255946E+03  0.41800000000E+01 0.  1.
        -11    1    1    2    0    0  0.94872436570E+02 -0.51498255970E+00  0.11094330677E+03  0.14597760700E+03  0.00000000000E+00 0. -1.
         11    1    1    2    0    0 -0.13050356795E+02 -0.27420892639E+02  0.51012168503E+02  0.59367150016E+02  0.00000000000E+00 0.  1.
</event>
<event>
 6    1  0.2522928E-009  0.1344166E+03  0.7561462E-02  0.1221046E+00
         -2   -1    0    0    0  501 -0.00000000000E+00  0.00000000000E+00  0.29320889933E+02  0.29320889933E+02  0.00000000000E+00 0.  1.
          2   -1    0    0  501    0  0.00000000000E+00 -0.00000000000E+00 -0.79267353511E+03  0.79267353511E+03  0.00000000000E+00 0. -1.
          5    1    1    2  502    0 -0.22139785160E+02 -0.12970573470E+03 -0.39368962383E+03  0.41511774235E+03  0.41800000000E+01 0.  1.
         -5    1    1    2    0  502  0.36593883137E+01  0.28787259672E+02 -0.10847934043E+03  0.11237142494E+03  0.41800000000E+01 0.  1.
        -11    1    1    2    0    0  0.28284101918E+02  0.74759606234E+02 -0.25310298005E+03  0.26542439160E+03  0.00000000000E+00 0. -1.
         11    1    1    2    0    0 -0.98037050716E+01  0.26158868793E+02 -0.80807008571E+01  0.29080866150E+02  0.00000000000E+00 0.  1.
</event>
<event>
 7    1  0.2522928E-009  0.1524835E+03  0.7561462E-02  0.1197454E+00
         -2   -1    0    0    0  501 -0.00000000000E+00  0.00000000000E+00  0.50155385707E+02  0.50155385707E+02  0.00000000000E+00 0.  1.
          2   -1    0    0  501    0  0.00000000000E+00 -0.00000000000E+00 -0.67887247150E+03  0.67887247150E+03  0.00000000000E+00 0. -1.
         25    2    1    2    0    0 -0.63159738398E+02 -0.10051659641E+03 -0.50832807588E+03  0.53678550603E+03  0.12509399684E+03 0.  0.
          5    1    3    3  502    0  0.19864701098E+02  0.12565607645E+02 -0.30275042141E+02  0.38555822152E+02  0.41800000000E+01 0.  1.
         -5    1    3    3    0  502 -0.83024439496E+02 -0.11308220406E+03 -0.47805303374E+03  0.49822968388E+03  0.41800000000E+01 0.  1.
        -11    1    1    2    0    0  0.76915943701E+02  0.58800410535E+02 -0.11106170252E+03  0.14733720657E+03  0.00000000000E+00 0.  1.
         11    1    1    2    0    0 -0.13756205303E+02  0.41716185877E+02 -0.93273073901E+01  0.44905144600E+02  0.00000000000E+00 0. -1.
</event>
<event>
 7    1  0.2522928E-009  0.4633379E+03  0.7561462E-02  0.1023818E+00
          2   -1    0    0  501    0  0.00000000000E+00  0.00000000000E+00  0.16542401988E+04  0.16542401988E+04  0.00000000000E+00 0. -1.
         -2   -1    0    0    0  501 -0.00000000000E+00 -0.00000000000E+00 -0.13643418148E+03  0.13643418148E+03  0.00000000000E+00 0.  1.
         25    2    1    2    0    0  0.35488990272E+03  0.29706012669E+03  0.76649844531E+03  0.90408144197E+03  0.12510725453E+03 0.  0.
          5    1    3    3  502    0  0.22482208478E+03  0.20173407445E+03  0.60278110412E+03  0.67424338223E+03  0.41800000000E+01 0.  1.
         -5    1    3    3    0  502  0.13006781794E+03  0.95326052242E+02  0.16371734119E+03  0.22983805974E+03  0.41800000000E+01 0.  1.
        -11    1    1    2    0    0 -0.31558715359E+03 -0.25528595345E+03  0.59658719831E+03  0.72158329715E+03  0.00000000000E+00 0. -1.
         11    1    1    2    0    0 -0.39302749125E+02 -0.41774173245E+02  0.15472037372E+03  0.16500964118E+03  0.00000000000E+00 0.  1.
</event>
<event>
 7    1  0.2522928E-009  0.8964928E+02  0.7561462E-02  0.1303703E+00
          2   -1    0    0  501    0  0.00000000000E+00  0.00000000000E+00  0.19976976167E+03  0.19976976167E+03  0.00000000000E+00 0. -1.
         -2   -1    0    0    0  501 -0.00000000000E+00 -0.00000000000E+00 -0.10699905039E+03  0.10699905039E+03  0.00000000000E+00 0.  1.
         25    2    1    2    0    0  0.62975801733E+02  0.30620385212E+02 -0.18543187071E+02  0.14455031213E+03  0.12508950138E+03 0.  0.
          5    1    3    3  502    0  0.65662461649E+02  0.54016379158E+02  0.30142258749E+02  0.90307011076E+02  0.41800000000E+01 0. -1.
         -5    1    3    3    0  502 -0.26866599152E+01 -0.23395993946E+02 -0.48685445820E+02  0.54243301051E+02  0.41800000000E+01 0. -1.
        -11    1    1    2    0    0 -0.20907169726E+02 -0.72514367493E+01  0.11192442680E+03  0.11409106185E+03  0.00000000000E+00 0. -1.
         11    1    1    2    0    0 -0.42068632008E+02 -0.23368948463E+02 -0.61052843706E+00  0.48127438081E+02  0.00000000000E+00 0.  1.
</event>
<event>
 7    1  0.2522928E-009  0.1421072E+03  0.7561462E-02  0.1210521E+00
          1   -1    0    0  501    0  0.00000000000E+00  0.00000000000E+00  0.71322841785E+02  0.71322841785E+02  0.00000000000E+00 0. -1.
         -1   -1    0    0    0  501 -0.00000000000E+00 -0.00000000000E+00 -0.78448230687E+03  0.78448230687E+03  0.00000000000E+00 0.  1.
         25    2    1    2    0    0  0.81613636942E+02  0.62855222699E+02 -0.69595932334E+03  0.71457553796E+03  0.12508898813E+03 0.  0.
          5    1    3    3  502    0  0.10761792836E+03  0.16949921649E+02 -0.45680600273E+03  0.46963615159E+03  0.41800000000E+01 0. -1.
         -5    1    3    3    0  502 -0.26004291423E+02  0.45905301049E+02 -0.23915332061E+03  0.24493938638E+03  0.41800000000E+01 0. -1.
        -11    1    1    2    0    0 -0.23903229080E+02 -0.59884095953E+02 -0.43458380416E+02  0.77756672620E+02  0.00000000000E+00 0.  1.
         11    1    1    2    0    0 -0.57710407862E+02 -0.29711267453E+01  0.26258238671E+02  0.63472938074E+02  0.00000000000E+00 0. -1.
</event>
<event>
 7    1  0.2522928E-009  0.1019626E+03  0.7561462E-02  0.1276222E+00
         -1   -1    0    0    0  501 -0.00000000000E+00  0.00000000000E+00  0.26820150072E+02  0.26820150072E+02  0.00000000000E+00 0.  1.
          1   -1    0    0  501    0  0.00000000000E+00 -0.00000000000E+00 -0.54464307001E+03  0.54464307001E+03  0.00000000000E+00 0. -1.
         25    2    1    2    0    0 -0.14073371446E+02 -0.48992202508E+02 -0.32537675245E+03  0.35229997047E+03  0.12508773908E+03 0.  0.
          5    1    3    3  502    0  0.45434032508E+02 -0.68341843226E+01 -0.21532409490E+03  0.22021102522E+03  0.41800000000E+01 0. -1.
         -5    1    3    3    0  502 -0.59507403955E+02 -0.42158018185E+02 -0.11005265755E+03  0.13208894525E+03  0.41800000000E+01 0. -1.
        -11    1    1    2    0    0  0.35204890318E+02  0.52611584050E+02 -0.18644681686E+03  0.19690042813E+03  0.00000000000E+00 0. -1.
         11    1    1    2    0    0 -0.21131518872E+02 -0.36193815426E+01 -0.59993506265E+01  0.22262821486E+02  0.00000000000E+00 0.  1.
</event>
<event>
 7    1  0.2522928E-009  0.1087608E+03  0.7561462E-02  0.1262882E+00
         -1   -1    0    0    0  501 -0.00000000000E+00  0.00000000000E+00  0.65492234237E+02  0.65492234237E+02  0.00000000000E+00 0.  1.
          1   -1    0    0  501    0  0.00000000000E+00 -0.00000000000E+00 -0.24280458565E+03  0.24280458565E+03  0.00000000000E+00 0. -1.
         25    2    1    2    0    0 -0.42146562945E+02  0.75226401676E+01 -0.15805699912E+03  0.20606136221E+03  0.12508535944E+03 0.  0.
          5    1    3    3  502    0 -0.83870146997E+02 -0.12084707816E+02 -0.11445278240E+03  0.14246807895E+03  0.41800000000E+01 0.  1.
         -5    1    3    3    0  502  0.41723584052E+02  0.19607347983E+02 -0.43604216718E+02  0.63593283267E+02  0.41800000000E+01 0.  1.
        -11    1    1    2    0    0 -0.10303994583E+02  0.23355410280E+02  0.17669297368E+02  0.31045958886E+02  0.00000000000E+00 0.  1.
         11    1    1    2    0    0  0.52450557528E+02 -0.30878050447E+02 -0.36924649663E+02  0.71189498785E+02  0.00000000000E+00 0. -1.
</event>
<event>
 7    1  0.2522928E-009  0.1070263E+03  0.7561462E-02  0.1266178E+00
          1   -1    0    0  501    0  0.00000000000E+00  0.00000000000E+00  0.76606818562E+02  0.76606818562E+02  0.00000000000E+00 0. -1.
         -1   -1    0    0    0  501 -0.00000000000E+00 -0.00000000000E+00 -0.15520119295E+03  0.15520119295E+03  0.00000000000E+00 0.  1.
         25    2    1    2    0    0 -0.13041057672E+02  0.46480174993E+00 -0.51026208408E+02  0.13572564322E+03  0.12508993188E+03 0.  0.
          5    1    3    3  502    0 -0.61739590004E+02  0.29348955483E+02 -0.21822040039E+02  0.71880539739E+02  0.41800000000E+01 0. -1.
         -5    1    3    3    0  502  0.48698532332E+02 -0.28884153733E+02 -0.29204168370E+02  0.63845103480E+02  0.41800000000E+01 0. -1.
        -11    1    1    2    0    0 -0.36201117081E+02 -0.12141100572E+02  0.55243244095E+00  0.38186809013E+02  0.00000000000E+00 0.  1.
         11    1    1    2    0    0  0.49242174753E+02  0.11676298822E+02 -0.28120598417E+02  0.57895559276E+02  0.00000000000E+00 0. -1.
</event>
<event>
 7    1  0.2522928E-009  0.9787915E+02  0.7561462E-02  0.1284820E+00
          2   -1    0    0  501    0  0.00000000000E+00  0.00000000000E+00  0.28782485628E+02  0.28782485628E+02  0.00000000000E+00 0. -1.
         -2   -1    0    0    0  501 -0.00000000000E+00 -0.00000000000E+00 -0.79267331512E+03  0.79267331512E+03  0.00000000000E+00 0.  1.
         25    2    1    2    0    0 -0.70308750534E+01 -0.79148337655E+02 -0.59767553250E+03  0.61576583442E+03  0.12505050228E+03 0.  0.
          5    1    3    3  502    0 -0.11697327803E+02 -0.87576622911E+02 -0.59871425908E+03  0.60521296151E+03  0.41800000000E+01 0.  1.
         -5    1    3    3    0  502  0.46664527499E+01  0.84282852560E+01  0.10387265742E+01  0.10552872904E+02  0.41800000000E+01 0.  1.
        -11    1    1    2    0    0  0.30427243137E+02  0.56863514275E+02 -0.41112900438E+02  0.76482331051E+02  0.00000000000E+00 0. -1.
         11    1    1    2    0    0 -0.23396368084E+02  0.22284823380E+02 -0.12510239655E+03  0.12920763528E+03  0.00000000000E+00 0.  1.
</event>
<event>
 7    1  0.2522928E-009  0.8456406E+02  0.7561462E-02  0.1316577E+00
          4   -1    0    0  501    0  0.00000000000E+00  0.00000000000E+00  0.10922719758E+03  0.10922719758E+03  0.00000000000E+00 0.  1.
         -4   -1    0    0    0  501 -0.00000000000E+00 -0.00000000000E+00 -0.12513504241E+03  0.12513504241E+03  0.00000000000E+00 0. -1.
         25    2    1    2    0    0 -0.26388542004E+02  0.26742780811E+02 -0.29018631433E+02  0.13379755501E+03  0.12509265878E+03 0.  0.
          5    1    3    3  502    0 -0.50246434943E+02  0.79422141512E+01 -0.67480211450E+02  0.84609894974E+02  0.41800000000E+01 0.  1.
         -5    1    3    3    0  502  0.23857892939E+02  0.18800566660E+02  0.38461580017E+02  0.49187660034E+02  0.41800000000E+01 0.  1.
        -11    1    1    2    0    0  0.78406818598E+01 -0.53938998496E+02 -0.15803153927E+02  0.56750608145E+02  0.00000000000E+00 0. -1.
         11    1    1    2    0    0  0.18547860144E+02  0.27196217685E+02  0.28913940526E+02  0.43814076836E+02  0.00000000000E+00 0.  1.
</event>
<event>
 7    1  0.2522928E-009  0.1232204E+03  0.7561462E-02  0.1237877E+00
          2   -1    0    0  501    0  0.00000000000E+00  0.00000000000E+00  0.27280566306E+03  0.27280566306E+03  0.00000000000E+00 0. -1.
         -2   -1    0    0    0  501 -0.00000000000E+00 -0.00000000000E+00 -0.59751107337E+02  0.59751107337E+02  0.00000000000E+00 0.  1.
         25    2    1    2    0    0 -0.61597675867E+02  0.13331253939E+02  0.12226296399E+03  0.18592473686E+03  0.12509108445E+03 0.  0.
          5    1    3    3  502    0 -0.95200689720E+02  0.19288556023E+02  0.11534299148E+03  0.15085323265E+03  0.41800000000E+01 0. -1.
         -5    1    3    3    0  502  0.33603013853E+02 -0.59573020842E+01  0.69199725081E+01  0.35071504211E+02  0.41800000000E+01 0. -1.
        -11    1    1    2    0    0 -0.10603346162E+02  0.29180246306E+02  0.29429649269E+02  0.42778756182E+02  0.00000000000E+00 0. -1.
         11    1    1    2    0    0  0.72201022029E+02 -0.42511500245E+02  0.61361942472E+02  0.10385327736E+03  0.00000000000E+00 0.  1.
</event>
<event>
 7    1  0.2522928E-009  0.1200636E+03  0.7561462E-02  0.1242992E+00
         -2   -1    0    0    0  501 -0.00000000000E+00  0.00000000000E+00  0.66049162583E+02  0.66049162583E+02  0.00000000000E+00 0.  1.
          2   -1    0    0  501    0  0.00000000000E+00 -0.00000000000E+00 -0.49182243189E+03  0.49182243189E+03  0.00000000000E+00 0. -1.
         25    2    1    2    0    0  0.11834897913E+03  0.39196561483E+01 -0.35069947622E+03  0.39071796538E+03  0.12509420962E+03 0.  0.
          5    1    3    3  502    0  0.10848003128E+03  0.10510780861E+02 -0.35929193074E+03  0.37548176733E+03  0.41800000000E+01 0.  1.
         -5    1    3    3    0  502  0.98689478412E+01 -0.65911247129E+01  0.85924545133E+01  0.15236198051E+02  0.41800000000E+01 0.  1.
        -11    1    1    2    0    0 -0.15693235470E+02  0.79080874112E+00  0.21166179417E+02  0.26361148857E+02  0.00000000000E+00 0.  1.
         11    1    1    2    0    0 -0.10265574366E+03 -0.47104648894E+01 -0.96239972497E+02  0.14079248024E+03  0.00000000000E+00 0. -1.
</event>
<event>
 7    1  0.2522928E-009  0.1396129E+03  0.7561462E-02  0.1213851E+00
         -2   -1    0    0    0  501 -0.00000000000E+00  0.00000000000E+00  0.83553723287E+02  0.83553723287E+02  0.00000000000E+00 0. -1.
          2   -1    0    0  501    0  0.00000000000E+00 -0.00000000000E+00 -0.50476057169E+03  0.50476057169E+03  0.00000000000E+00 0.  1.
         25    2    1    2    0    0  0.27559091089E+02  0.89402849380E+02 -0.96548304964E+01  0.15649686418E+03  0.12508269172E+03 0.  0.
          5    1    3    3  502    0 -0.25218312182E+02  0.95575085964E+02 -0.22952161726E+02  0.10156197347E+03  0.41800000000E+01 0.  1.
         -5    1    3    3    0  502  0.52777403271E+02 -0.61722365838E+01  0.13297331229E+02  0.54934890719E+02  0.41800000000E+01 0.  1.
        -11    1    1    2    0    0 -0.52758545116E+02 -0.86906693354E+02 -0.36414392910E+03  0.37807015028E+03  0.00000000000E+00 0.  1.
         11    1    1    2    0    0  0.25199454027E+02 -0.24961560261E+01 -0.47408088813E+02  0.53747280518E+02  0.00000000000E+00 0. -1.
</event>
<event>
 7    1  0.2522928E-009  0.1061265E+03  0.7561462E-02  0.1267916E+00
         -1   -1    0    0    0  501 -0.00000000000E+00  0.00000000000E+00  0.78545726403E+02  0.78545726403E+02  0.00000000000E+00 0.  1.
          1   -1    0    0  501    0  0.00000000000E+00 -0.00000000000E+00 -0.18814702388E+03  0.18814702388E+03  0.00000000000E+00 0. -1.
         25    2    1    2    0    0 -0.53618243651E+02  0.18159070177E+00 -0.55564734301E+02  0.14700055588E+03  0.12508706849E+03 0.  0.
          5    1    3    3  502    0 -0.44863359413E+02  0.55771779247E+02 -0.55337022616E+02  0.90569701613E+02  0.41800000000E+01 0. -1.
         -5    1    3    3    0  502 -0.87548842379E+01 -0.55590188545E+02 -0.22771168505E+00  0.56430854265E+02  0.41800000000E+01 0. -1.
        -11    1    1    2    0    0  0.67283753636E+02  0.86732896115E+01 -0.69581618815E+02  0.97179890579E+02  0.00000000000E+00 0. -1.
         11    1    1    2    0    0 -0.13665509985E+02 -0.88548803132E+01  0.15545055642E+02  0.22512303823E+02  0.00000000000E+00 0.  1.
</event>
<event>
 7    1  0.2541249E-009  0.2226906E+03  0.7561462E-02  0.1131893E+00
          2   -1    0    0  501    0  0.00000000000E+00  0.00000000000E+00  0.23043317949E+04  0.23043317949E+04  0.00000000000E+00 0.  1.
         -2   -1    0    0    0  501 -0.00000000000E+00 -0.00000000000E+00 -0.36884222376E+02  0.36884222376E+02  0.00000000000E+00 0. -1.
         25    2    1    2    0    0  0.10831409976E+03 -0.18650597701E+03  0.18131175700E+04  0.18301800709E+04  0.12508935078E+03 0.  0.
          5    1    3    3  502    0  0.62243999389E+02 -0.13262331230E+03  0.15721193326E+04  0.15789363276E+04  0.41800000000E+01 0.  1.
         -5    1    3    3    0  502  0.46070100370E+02 -0.53882664702E+02  0.24099823741E+03  0.25124374328E+03  0.41800000000E+01 0.  1.
        -11    1    1    2    0    0 -0.10894654523E+03  0.12307466899E+03  0.37516034268E+03  0.40958760551E+03  0.00000000000E+00 0.  1.
         11    1    1    2    0    0  0.63244546805E+00  0.63431308012E+02  0.79169659878E+02  0.10144834089E+03  0.00000000000E+00 0. -1.
</event>
<event>
 7    1  0.2522928E-009  0.1274063E+03  0.7561462E-02  0.1231356E+00
          1   -1    0    0  501    0  0.00000000000E+00  0.00000000000E+00  0.72584896077E+03  0.72584896077E+03  0.00000000000E+00 0. -1.
         -1   -1    0    0    0  501 -0.00000000000E+00 -0.00000000000E+00 -0.24298554937E+02  0.24298554937E+02  0.00000000000E+00 0.  1.
         25    2    1    2    0    0  0.16186273579E+02 -0.71210106589E+02  0.33173584249E+03  0.36197826835E+03  0.12508686115E+03 0.  0.
          5    1    3    3  502    0  0.67542099007E+02 -0.17248225774E+02  0.14701906333E+03  0.16276213876E+03  0.41800000000E+01 0.  1.
         -5    1    3    3    0  502 -0.51355825427E+02 -0.53961880814E+02  0.18471677916E+03  0.19921612959E+03  0.41800000000E+01 0.  1.
        -11    1    1    2    0    0 -0.27482961899E+02  0.86838164480E+02  0.34455311847E+03  0.35638887672E+03  0.00000000000E+00 0. -1.
         11    1    1    2    0    0  0.11296688320E+02 -0.15628057892E+02  0.25261444867E+02  0.31780370627E+02  0.00000000000E+00 0.  1.
</event>
<event>
 7    1  0.2522928E-009  0.1328051E+03  0.7561462E-02  0.1223352E+00
          2   -1    0    0  501    0  0.00000000000E+00  0.00000000000E+00  0.21688445345E+03  0.21688445345E+03  0.00000000000E+00 0. -1.
         -2   -1    0    0    0  501 -0.00000000000E+00 -0.00000000000E+00 -0.10483208115E+03  0.10483208115E+03  0.00000000000E+00 0.  1.
         25    2    1    2    0    0  0.79444235252E+02  0.41926925577E+02  0.49965077760E+01  0.15408157178E+03  0.12508761757E+03 0.  0.
          5    1    3    3  502    0  0.38104442108E+00 -0.37816029001E+02  0.15786052368E+02  0.41193070942E+02  0.41800000000E+01 0. -1.
         -5    1    3    3    0  502  0.79063190831E+02  0.79742954577E+02 -0.10789544592E+02  0.11288850084E+03  0.41800000000E+01 0. -1.
        -11    1    1    2    0    0 -0.89920422557E+02 -0.21838587422E+02  0.47706314370E+02  0.10410811075E+03  0.00000000000E+00 0.  1.
         11    1    1    2    0    0  0.10476187306E+02 -0.20088338155E+02  0.59349550150E+02  0.63526852066E+02  0.00000000000E+00 0. -1.
</event>
<event>
 7    1  0.2652875E-009  0.6292236E+02  0.7561462E-02  0.1385962E+00
          1   -1    0    0  501    0  0.00000000000E+00  0.00000000000E+00  0.36845566488E+03  0.36845566488E+03  0.00000000000E+00 0. -1.
         -1   -1    0    0    0  501 -0.00000000000E+00 -0.00000000000E+00 -0.36133944202E+02  0.36133944202E+02  0.00000000000E+00 0.  1.
         25    2    1    2    0    0  0.20286168297E+02  0.12248766168E+02  0.13357109717E+03  0.18452672781E+03  0.12508922568E+03 0.  0.
          5    1    3    3  502    0  0.25511250621E+02 -0.20146926342E+02  0.14566428875E+03  0.14930599441E+03  0.41800000000E+01 0. -1.
         -5    1    3    3    0  502 -0.52250823242E+01  0.32395692510E+02 -0.12093191583E+02  0.35220733399E+02  0.41800000000E+01 0. -1.
        -11    1    1    2    0    0  0.80418201718E+01  0.17286721514E+02  0.20793058840E+01  0.19178767566E+02  0.00000000000E+00 0.  1.
         11    1    1    2    0    0 -0.28327988469E+02 -0.29535487682E+02  0.19667131762E+03  0.20088411370E+03  0.00000000000E+00 0. -1.
</event>
<event>
 7    1  0.2522928E-009  0.9898981E+02  0.7561462E-02  0.1282435E+00
          1   -1    0    0  501    0  0.00000000000E+00  0.00000000000E+00  0.35161852997E+03  0.35161852997E+03  0.00000000000E+00 0. -1.
         -1   -1    0    0    0  501 -0.00000000000E+00 -0.00000000000E+00 -0.36603075390E+02  0.36603075390E+02  0.00000000000E+00 0.  1.
         25    2    1    2    0    0  0.63051325466E+01  0.19679380689E+02  0.12997091578E+03  0.18156248162E+03  0.12508182547E+03 0.  0.
          5    1    3    3  502    0  0.53183247136E+02 -0.11481384554E+02  0.20307093862E+02  0.58224826563E+02  0.41800000000E+01 0.  1.
         -5    1    3    3    0  502 -0.46878114589E+02  0.31160765243E+02  0.10966382192E+03  0.12333765506E+03  0.41800000000E+01 0.  1.
        -11    1    1    2    0    0  0.30248622294E+02 -0.35925930155E+02  0.13279631779E+03  0.14085635813E+03  0.00000000000E+00 0. -1.
         11    1    1    2    0    0 -0.36553754841E+02  0.16246549466E+02  0.52248221016E+02  0.65802765609E+02  0.00000000000E+00 0.  1.
</event>
<event>
 7    1  0.2522928E-009  0.9841023E+02  0.7561462E-02  0.1283675E+00
          2   -1    0    0  501    0  0.00000000000E+00  0.00000000000E+00  0.16301779618E+02  0.16301779618E+02  0.00000000000E+00 0. -1.
         -2   -1    0    0    0  501 -0.00000000000E+00 -0.00000000000E+00 -0.83338869325E+03  0.83338869325E+03  0.00000000000E+00 0.  1.
         25    2    1    2    0    0  0.42356102938E+02 -0.27524841051E+01 -0.49030953055E+03  0.50779258525E+03  0.12509299843E+03 0.  0.
          5    1    3    3  502    0 -0.23989668911E+02 -0.20128888542E+02 -0.35140909894E+03  0.35282644967E+03  0.41800000000E+01 0. -1.
         -5    1    3    3    0  502  0.66345771850E+02  0.17376404437E+02 -0.13890043161E+03  0.15496613558E+03  0.41800000000E+01 0. -1.
        -11    1    1    2    0    0 -0.10624611661E+02 -0.41064181521E+02 -0.19278716800E+03  0.19739818014E+03  0.00000000000E+00 0. -1.
         11    1    1    2    0    0 -0.31731491277E+02  0.43816665626E+02 -0.13399021508E+03  0.14449970748E+03  0.00000000000E+00 0.  1.
</event>
<event>
 7    1  0.2522928E-009  0.1153151E+03  0.7561462E-02  0.1251032E+00
          1   -1    0    0  501    0  0.00000000000E+00  0.00000000000E+00  0.69786419403E+02  0.69786419403E+02  0.00000000000E+00 0. -1.
         -1   -1    0    0    0  501 -0.00000000000E+00 -0.00000000000E+00 -0.30923446632E+03  0.30923446632E+03  0.00000000000E+00 0.  1.
         25    2    1    2    0    0  0.57097359331E+02  0.25086060360E+02 -0.30733554819E+02  0.14312067862E+03  0.12509819499E+03 0.  0.
          5    1    3    3  502    0 -0.33159952629E+02  0.34754529794E+02 -0.17485753687E+02  0.51290191865E+02  0.41800000000E+01 0.  1.
         -5    1    3    3    0  502  0.90257311959E+02 -0.96684694344E+01 -0.13247801132E+02  0.91830486758E+02  0.41800000000E+01 0.  1.
        -11    1    1    2    0    0 -0.45436258173E+02  0.16510105548E+02 -0.17367168253E+03  0.18027448643E+03  0.00000000000E+00 0.  1.
         11    1    1    2    0    0 -0.11661101158E+02 -0.41596165908E+02 -0.35042809568E+02  0.55625720677E+02  0.00000000000E+00 0. -1.
</event>
<event>
 7    1  0.2522928E-009  0.1026419E+03  0.7561462E-02  0.1274837E+00
         -1   -1    0    0    0  501 -0.00000000000E+00  0.00000000000E+00  0.21622816220E+02  0.21622816220E+02  0.00000000000E+00 0.  1.
          1   -1    0    0  501    0  0.00000000000E+00 -0.00000000000E+00 -0.70675638296E+03  0.70675638296E+03  0.00000000000E+00 0. -1.
         25    2    1    2    0    0 -0.21939796878E+01  0.17693573917E+02 -0.54656466180E+03  0.56097967235E+03  0.12508951655E+03 0.  0.
          5    1    3    3  502    0  0.22687716476E+02 -0.42761724462E+02 -0.35966274553E+03  0.36292982859E+03  0.41800000000E+01 0.  1.
         -5    1    3    3    0  502 -0.24881696164E+02  0.60455298379E+02 -0.18690191627E+03  0.19804984376E+03  0.41800000000E+01 0.  1.
        -11    1    1    2    0    0  0.35050187175E+02  0.20658679965E+02 -0.42313883831E+02  0.58700608547E+02  0.00000000000E+00 0.  1.
         11    1    1    2    0    0 -0.32856207487E+02 -0.38352253882E+02 -0.96255021102E+02  0.10869891828E+03  0.00000000000E+00 0. -1.
</event>
<event>
 7    1  0.2522928E-009  0.1211331E+03  0.7561462E-02  0.1241239E+00
          2   -1    0    0  501    0  0.00000000000E+00  0.00000000000E+00  0.10132635851E+03  0.10132635851E+03  0.00000000000E+00 0. -1.
         -2   -1    0    0    0  501 -0.00000000000E+00 -0.00000000000E+00 -0.18143473360E+03  0.18143473360E+03  0.00000000000E+00 0.  1.
         25    2    1    2    0    0  0.25810108492E+02 -0.73560120469E+02 -0.10738158192E+02  0.14778324066E+03  0.12508926875E+03 0.  0.
          5    1    3    3  502    0 -0.16797275085E+02 -0.88620735782E+02  0.20619769273E+02  0.92619817241E+02  0.41800000000E+01 0. -1.
         -5    1    3    3    0  502  0.42607383577E+02  0.15060615313E+02 -0.31357927465E+02  0.55163423424E+02  0.41800000000E+01 0. -1.
        -11    1    1    2    0    0  0.11911568923E+02 -0.95824468661E+01  0.61635709018E+01  0.16483275415E+02  0.00000000000E+00 0. -1.
         11    1    1    2    0    0 -0.37721677415E+02  0.83142567335E+02 -0.75533787792E+02  0.11849457603E+03  0.00000000000E+00 0.  1.
</event>
<event>
 7    1  0.2522928E-009  0.9039733E+02  0.7561462E-02  0.1301892E+00
          2   -1    0    0  501    0  0.00000000000E+00  0.00000000000E+00  0.27227016479E+03  0.27227016479E+03  0.00000000000E+00 0. -1.
         -2   -1    0    0    0  501 -0.00000000000E+00 -0.00000000000E+00 -0.59462137513E+02  0.59462137513E+02  0.00000000000E+00 0.  1.
         25    2    1    2    0    0 -0.42613940545E+02 -0.25391496279E+02  0.17453651986E+03  0.22038916618E+03  0.12509081418E+03 0.  0.
          5    1    3    3  502    0 -0.24069303059E+02  0.20454319230E+02 -0.66325582632E+01  0.32544949747E+02  0.41800000000E+01 0. -1.
         -5    1    3    3    0  502 -0.18544637485E+02 -0.45845815509E+02  0.18116907812E+03  0.18784421643E+03  0.41800000000E+01 0. -1.
        -11    1    1    2    0    0  0.65504102498E+02  0.35241457037E+02  0.43089828538E+02  0.85962090840E+02  0.00000000000E+00 0. -1.
         11    1    1    2    0    0 -0.22890161954E+02 -0.98499607585E+01 -0.48183211212E+01  0.25381045282E+02  0.00000000000E+00 0.  1.
</event>
<event>
 7    1  0.2522928E-009  0.1241240E+03  0.7561462E-02  0.1236445E+00
         -2   -1    0    0    0  501 -0.00000000000E+00  0.00000000000E+00  0.21708337382E+03  0.21708337382E+03  0.00000000000E+00 0. -1.
          2   -1    0    0  501    0  0.00000000000E+00 -0.00000000000E+00 -0.72910948317E+02  0.72910948317E+02  0.00000000000E+00 0.  1.
         25    2    1    2    0    0 -0.59291683956E+02 -0.11672248691E+02  0.87820581498E+02  0.16435317005E+03  0.12509102603E+03 0.  0.
          5    1    3    3  502    0  0.39136009094E+02 -0.11943933695E+01  0.31230268681E+02  0.50257893561E+02  0.41800000000E+01 0.  1.
         -5    1    3    3    0  502 -0.98427693050E+02 -0.10477855322E+02  0.56590312817E+02  0.11409527648E+03  0.41800000000E+01 0.  1.
        -11    1    1    2    0    0  0.22777641420E+02  0.51169275531E+02  0.15552588363E+02  0.58129155437E+02  0.00000000000E+00 0.  1.
         11    1    1    2    0    0  0.36514042536E+02 -0.39497026840E+02  0.40799255645E+02  0.67511996658E+02  0.00000000000E+00 0. -1.
</event>
<event>
 7    1  0.2522928E-009  0.1940558E+03  0.7561462E-02  0.1154853E+00
         -1   -1    0    0    0  501 -0.00000000000E+00  0.00000000000E+00  0.58562380818E+02  0.58562380818E+02  0.00000000000E+00 0.  1.
          1   -1    0    0  501    0  0.00000000000E+00 -0.00000000000E+00 -0.79752532446E+03  0.79752532446E+03  0.00000000000E+00 0. -1.
         25    2    1    2    0    0 -0.15897283276E+03  0.34763909856E+02 -0.24025602481E+03  0.31599171875E+03  0.12508764078E+03 0.  0.
          5    1    3    3  502    0 -0.14724244407E+02 -0.23026100279E+02 -0.10926806257E+03  0.11271196283E+03  0.41800000000E+01 0. -1.
         -5    1    3    3    0  502 -0.14424858836E+03  0.57790010136E+02 -0.13098796224E+03  0.20327975592E+03  0.41800000000E+01 0. -1.
        -11    1    1    2    0    0  0.98553352234E+02  0.42163706993E+02 -0.30092044400E+03  0.31944272576E+03  0.00000000000E+00 0. -1.
         11    1    1    2    0    0  0.60419480528E+02 -0.76927616849E+02 -0.19778647482E+03  0.22065326076E+03  0.00000000000E+00 0.  1.
</event>
<event>
 7    1  0.2522928E-009  0.7836211E+02  0.7561462E-02  0.1333765E+00
         -1   -1    0    0    0  501 -0.00000000000E+00  0.00000000000E+00  0.10096193796E+03  0.10096193796E+03  0.00000000000E+00 0.  1.
          1   -1    0    0  501    0  0.00000000000E+00 -0.00000000000E+00 -0.15897643696E+03  0.15897643696E+03  0.00000000000E+00 0. -1.
         25    2    1    2    0    0  0.34646324365E+02  0.34847352856E+02  0.15132690238E+02  0.13524511884E+03  0.12509011976E+03 0.  0.
          5    1    3    3  502    0  0.33491640594E+02  0.53461705109E+02  0.59572923882E+02  0.86869151963E+02  0.41800000000E+01 0.  1.
         -5    1    3    3    0  502  0.11546837711E+01 -0.18614352254E+02 -0.44440233645E+02  0.48375966872E+02  0.41800000000E+01 0.  1.
        -11    1    1    2    0    0  0.42562180790E+00 -0.39060640831E+02 -0.79707741651E+02  0.88765077002E+02  0.00000000000E+00 0. -1.
         11    1    1    2    0    0 -0.35071946173E+02  0.42132879754E+01  0.65605524181E+01  0.35928179079E+02  0.00000000000E+00 0.  1.
</event>
<event>
 7    1  0.2522928E-009  0.2059459E+03  0.7561462E-02  0.1144817E+00
          1   -1    0    0  501    0  0.00000000000E+00  0.00000000000E+00  0.40251638912E+03  0.40251638912E+03  0.00000000000E+00 0. -1.
         -1   -1    0    0    0  501 -0.00000000000E+00 -0.00000000000E+00 -0.13750964591E+03  0.13750964591E+03  0.00000000000E+00 0.  1.
         25    2    1    2    0    0  0.12012413738E+03  0.13893239658E+03  0.23196531138E+02  0.22342297972E+03  0.12509088540E+03 0.  0.
          5    1    3    3  502    0  0.20862234885E+02  0.97779410390E+02  0.51051877460E+02  0.11233793897E+03  0.41800000000E+01 0.  1.
         -5    1    3    3    0  502  0.99261902494E+02  0.41152986194E+02 -0.27855346323E+02  0.11108504075E+03  0.41800000000E+01 0.  1.
        -11    1    1    2    0    0 -0.39882235611E+02 -0.11320212196E+03  0.13776694135E+03  0.18271574443E+03  0.00000000000E+00 0.  1.
         11    1    1    2    0    0 -0.80241901768E+02 -0.25730274621E+02  0.10404327073E+03  0.13388731088E+03  0.00000000000E+00 0. -1.
</event>
<event>
 7    1  0.2522928E-009  0.1784993E+03  0.7561462E-02  0.1169263E+00
         -2   -1    0    0    0  501 -0.00000000000E+00  0.00000000000E+00  0.38298011233E+02  0.38298011233E+02  0.00000000000E+00 0.  1.
          2   -1    0    0  501    0  0.00000000000E+00 -0.00000000000E+00 -0.13002173011E+04  0.13002173011E+04  0.00000000000E+00 0. -1.
         25    2    1    2    0    0  0.10170942108E+03  0.14398681342E+03 -0.90939115288E+03  0.93472977973E+03  0.12510189212E+03 0.  0.
          5    1    3    3  502    0  0.22715914919E+02  0.64011516016E+02 -0.12508575095E+03  0.14239875162E+03  0.41800000000E+01 0. -1.
         -5    1    3    3    0  502  0.78993506161E+02  0.79975297400E+02 -0.78430540193E+03  0.79233102811E+03  0.41800000000E+01 0. -1.
        -11    1    1    2    0    0 -0.25776777645E+02 -0.42581180532E+02 -0.19700359245E+03  0.20319452414E+03  0.00000000000E+00 0. -1.
         11    1    1    2    0    0 -0.75932643434E+02 -0.10140563288E+03 -0.15552454451E+03  0.20059100844E+03  0.00000000000E+00 0.  1.
</event>
<event>
 7    1  0.2522928E-009  0.2618105E+03  0.7561462E-02  0.1106060E+00
         -2   -1    0    0    0  501 -0.00000000000E+00  0.00000000000E+00  0.31903563115E+03  0.31903563115E+03  0.00000000000E+00 0.  1.
          2   -1    0    0  501    0  0.00000000000E+00 -0.00000000000E+00 -0.21705860530E+03  0.21705860530E+03  0.00000000000E+00 0. -1.
         25    2    1    2    0    0 -0.14815702390E+03  0.18622723416E+03  0.55762217572E+02  0.27457135351E+03  0.12509563057E+03 0.  0.
          5    1    3    3  502    0 -0.53789900230E+02 -0.37238712325E+01  0.27137375110E+02  0.60507273212E+02  0.41800000000E+01 0. -1.
         -5    1    3    3    0  502 -0.94367123668E+02  0.18995110539E+03  0.28624842462E+02  0.21406408030E+03  0.41800000000E+01 0. -1.
        -11    1    1    2    0    0  0.10211671514E+03 -0.50194386607E+02  0.21457404988E+02  0.11579171036E+03  0.00000000000E+00 0. -1.
         11    1    1    2    0    0  0.46040308753E+02 -0.13603284756E+03  0.24757403283E+02  0.14573117258E+03  0.00000000000E+00 0.  1.
</event>
<event>
 7    1  0.2522928E-009  0.1283060E+03  0.7561462E-02  0.1229991E+00
          1   -1    0    0  501    0  0.00000000000E+00  0.00000000000E+00  0.29827746753E+03  0.29827746753E+03  0.00000000000E+00 0. -1.
         -1   -1    0    0    0  501 -0.00000000000E+00 -0.00000000000E+00 -0.71396953256E+02  0.71396953256E+02  0.00000000000E+00 0.  1.
         25    2    1    2    0    0 -0.17132811235E+01  0.94717507900E+02  0.94777024069E+02  0.18331645313E+03  0.12509155072E+03 0.  0.
          5    1    3    3  502    0 -0.13995582725E+02  0.12191035339E+03  0.91258504678E+02  0.15298234433E+03  0.41800000000E+01 0.  1.
         -5    1    3    3    0  502  0.12282301602E+02 -0.27192845488E+02  0.35185193907E+01  0.30334108806E+02  0.41800000000E+01 0.  1.
        -11    1    1    2    0    0 -0.20127716547E+02 -0.39825199788E+02  0.34106059222E+01  0.44752695386E+02  0.00000000000E+00 0.  1.
         11    1    1    2    0    0  0.21840997671E+02 -0.54892308112E+02  0.12869288428E+03  0.14160527227E+03  0.00000000000E+00 0. -1.
</event>
<event>
 7    1  0.2522928E-009  0.1244264E+03  0.7561462E-02  0.1235968E+00
         -2   -1    0    0    0  501 -0.00000000000E+00  0.00000000000E+00  0.39875956475E+02  0.39875956475E+02  0.00000000000E+00 0.  1.
          2   -1    0    0  501    0  0.00000000000E+00 -0.00000000000E+00 -0.51738268030E+03  0.51738268030E+03  0.00000000000E+00 0. -1.
         25    2    1    2    0    0 -0.39458879427E+02  0.88651341708E+02 -0.25134736878E+03  0.29704841057E+03  0.12508475079E+03 0.  0.
          5    1    3    3  502    0 -0.10629336388E+02 -0.23411545246E+02 -0.75001210873E+01  0.27107332203E+02  0.41800000000E+01 0.  1.
         -5    1    3    3    0  502 -0.28829543038E+02  0.11206288695E+03 -0.24384724769E+03  0.26994107837E+03  0.41800000000E+01 0.  1.
        -11    1    1    2    0    0 -0.60528209057E+01 -0.39769697122E+02 -0.22965899514E+02  0.46321679488E+02  0.00000000000E+00 0.  1.
         11    1    1    2    0    0  0.45511700332E+02 -0.48881644586E+02 -0.20319345553E+03  0.21388854671E+03  0.00000000000E+00 0. -1.
</event>
<event>
 7    1  0.2522928E-009  0.1134834E+03  0.7561462E-02  0.1254252E+00
         -2   -1    0    0    0  501 -0.00000000000E+00  0.00000000000E+00  0.38977210790E+02  0.38977210790E+02  0.00000000000E+00 0.  1.
          2   -1    0    0  501    0  0.00000000000E+00 -0.00000000000E+00 -0.47533435872E+03  0.47533435872E+03  0.00000000000E+00 0. -1.
         25    2    1    2    0    0  0.10190909065E+02 -0.79222607362E+02 -0.20897494517E+03  0.25631472923E+03  0.12508651632E+03 0.  0.
          5    1    3    3  502    0  0.38206657325E+02 -0.32039419786E+02 -0.11536705738E+02  0.51350180754E+02  0.41800000000E+01 0.  1.
         -5    1    3    3    0  502 -0.28015748260E+02 -0.47183187576E+02 -0.19743823944E+03  0.20496454848E+03  0.41800000000E+01 0.  1.
        -11    1    1    2    0    0  0.31477994859E+02 -0.10041200419E+01 -0.57859254723E+02  0.65875380640E+02  0.00000000000E+00 0.  1.
         11    1    1    2    0    0 -0.41668903924E+02  0.80226727404E+02 -0.16952294803E+03  0.19212145964E+03  0.00000000000E+00 0. -1.
</event>
<event>
 7    1  0.2522928E-009  0.1343138E+03  0.7561462E-02  0.1221192E+00
         -1   -1    0    0    0  501 -0.00000000000E+00  0.00000000000E+00  0.13556447803E+02  0.13556447803E+02  0.00000000000E+00 0.  1.
          1   -1    0    0  501    0  0.00000000000E+00 -0.00000000000E+00 -0.18370009436E+04  0.18370009436E+04  0.00000000000E+00 0. -1.
         25    2    1    2    0    0 -0.38084343406E+02 -0.76867880412E+02 -0.14148976808E+04  0.14230044404E+04  0.12508837703E+03 0.  0.
          5    1    3    3  502    0 -0.32837416816E+02 -0.10822102563E+03 -0.12430675376E+04  0.12482085009E+04  0.41800000000E+01 0. -1.
         -5    1    3    3    0  502 -0.52469265896E+01  0.31353145219E+02 -0.17183014320E+03  0.17479593950E+03  0.41800000000E+01 0. -1.
        -11    1    1    2    0    0  0.19721026157E+01  0.86098534093E+02 -0.24144527658E+03  0.25634482313E+03  0.00000000000E+00 0.  1.
         11    1    1    2    0    0  0.36112240790E+02 -0.92306536813E+01 -0.16710153839E+03  0.17120812783E+03  0.00000000000E+00 0. -1.
</event>
<event>
 7    1  0.2522928E-009  0.1160507E+03  0.7561462E-02  0.1249758E+00
          1   -1    0    0  501    0  0.00000000000E+00  0.00000000000E+00  0.43112418809E+03  0.43112418809E+03  0.00000000000E+00 0. -1.
         -1   -1    0    0    0  501 -0.00000000000E+00 -0.00000000000E+00 -0.52659364630E+02  0.52659364630E+02  0.00000000000E+00 0.  1.
         25    2    1    2    0    0 -0.26781902764E+02  0.58514973225E+02  0.34625250916E+03  0.37373807257E+03  0.12509226349E+03 0.  0.
          5    1    3    3  502    0  0.82058945844E+01 -0.31789050872E+02  0.36966394838E+02  0.49617206779E+02  0.41800000000E+01 0. -1.
         -5    1    3    3    0  502 -0.34987797348E+02  0.90304024097E+02  0.30928611432E+03  0.32412086579E+03  0.41800000000E+01 0. -1.
        -11    1    1    2    0    0  0.12485772543E+02 -0.77390803101E+02  0.35652765682E+02  0.86118236289E+02  0.00000000000E+00 0. -1.
         11    1    1    2    0    0  0.14296130221E+02  0.18875829876E+02 -0.34404513844E+01  0.23927243856E+02  0.00000000000E+00 0.  1.
</event>
<event>
 7    1  0.2522928E-009  0.1047282E+03  0.7561462E-02  0.1270656E+00
          2   -1    0    0  501    0  0.00000000000E+00  0.00000000000E+00  0.53401199213E+02  0.53401199213E+02  0.00000000000E+00 0. -1.
         -2   -1    0    0    0  501 -0.00000000000E+00 -0.00000000000E+00 -0.37235885232E+03  0.37235885232E+03  0.00000000000E+00 0.  1.
         25    2    1    2    0    0 -0.23762785946E+02  0.80254270192E+02 -0.22393089543E+03  0.26981087192E+03  0.12508973899E+03 0.  0.
          5    1    3    3  502    0 -0.38630110154E+02  0.73123063402E+02 -0.53614560497E+02  0.98647155606E+02  0.41800000000E+01 0.  1.
         -5    1    3    3    0  502  0.14867324209E+02  0.71312067899E+01 -0.17031633493E+03  0.17116371632E+03  0.41800000000E+01 0.  1.
        -11    1    1    2    0    0 -0.14934546678E+02 -0.67140333498E+02 -0.92149924487E+02  0.11498901534E+03  0.00000000000E+00 0.  1.
         11    1    1    2    0    0  0.38697332623E+02 -0.13113936693E+02 -0.28768331960E+01  0.40960164270E+02  0.00000000000E+00 0. -1.
</event>
<event>
 7    1  0.2522928E-009  0.5802356E+02  0.7561462E-02  0.1406318E+00
          2   -1    0    0  501    0  0.00000000000E+00  0.00000000000E+00  0.52820461674E+03  0.52820461674E+03  0.00000000000E+00 0. -1.
         -2   -1    0    0    0  501 -0.00000000000E+00 -0.00000000000E+00 -0.22732174134E+02  0.22732174134E+02  0.00000000000E+00 0.  1.
         25    2    1    2    0    0  0.55890928682E+01 -0.14577966255E+02  0.28715996985E+03  0.31363357192E+03  0.12514557161E+03 0.  0.
          5    1    3    3  502    0 -0.90519229571E+01 -0.54061705092E+01  0.29427053630E+03  0.29448902343E+03  0.41800000000E+01 0.  1.
         -5    1    3    3    0  502  0.14641015825E+02 -0.91717957455E+01 -0.71105664511E+01  0.19144548489E+02  0.41800000000E+01 0.  1.
        -11    1    1    2    0    0 -0.42825270514E+02  0.23204543862E+02  0.78703123425E+02  0.92556125066E+02  0.00000000000E+00 0. -1.
         11    1    1    2    0    0  0.37236177646E+02 -0.86265776069E+01  0.13960934933E+03  0.14474709388E+03  0.00000000000E+00 0.  1.
</event>
<event>
 7    1  0.2522928E-009  0.8530725E+02  0.7561462E-02  0.1314631E+00
          2   -1    0    0  501    0  0.00000000000E+00  0.00000000000E+00  0.10240074068E+03  0.10240074068E+03  0.00000000000E+00 0. -1.
         -2   -1    0    0    0  501 -0.00000000000E+00 -0.00000000000E+00 -0.13819745207E+03  0.13819745207E+03  0.00000000000E+00 0.  1.
         25    2    1    2    0    0 -0.41537174279E+02  0.22326368162E+02 -0.63415262526E+01  0.13382079645E+03  0.12507592512E+03 0.  0.
          5    1    3    3  502    0  0.20410075900E+02 -0.67225551007E+01  0.43749921573E+02  0.48921283538E+02  0.41800000000E+01 0.  1.
         -5    1    3    3    0  502 -0.61947250180E+02  0.29048923263E+02 -0.50091447825E+02  0.84899512913E+02  0.41800000000E+01 0.  1.
        -11    1    1    2    0    0  0.53995737714E+02  0.69377714268E+00  0.14236243255E+02  0.55845247246E+02  0.00000000000E+00 0. -1.
         11    1    1    2    0    0 -0.12458563434E+02 -0.23020145305E+02 -0.43691428391E+02  0.50932149057E+02  0.00000000000E+00 0.  1.
</event>
<event>
 6    1  0.2522928E-009  0.1030951E+03  0.7561462E-02  0.1273919E+00
         -2   -1    0    0    0  501 -0.00000000000E+00  0.00000000000E+00  0.44507634633E+02  0.44507634633E+02  0.00000000000E+00 0.  1.
          2   -1    0    0  501    0  0.00000000000E+00 -0.00000000000E+00 -0.43878417968E+03  0.43878417968E+03  0.00000000000E+00 0. -1.
          5    1    1    2  502    0  0.38664867171E+02  0.21289000943E+02 -0.61436204541E+02  0.75763270408E+02  0.41800000000E+01 0. -1.
         -5    1    1    2    0  502 -0.72758652642E+02 -0.10298715024E+02 -0.28481997755E+03  0.29417643869E+03  0.41800000000E+01 0. -1.
        -11    1    1    2    0    0  0.57351931397E+02 -0.23338694408E+02 -0.39888610798E+01  0.62047157101E+02  0.00000000000E+00 0.  1.
         11    1    1    2    0    0 -0.23258145925E+02  0.12348408489E+02 -0.44031501873E+02  0.51304948117E+02  0.00000000000E+00 0. -1.
</event>
<event>
 7    1  0.2522928E-009  0.1109130E+03  0.7561462E-02  0.1258888E+00
          2   -1    0    0  501    0  0.00000000000E+00  0.00000000000E+00  0.90494707819E+02  0.90494707819E+02  0.00000000000E+00 0. -1.
         -2   -1    0    0    0  501 -0.00000000000E+00 -0.00000000000E+00 -0.17558345417E+03  0.17558345417E+03  0.00000000000E+00 0.  1.
         25    2    1    2    0    0 -0.10219261195E+02  0.57269581608E+02 -0.16240344349E+02  0.13890664822E+03  0.12508824829E+03 0.  0.
          5    1    3    3  502    0 -0.51780252214E+02  0.69887219648E+01 -0.43467599864E+02  0.68095090807E+02  0.41800000000E+01 0.  1.
         -5    1    3    3    0  502  0.41560991019E+02  0.50280859643E+02  0.27227255515E+02  0.70811557417E+02  0.41800000000E+01 0.  1.
        -11    1    1    2    0    0  0.28636865057E+02 -0.73882561215E+02 -0.38857883188E+02  0.88253260438E+02  0.00000000000E+00 0.  1.
         11    1    1    2    0    0 -0.18417603862E+02  0.16612979608E+02 -0.29990518819E+02  0.38918253333E+02  0.00000000000E+00 0. -1.
</event>
<event>
 7    1  0.2522928E-009  0.1133203E+03  0.7561462E-02  0.1254542E+00
         -2   -1    0    0    0  501 -0.00000000000E+00  0.00000000000E+00  0.16155214634E+03  0.16155214634E+03  0.00000000000E+00 0.  1.
          2   -1    0    0  501    0  0.00000000000E+00 -0.00000000000E+00 -0.21462592461E+03  0.21462592461E+03  0.00000000000E+00 0. -1.
         25    2    1    2    0    0  0.66308001037E+02  0.63742372738E+02 -0.14872299671E+03  0.21500016079E+03  0.12508676311E+03 0.  0.
          5    1    3    3  502    0  0.89593081831E+01  0.51279261163E+02 -0.14715089051E+03  0.15614316766E+03  0.41800000000E+01 0.  1.
         -5    1    3    3    0  502  0.57348692854E+02  0.12463111575E+02 -0.15721061974E+01  0.58856993128E+02  0.41800000000E+01 0.  1.
        -11    1    1    2    0    0 -0.62546926744E+02 -0.78488862353E+02  0.48178485158E+02  0.11132738203E+03  0.00000000000E+00 0. -1.
         11    1    1    2    0    0 -0.37610742926E+01  0.14746489615E+02  0.47470733285E+02  0.49850528125E+02  0.00000000000E+00 0.  1.
</event>
<event>
 7    1  0.2522928E-009  0.8256190E+02  0.7561462E-02  0.1321934E+00
          2   -1    0    0  501    0  0.00000000000E+00  0.00000000000E+00  0.14983012265E+03  0.14983012265E+03  0.00000000000E+00 0.  1.
         -2   -1    0    0    0  501 -0.00000000000E+00 -0.00000000000E+00 -0.83851117211E+02  0.83851117211E+02  0.00000000000E+00 0. -1.
         25    2    1    2    0    0  0.19414544132E+02 -0.43922733752E+01  0.63758362399E+02  0.14180329386E+03  0.12508728466E+03 0.  0.
          5    1    3    3  502    0  0.42651314002E+02 -0.17792818223E+02 -0.22358886530E+02  0.51508360227E+02  0.41800000000E+01 0. -1.
         -5    1    3    3    0  502 -0.23236769871E+02  0.13400544848E+02  0.86117248929E+02  0.90294933630E+02  0.41800000000E+01 0. -1.
        -11    1    1    2    0    0  0.58189262095E+01 -0.40048358965E+02 -0.25617683695E+01  0.40549890446E+02  0.00000000000E+00 0. -1.
         11    1    1    2    0    0 -0.25233470341E+02  0.44440632340E+02  0.47824114078E+01  0.51328055556E+02  0.00000000000E+00 0.  1.
</event>
<event>
 7    1  0.2522928E-009  0.9855503E+02  0.7561462E-02  0.1283364E+00
          2   -1    0    0  501    0  0.00000000000E+00  0.00000000000E+00  0.78632454696E+02  0.78632454696E+02  0.00000000000E+00 0. -1.
         -2   -1    0    0    0  501 -0.00000000000E+00 -0.00000000000E+00 -0.17113462718E+03  0.17113462718E+03  0.00000000000E+00 0.  1.
         25    2    1    2    0    0 -0.38935325146E+02 -0.42039068257E+01 -0.46724728044E+02  0.13915496540E+03  0.12508905551E+03 0.  0.
          5    1    3    3  502    0 -0.54386515359E+02 -0.34488310503E+02  0.17061920118E+02  0.66752663859E+02  0.41800000000E+01 0.  1.
         -5    1    3    3    0  502  0.15451190213E+02  0.30284403677E+02 -0.63786648162E+02  0.72402301543E+02  0.41800000000E+01 0.  1.
        -11    1    1    2    0    0  0.36004877724E+02  0.44880783812E+02 -0.38380879469E+02  0.69164498728E+02  0.00000000000E+00 0.  1.
         11    1    1    2    0    0  0.29304474218E+01 -0.40676876987E+02 -0.73965649743E+01  0.41447617747E+02  0.00000000000E+00 0. -1.
</event>
<event>
 7    1  0.2522928E-009  0.3231725E+03  0.7561462E-02  0.1074198E+00
         -2   -1    0    0    0  501 -0.00000000000E+00  0.00000000000E+00  0.79186912146E+03  0.79186912146E+03  0.00000000000E+00 0.  1.
          2   -1    0    0  501    0  0.00000000000E+00 -0.00000000000E+00 -0.30653086832E+03  0.30653086832E+03  0.00000000000E+00 0. -1.
         25    2    1    2    0    0  0.18409350341E+03 -0.26052072621E+03 -0.15594435491E+03  0.37646617773E+03  0.12508666738E+03 0.  0.
          5    1    3    3  502    0  0.12472039489E+03 -0.12032430707E+03 -0.14094967137E+03  0.22342201779E+03  0.41800000000E+01 0. -1.
         -5    1    3    3    0  502  0.59373108526E+02 -0.14019641914E+03 -0.14994683541E+02  0.15304415994E+03  0.41800000000E+01 0. -1.
        -11    1    1    2    0    0 -0.17742156465E+03  0.23587432303E+03  0.51938682092E+03  0.59739248205E+03  0.00000000000E+00 0. -1.
         11    1    1    2    0    0 -0.66719387621E+01  0.24646403180E+02  0.12189578713E+03  0.12454132999E+03  0.00000000000E+00 0.  1.
</event>
<event>
 7    1  0.2522928E-009  0.8450774E+02  0.7561462E-02  0.1316725E+00
          4   -1    0    0  501    0  0.00000000000E+00  0.00000000000E+00  0.13850243732E+03  0.13850243732E+03  0.00000000000E+00 0. -1.
         -4   -1    0    0    0  501 -0.00000000000E+00 -0.00000000000E+00 -0.99810692632E+02  0.99810692632E+02  0.00000000000E+00 0.  1.
         25    2    1    2    0    0  0.25733516638E+02  0.15257735516E+02  0.54428418423E+02  0.13967361132E+03  0.12510496631E+03 0.  0.
          5    1    3    3  502    0  0.33736296566E+02  0.47788032213E+02  0.78661291405E+02  0.98116792112E+02  0.41800000000E+01 0. -1.
         -5    1    3    3    0  502 -0.80027799277E+01 -0.32530296697E+02 -0.24232872982E+02  0.41556819208E+02  0.41800000000E+01 0. -1.
        -11    1    1    2    0    0 -0.50379781063E+02 -0.11543176100E+02  0.19702442125E+02  0.55313230606E+02  0.00000000000E+00 0. -1.
         11    1    1    2    0    0  0.24646264424E+02 -0.37145594159E+01 -0.35439115856E+02  0.43326288029E+02  0.00000000000E+00 0.  1.
</event>
<event>
 7    1  0.2522928E-009  0.2564226E+03  0.7561462E-02  0.1109312E+00
          2   -1    0    0  501    0  0.00000000000E+00  0.00000000000E+00  0.33197819678E+04  0.33197819678E+04  0.00000000000E+00 0.  1.
         -2   -1    0    0    0  501 -0.00000000000E+00 -0.00000000000E+00 -0.20389305019E+02  0.20389305019E+02  0.00000000000E+00 0. -1.
         25    2    1    2    0    0  0.59413198408E+02  0.22423055706E+03  0.19745487846E+04  0.19920587449E+04  0.12508345061E+03 0.  0.
          5    1    3    3  502    0  0.83369468897E+02  0.74824372865E+02  0.81747716820E+03  0.82512759501E+03  0.41800000000E+01 0.  1.
         -5    1    3    3    0  502 -0.23956270489E+02  0.14940618420E+03  0.11570716164E+04  0.11669311499E+04  0.41800000000E+01 0.  1.
        -11    1    1    2    0    0 -0.83265593724E+02 -0.15210276288E+03  0.92896671359E+03  0.94501193883E+03  0.00000000000E+00 0.  1.
         11    1    1    2    0    0  0.23852395316E+02 -0.72127794186E+02  0.39587716465E+03  0.40310058912E+03  0.00000000000E+00 0. -1.
</event>
<event>
 7    1  0.2522928E-009  0.2385314E+03  0.7561462E-02  0.1120775E+00
         -2   -1    0    0    0  501 -0.00000000000E+00  0.00000000000E+00  0.60130638982E+02  0.60130638982E+02  0.00000000000E+00 0.  1.
          2   -1    0    0  501    0  0.00000000000E+00 -0.00000000000E+00 -0.13382606523E+04  0.13382606523E+04  0.00000000000E+00 0. -1.
         25    2    1    2    0    0  0.22224018744E+03 -0.17684528855E+02 -0.98882632512E+03  0.10213368089E+04  0.12509169642E+03 0.  0.
          5    1    3    3  502    0  0.68176541439E+02 -0.56936608564E+02 -0.24343944024E+03  0.25917185739E+03  0.41800000000E+01 0. -1.
         -5    1    3    3    0  502  0.15406364600E+03  0.39252079709E+02 -0.74538688487E+03  0.76216495152E+03  0.41800000000E+01 0. -1.
        -11    1    1    2    0    0 -0.13472827209E+03 -0.15264816080E+02 -0.10909713048E+03  0.17403133565E+03  0.00000000000E+00 0.  1.
         11    1    1    2    0    0 -0.87511915346E+02  0.32949344935E+02 -0.18020655771E+03  0.20302314671E+03  0.00000000000E+00 0. -1.
</event>
<event>
 7    1  0.2522928E-009  0.2210801E+03  0.7561462E-02  0.1133080E+00
         -2   -1    0    0    0  501 -0.00000000000E+00  0.00000000000E+00  0.31501613667E+02  0.31501613667E+02  0.00000000000E+00 0.  1.
          2   -1    0    0  501    0  0.00000000000E+00 -0.00000000000E+00 -0.18646048817E+04  0.18646048817E+04  0.00000000000E+00 0. -1.
         25    2    1    2    0    0 -0.19920315365E+03  0.78548652616E+02 -0.10735287890E+04  0.11017993960E+04  0.12508421511E+03 0.  0.
          5    1    3    3  502    0 -0.16520167513E+03  0.74894381110E+02 -0.59538137061E+03  0.62241241204E+03  0.41800000000E+01 0. -1.
         -5    1    3    3    0  502 -0.34001478526E+02  0.36542715059E+01 -0.47814741838E+03  0.47938698391E+03  0.41800000000E+01 0. -1.
        -11    1    1    2    0    0  0.81283528576E+02 -0.71314791428E+02 -0.27395748832E+03  0.29452591889E+03  0.00000000000E+00 0.  1.
         11    1    1    2    0    0  0.11791962508E+03 -0.72338611880E+01 -0.48561699071E+03  0.49978118051E+03  0.00000000000E+00 0. -1.
</event>
<event>
 7    1  0.2522928E-009  0.1667193E+03  0.7561462E-02  0.1181313E+00
         -2   -1    0    0    0  501 -0.00000000000E+00  0.00000000000E+00  0.35316957676E+03  0.35316957676E+03  0.00000000000E+00 0.  1.
          2   -1    0    0  501    0  0.00000000000E+00 -0.00000000000E+00 -0.15718277166E+03  0.15718277166E+03  0.00000000000E+00 0. -1.
         25    2    1    2    0    0  0.48710138853E+02  0.15144469504E+03  0.24863846005E+03  0.32058403110E+03  0.12507943035E+03 0.  0.
          5    1    3    3  502    0  0.29014041589E+02  0.14941805209E+03  0.25697377562E+03  0.29869811292E+03  0.41800000000E+01 0.  1.
         -5    1    3    3    0  502  0.19696097265E+02  0.20266429468E+01 -0.83353155735E+01  0.21885918185E+02  0.41800000000E+01 0.  1.
        -11    1    1    2    0    0 -0.19812382389E+02 -0.99877216154E+02  0.11575378424E+02  0.10247915978E+03  0.00000000000E+00 0.  1.
         11    1    1    2    0    0 -0.28897756465E+02 -0.51567478886E+02 -0.64227033382E+02  0.87289157542E+02  0.00000000000E+00 0. -1.
</event>
<event>
 7    1  0.2522928E-009  0.1378782E+03  0.7561462E-02  0.1216213E+00
          1   -1    0    0  501    0  0.00000000000E+00  0.00000000000E+00  0.46335898103E+03  0.46335898103E+03  0.00000000000E+00 0. -1.
         -1   -1    0    0    0  501 -0.00000000000E+00 -0.00000000000E+00 -0.42595264019E+02  0.42595264019E+02  0.00000000000E+00 0.  1.
         25    2    1    2    0    0  0.77707300440E+02  0.41303702156E+02  0.22674552484E+03  0.27350575185E+03  0.12508973940E+03 0.  0.
          5    1    3    3  502    0  0.10329092895E+03  0.58415566261E+02  0.15442660351E+03  0.19479846677E+03  0.41800000000E+01 0.  1.
         -5    1    3    3    0  502 -0.25583628510E+02 -0.17111864105E+02  0.72318921337E+02  0.78707285077E+02  0.41800000000E+01 0.  1.
        -11    1    1    2    0    0 -0.10744414061E+02 -0.56315583728E+02  0.67883654200E+02  0.88854250949E+02  0.00000000000E+00 0.  1.
         11    1    1    2    0    0 -0.66962886379E+02  0.15011881571E+02  0.12613453797E+03  0.14359424226E+03  0.00000000000E+00 0. -1.
</event>
<event>
 7    1  0.2522928E-009  0.9690963E+02  0.7561462E-02  0.1286932E+00
         -1   -1    0    0    0  501 -0.00000000000E+00  0.00000000000E+00  0.13715761034E+02  0.13715761034E+02  0.00000000000E+00 0.  1.
          1   -1    0    0  501    0  0.00000000000E+00 -0.00000000000E+00 -0.90505109518E+03  0.90505109518E+03  0.00000000000E+00 0. -1.
         25    2    1    2    0    0  0.16196031099E+02  0.47794019334E+01 -0.58648030616E+03  0.59990788873E+03  0.12508065935E+03 0.  0.
          5    1    3    3  502    0  0.43474218136E+02 -0.33782181709E+02 -0.48221781694E+03  0.48536866279E+03  0.41800000000E+01 0.  1.
         -5    1    3    3    0  502 -0.27278187037E+02  0.38561583643E+02 -0.10426248922E+03  0.11453922595E+03  0.41800000000E+01 0.  1.
        -11    1    1    2    0    0  0.25028425371E+02  0.28698509856E+02 -0.16301077599E+03  0.16739934179E+03  0.00000000000E+00 0.  1.
         11    1    1    2    0    0 -0.41224456470E+02 -0.33477911789E+02 -0.14184425200E+03  0.15145962569E+03  0.00000000000E+00 0. -1.
</event>
<event>
 7    1  0.2522928E-009  0.1637895E+03  0.7561462E-02  0.1184484E+00
          1   -1    0    0  501    0  0.00000000000E+00  0.00000000000E+00  0.30077480305E+03  0.30077480305E+03  0.00000000000E+00 0. -1.
         -1   -1    0    0    0  501 -0.00000000000E+00 -0.00000000000E+00 -0.10475067449E+03  0.10475067449E+03  0.00000000000E+00 0.  1.
         25    2    1    2    0    0 -0.26254255583E+02 -0.13495688193E+03  0.13693401180E+03  0.23087266562E+03  0.12509443723E+03 0.  0.
          5    1    3    3  502    0 -0.64231346307E+02 -0.36411284141E+02  0.27956350204E+02  0.79059960650E+02  0.41800000000E+01 0.  1.
         -5    1    3    3    0  502  0.37977090724E+02 -0.98545597788E+02  0.10897766160E+03  0.15181270497E+03  0.41800000000E+01 0.  1.
        -11    1    1    2    0    0 -0.97236718666E+01  0.89191615233E+02  0.71984211635E+02  0.11502791290E+03  0.00000000000E+00 0.  1.
         11    1    1    2    0    0  0.35977927450E+02  0.45765266697E+02 -0.12894094875E+02  0.59624899011E+02  0.00000000000E+00 0. -1.
</event>
<event>
 7    1  0.2522928E-009  0.1077049E+03  0.7561462E-02  0.1264880E+00
         -1   -1    0    0    0  501 -0.00000000000E+00  0.00000000000E+00  0.10344867459E+02  0.10344867459E+02  0.00000000000E+00 0.  1.
          1   -1    0    0  501    0  0.00000000000E+00 -0.00000000000E+00 -0.16332543407E+04  0.16332543407E+04  0.00000000000E+00 0. -1.
         25    2    1    2    0    0  0.34195314120E+02 -0.48949571328E+02 -0.11457182061E+04  0.11540727491E+04  0.12509325482E+03 0.  0.
          5    1    3    3  502    0  0.64380612355E+02 -0.31044949595E+02 -0.33410462847E+03  0.34168995787E+03  0.41800000000E+01 0.  1.
         -5    1    3    3    0  502 -0.30185298235E+02 -0.17904621733E+02 -0.81161357764E+03  0.81238279125E+03  0.41800000000E+01 0.  1.
        -11    1    1    2    0    0  0.24374686263E+02 -0.90882309679E+01 -0.14030727111E+03  0.14269846389E+03  0.00000000000E+00 0.  1.
         11    1    1    2    0    0 -0.58570000383E+02  0.58037802296E+02 -0.33688399602E+03  0.34682799515E+03  0.00000000000E+00 0. -1.
</event>
<event>
 7    1  0.2522928E-009  0.1143271E+03  0.7561462E-02  0.1252760E+00
         -2   -1    0    0    0  501 -0.00000000000E+00  0.00000000000E+00  0.40442180619E+02  0.40442180619E+02  0.00000000000E+00 0.  1.
          2   -1    0    0  501    0  0.00000000000E+00 -0.00000000000E+00 -0.13388248160E+04  0.13388248160E+04  0.00000000000E+00 0. -1.
         25    2    1    2    0    0 -0.37530433764E+02 -0.31279327714E+02 -0.12629338062E+04  0.12700539253E+04  0.12509294283E+03 0.  0.
          5    1    3    3  502    0  0.95431624130E+01  0.40771976308E+02 -0.61145884274E+03  0.61290522494E+03  0.41800000000E+01 0.  1.
         -5    1    3    3    0  502 -0.47073596177E+02 -0.72051304022E+02 -0.65147496348E+03  0.65714870031E+03  0.41800000000E+01 0.  1.
        -11    1    1    2    0    0  0.54652966774E+02 -0.10140360385E+02 -0.67529775855E+01  0.55994431797E+02  0.00000000000E+00 0. -1.
         11    1    1    2    0    0 -0.17122533010E+02  0.41419688099E+02 -0.28695851543E+02  0.53218639542E+02  0.00000000000E+00 0.  1.
</event>
<event>
 7    1  0.2522928E-009  0.1180145E+03  0.7561462E-02  0.1246409E+00
         -2   -1    0    0    0  501 -0.00000000000E+00  0.00000000000E+00  0.23944961767E+03  0.23944961767E+03  0.00000000000E+00 0.  1.
          2   -1    0    0  501    0  0.00000000000E+00 -0.00000000000E+00 -0.68041069091E+02  0.68041069091E+02  0.00000000000E+00 0. -1.
         25    2    1    2    0    0  0.50514419930E+02 -0.42171066182E+02  0.94261289993E+02  0.16989106690E+03  0.12509068061E+03 0.  0.
          5    1    3    3  502    0 -0.39111155653E+02 -0.31508602912E+02  0.41303613704E+02  0.65160842989E+02  0.41800000000E+01 0. -1.
         -5    1    3    3    0  502  0.89625575583E+02 -0.10662463270E+02  0.52957676290E+02  0.10473022391E+03  0.41800000000E+01 0. -1.
        -11    1    1    2    0    0 -0.58096638178E+02  0.60984538418E+01  0.76269324588E+01  0.58911633873E+02  0.00000000000E+00 0. -1.
         11    1    1    2    0    0  0.75822182488E+01  0.36072612340E+02  0.69520326124E+02  0.78687985989E+02  0.00000000000E+00 0.  1.
</event>
<event>
 7    1  0.2522928E-009  0.9423986E+02  0.7561462E-02  0.1292897E+00
          1   -1    0    0  501    0  0.00000000000E+00  0.00000000000E+00  0.70368551470E+02  0.70368551470E+02  0.00000000000E+00 0. -1.
         -1   -1    0    0    0  501 -0.00000000000E+00 -0.00000000000E+00 -0.18601033742E+03  0.18601033742E+03  0.00000000000E+00 0.  1.
         25    2    1    2    0    0  0.14657586502E+02  0.24354143823E+02 -0.41724219140E+02  0.13489358127E+03  0.12508956248E+03 0.  0.
          5    1    3    3  502    0 -0.32162888712E+02  0.53749313955E+02  0.41791430074E+01  0.62915640323E+02  0.41800000000E+01 0.  1.
         -5    1    3    3    0  502  0.46820475214E+02 -0.29395170133E+02 -0.45903362148E+02  0.71977940946E+02  0.41800000000E+01 0.  1.
        -11    1    1    2    0    0 -0.17276601886E+02 -0.45647848309E+02 -0.47169254439E+01  0.49035256842E+02  0.00000000000E+00 0. -1.
         11    1    1    2    0    0  0.26190153842E+01  0.21293704486E+02 -0.69200641368E+02  0.72450050781E+02  0.00000000000E+00 0.  1.
</event>
<event>
 7    1  0.2522928E-009  0.9850972E+02  0.7561462E-02  0.1283461E+00
         -2   -1    0    0    0  501 -0.00000000000E+00  0.00000000000E+00  0.22400207098E+02  0.22400207098E+02  0.00000000000E+00 0.  1.
          2   -1    0    0  501    0  0.00000000000E+00 -0.00000000000E+00 -0.74049034476E+03  0.74049034476E+03  0.00000000000E+00 0. -1.
         25    2    1    2    0    0  0.27996264868E+02  0.24606397828E+02 -0.57224449032E+03  0.58694161108E+03  0.12508969766E+03 0.  0.
          5    1    3    3  502    0 -0.22579862465E+02 -0.22181575768E+02 -0.44872965498E+02  0.55072024886E+02  0.41800000000E+01 0.  1.
         -5    1    3    3    0  502  0.50576127332E+02  0.46787973596E+02 -0.52737152482E+03  0.53186958620E+03  0.41800000000E+01 0.  1.
        -11    1    1    2    0    0  0.19122390092E+02  0.22439579108E+02 -0.63814439371E+02  0.70295683976E+02  0.00000000000E+00 0. -1.
         11    1    1    2    0    0 -0.47118654960E+02 -0.47045976936E+02 -0.82031207972E+02  0.10565325680E+03  0.00000000000E+00 0.  1.
</event>
<event>
 7    1  0.2522928E-009  0.9035029E+02  0.7561462E-02  0.1302006E+00
         -2   -1    0    0    0  501 -0.00000000000E+00  0.00000000000E+00  0.64037132692E+02  0.64037132692E+02  0.00000000000E+00 0.  1.
          2   -1    0    0  501    0  0.00000000000E+00 -0.00000000000E+00 -0.26415951983E+03  0.26415951983E+03  0.00000000000E+00 0. -1.
         25    2    1    2    0    0 -0.29492668756E+02 -0.33572404017E+02 -0.18650289793E+03  0.22897063282E+03  0.12508915195E+03 0.  0.
          5    1    3    3  502    0  0.28072978390E+02  0.12615442312E+02 -0.30804510615E+01  0.31212226437E+02  0.41800000000E+01 0. -1.
         -5    1    3    3    0  502 -0.57565647146E+02 -0.46187846329E+02 -0.18342244687E+03  0.19775840638E+03  0.41800000000E+01 0. -1.
        -11    1    1    2    0    0  0.40242291423E+02 -0.23458472834E+00 -0.38659754081E+02  0.55803885480E+02  0.00000000000E+00 0. -1.
         11    1    1    2    0    0 -0.10749622668E+02  0.33806988746E+02  0.25040264872E+02  0.43422134222E+02  0.00000000000E+00 0.  1.
</event>
<event>
 7    1  0.3828723E-009  0.2047598E+03  0.7561462E-02  0.1145784E+00
         -1   -1    0    0    0  501 -0.00000000000E+00  0.00000000000E+00  0.27008080046E+02  0.27008080046E+02  0.00000000000E+00 0.  1.
          1   -1    0    0  501    0  0.00000000000E+00 -0.00000000000E+00 -0.17316206806E+04  0.17316206806E+04  0.00000000000E+00 0. -1.
         25    2    1    2    0    0  0.39087503155E+02 -0.18241400512E+03 -0.85554511219E+03  0.88453828550E+03  0.12509131612E+03 0.  0.
          5    1    3    3  502    0  0.23302594950E+02  0.75952152809E+01 -0.20839357134E+03  0.20987151117E+03  0.41800000000E+01 0. -1.
         -5    1    3    3    0  502  0.15784908205E+02 -0.19000922040E+03 -0.64715154085E+03  0.67466677433E+03  0.41800000000E+01 0. -1.
        -11    1    1    2    0    0 -0.44024765539E+02  0.79188746784E+02 -0.24436666366E+03  0.26062253147E+03  0.00000000000E+00 0.  1.
         11    1    1    2    0    0  0.49372623832E+01  0.10322525834E+03 -0.60470082466E+03  0.61346794363E+03  0.00000000000E+00 0. -1.
</event>
<event>
 7    1  0.2522928E-009  0.1861127E+03  0.7561462E-02  0.1162015E+00
         -2   -1    0    0    0  501 -0.00000000000E+00  0.00000000000E+00  0.11015902274E+03  0.11015902274E+03  0.00000000000E+00 0.  1.
          2   -1    0    0  501    0  0.00000000000E+00 -0.00000000000E+00 -0.47622120388E+03  0.47622120388E+03  0.00000000000E+00 0. -1.
         25    2    1    2    0    0  0.14651341441E+03  0.85321051743E+02 -0.49788057377E+02  0.21649849584E+03  0.12508751164E+03 0.  0.
          5    1    3    3  502    0 -0.10293483787E+02 -0.13219966212E+02  0.12214182144E+02  0.21151405641E+02  0.41800000000E+01 0. -1.
         -5    1    3    3    0  502  0.15680689820E+03  0.98541017955E+02 -0.62002239522E+02  0.19534709020E+03  0.41800000000E+01 0. -1.
        -11    1    1    2    0    0 -0.97696211524E+02 -0.52780494029E+02 -0.11347490316E+03  0.15876675957E+03  0.00000000000E+00 0. -1.
         11    1    1    2    0    0 -0.48817202890E+02 -0.32540557715E+02 -0.20279922060E+03  0.21111497121E+03  0.00000000000E+00 0.  1.
</event>
<event>
 7    1  0.2522928E-009  0.8639882E+02  0.7561462E-02  0.1311814E+00
         -1   -1    0    0    0  501 -0.00000000000E+00  0.00000000000E+00  0.19440190135E+03  0.19440190135E+03  0.00000000000E+00 0. -1.
          1   -1    0    0  501    0  0.00000000000E+00 -0.00000000000E+00 -0.65197782987E+02  0.65197782987E+02  0.00000000000E+00 0.  1.
         25    2    1    2    0    0 -0.14086351888E+02 -0.23262732089E+02  0.68726237837E+02  0.14529077053E+03  0.12508609923E+03 0.  0.
          5    1    3    3  502    0 -0.53406908445E+00  0.25627094241E+02 -0.26629903037E+02  0.37197544607E+02  0.41800000000E+01 0. -1.
         -5    1    3    3    0  502 -0.13552282804E+02 -0.48889826329E+02  0.95356140874E+02  0.10809322592E+03  0.41800000000E+01 0. -1.
        -11    1    1    2    0    0 -0.17234952670E+02 -0.29729820273E+02  0.13697026286E+02  0.36993436392E+02  0.00000000000E+00 0.  1.
         11    1    1    2    0    0  0.31321304558E+02  0.52992552362E+02  0.46780854245E+02  0.77315477421E+02  0.00000000000E+00 0. -1.
</event>
<event>
 7    1  0.2522928E-009  0.8670665E+02  0.7561462E-02  0.1311029E+00
          2   -1    0    0  501    0  0.00000000000E+00  0.00000000000E+00  0.64404574793E+02  0.64404574793E+02  0.00000000000E+00 0. -1.
         -2   -1    0    0    0  501 -0.00000000000E+00 -0.00000000000E+00 -0.19000889303E+03  0.19000889303E+03  0.00000000000E+00 0.  1.
         25    2    1    2    0    0  0.14503150222E+02 -0.55660950120E+01 -0.90972235233E+02  0.15545073286E+03  0.12509060709E+03 0.  0.
          5    1    3    3  502    0 -0.15431838385E+01  0.36069306494E+02  0.15818985887E+02  0.39636965093E+02  0.41800000000E+01 0. -1.
         -5    1    3    3    0  502  0.16046334061E+02 -0.41635401506E+02 -0.10679122112E+03  0.11581376776E+03  0.41800000000E+01 0. -1.
        -11    1    1    2    0    0 -0.46656899802E+02 -0.20402900727E+02 -0.14249194375E+02  0.52878957985E+02  0.00000000000E+00 0.  1.
         11    1    1    2    0    0  0.32153749580E+02  0.25968995739E+02 -0.20382888625E+02  0.46083776977E+02  0.00000000000E+00 0. -1.
</event>
<event>
 7    1  0.2522928E-009  0.2041013E+03  0.7561462E-02  0.1146324E+00
         -1   -1    0    0    0  501 -0.00000000000E+00  0.00000000000E+00  0.11519261732E+03  0.11519261732E+03  0.00000000000E+00 0.  1.
          1   -1    0    0  501    0  0.00000000000E+00 -0.00000000000E+00 -0.55706665870E+03  0.55706665870E+03  0.00000000000E+00 0. -1.
         25    2    1    2    0    0  0.18288436197E+03  0.57588527883E+02 -0.39574779598E+03  0.45719271174E+03  0.12508288951E+03 0.  0.
          5    1    3    3  502    0  0.46382404639E+02 -0.28371339717E+02 -0.17802522534E+03  0.18618999338E+03  0.41800000000E+01 0. -1.
         -5    1    3    3    0  502  0.13650195733E+03  0.85959867600E+02 -0.21772257064E+03  0.27100271836E+03  0.41800000000E+01 0. -1.
        -11    1    1    2    0    0 -0.84644307495E+02 -0.34375787913E+02  0.21127312577E+02  0.93769488229E+02  0.00000000000E+00 0.  1.
         11    1    1    2    0    0 -0.98240054471E+02 -0.23212739970E+02 -0.67253557977E+02  0.12129707606E+03  0.00000000000E+00 0. -1.
</event>
<event>
 7    1  0.2522928E-009  0.7805782E+02  0.7561462E-02  0.1334655E+00
         -4   -1    0    0    0  501 -0.00000000000E+00  0.00000000000E+00  0.34478295967E+02  0.34478295967E+02  0.00000000000E+00 0.  1.
          4   -1    0    0  501    0  0.00000000000E+00 -0.00000000000E+00 -0.40804020120E+03  0.40804020120E+03  0.00000000000E+00 0. -1.
         25    2    1    2    0    0 -0.28559012138E+00 -0.19720078194E+02 -0.29381186860E+03  0.31994294175E+03  0.12509639802E+03 0.  0.
          5    1    3    3  502    0 -0.44011310488E+02 -0.33953644751E+02 -0.61153622074E+02  0.82747104695E+02  0.41800000000E+01 0.  1.
         -5    1    3    3    0  502  0.43725720366E+02  0.14233566557E+02 -0.23265824652E+03  0.23719583705E+03  0.41800000000E+01 0.  1.
        -11    1    1    2    0    0  0.11500701388E+02 -0.14315476118E+02  0.13424801196E+02  0.22746961908E+02  0.00000000000E+00 0.  1.
         11    1    1    2    0    0 -0.11215111267E+02  0.34035554312E+02 -0.93174837835E+02  0.99828593518E+02  0.00000000000E+00 0. -1.
</event>
<event>
 7    1  0.2522928E-009  0.1042079E+03  0.7561462E-02  0.1271688E+00
          2   -1    0    0  501    0  0.00000000000E+00  0.00000000000E+00  0.99175594841E+03  0.99175594841E+03  0.00000000000E+00 0. -1.
         -2   -1    0    0    0  501 -0.00000000000E+00 -0.00000000000E+00 -0.12187970774E+02  0.12187970774E+02  0.00000000000E+00 0.  1.
         25    2    1    2    0    0 -0.29356431468E+02  0.20411067665E+02  0.70568567477E+03  0.71757750758E+03  0.12508715380E+03 0.  0.
          5    1    3    3  502    0  0.45659753471E+02 -0.12838481896E+02  0.28368891522E+03  0.28765693582E+03  0.41800000000E+01 0.  1.
         -5    1    3    3    0  502 -0.75016184939E+02  0.33249549560E+02  0.42199675955E+03  0.42992057176E+03  0.41800000000E+01 0.  1.
        -11    1    1    2    0    0 -0.10873137200E+00  0.24732062085E+02  0.46356763347E+02  0.52541756970E+02  0.00000000000E+00 0.  1.
         11    1    1    2    0    0  0.29465162840E+02 -0.45143129750E+02  0.22752553952E+03  0.23382465464E+03  0.00000000000E+00 0. -1.
</event>
<event>
 7    1  0.2522928E-009  0.9324628E+02  0.7561462E-02  0.1295175E+00
         -2   -1    0    0    0  501 -0.00000000000E+00  0.00000000000E+00  0.22854802227E+02  0.22854802227E+02  0.00000000000E+00 0. -1.
          2   -1    0    0  501    0  0.00000000000E+00 -0.00000000000E+00 -0.80616496310E+03  0.80616496310E+03  0.00000000000E+00 0.  1.
         25    2    1    2    0    0 -0.90267836977E+01  0.81636839737E+02 -0.43268190561E+03  0.45782896471E+03  0.12509065938E+03 0.  0.
          5    1    3    3  502    0  0.26461131446E+02  0.46823674616E+02 -0.38519299434E+03  0.38895213493E+03  0.41800000000E+01 0. -1.
         -5    1    3    3    0  502 -0.35487915144E+02  0.34813165122E+02 -0.47488911274E+02  0.68876829784E+02  0.41800000000E+01 0. -1.
        -11    1    1    2    0    0  0.10550477673E+02 -0.56542975393E+02 -0.33836531210E+03  0.34321932503E+03  0.00000000000E+00 0.  1.
         11    1    1    2    0    0 -0.15236939756E+01 -0.25093864345E+02 -0.12262943170E+02  0.27971475582E+02  0.00000000000E+00 0. -1.
</event>
<event>
 7    1  0.2522928E-009  0.1131175E+03  0.7561462E-02  0.1254903E+00
          1   -1    0    0  501    0  0.00000000000E+00  0.00000000000E+00  0.29986714379E+02  0.29986714379E+02  0.00000000000E+00 0. -1.
         -1   -1    0    0    0  501 -0.00000000000E+00 -0.00000000000E+00 -0.49702539883E+03  0.49702539883E+03  0.00000000000E+00 0.  1.
         25    2    1    2    0    0 -0.32533092700E+02 -0.23572176334E+02 -0.34192351939E+03  0.36629793393E+03  0.12509369959E+03 0.  0.
          5    1    3    3  502    0 -0.62782873991E+01 -0.71824009319E+02 -0.14767409911E+03  0.16438739963E+03  0.41800000000E+01 0.  1.
         -5    1    3    3    0  502 -0.26254805301E+02  0.48251832986E+02 -0.19424942027E+03  0.20191053431E+03  0.41800000000E+01 0.  1.
        -11    1    1    2    0    0  0.63701643178E+02  0.83782854528E+01 -0.95568512084E+02  0.11515830631E+03  0.00000000000E+00 0.  1.
         11    1    1    2    0    0 -0.31168550478E+02  0.15193890881E+02 -0.29546652978E+02  0.45555872960E+02  0.00000000000E+00 0. -1.
</event>
<event>
 7    1  0.2522928E-009  0.1822648E+03  0.7561462E-02  0.1165629E+00
         -2   -1    0    0    0  501 -0.00000000000E+00  0.00000000000E+00  0.41843188374E+02  0.41843188374E+02  0.00000000000E+00 0.  1.
          2   -1    0    0  501    0  0.00000000000E+00 -0.00000000000E+00 -0.11935365848E+04  0.11935365848E+04  0.00000000000E+00 0. -1.
         25    2    1    2    0    0  0.11700237324E+03  0.99879412136E+02 -0.91876600955E+03  0.93991705833E+03  0.12509054283E+03 0.  0.
          5    1    3    3  502    0  0.10811216504E+03  0.30109862455E+02 -0.72687803860E+03  0.73550254891E+03  0.41800000000E+01 0.  1.
         -5    1    3    3    0  502  0.88902082030E+01  0.69769549680E+02 -0.19188797095E+03  0.20441450942E+03  0.41800000000E+01 0.  1.
        -11    1    1    2    0    0 -0.27950333338E+02 -0.87503916796E+02 -0.11927855621E+03  0.15055075742E+03  0.00000000000E+00 0. -1.
         11    1    1    2    0    0 -0.89052039907E+02 -0.12375495340E+02 -0.11364883068E+03  0.14491195745E+03  0.00000000000E+00 0.  1.
</event>
<event>
 7    1  0.2522928E-009  0.1143310E+03  0.7561462E-02  0.1252753E+00
          1   -1    0    0  501    0  0.00000000000E+00  0.00000000000E+00  0.97250225894E+02  0.97250225894E+02  0.00000000000E+00 0. -1.
         -1   -1    0    0    0  501 -0.00000000000E+00 -0.00000000000E+00 -0.18101010901E+03  0.18101010901E+03  0.00000000000E+00 0.  1.
         25    2    1    2    0    0 -0.67907707717E+02  0.11572243059E+01 -0.11151321941E+02  0.14277907023E+03  0.12509482395E+03 0.  0.
          5    1    3    3  502    0 -0.10180182110E+03 -0.16718547275E+02 -0.25343943036E+01  0.10328124784E+03  0.41800000000E+01 0.  1.
         -5    1    3    3    0  502  0.33894113380E+02  0.17875771581E+02 -0.86169276377E+01  0.39497822387E+02  0.41800000000E+01 0.  1.
        -11    1    1    2    0    0  0.74812669117E+02 -0.10181623430E+02 -0.15274312299E+02  0.77031847519E+02  0.00000000000E+00 0. -1.
         11    1    1    2    0    0 -0.69049613995E+01  0.90243991236E+01 -0.57334248876E+02  0.58449417154E+02  0.00000000000E+00 0.  1.
</event>
<event>
 7    1  0.2522928E-009  0.7107509E+02  0.7561462E-02  0.1356475E+00
         -1   -1    0    0    0  501 -0.00000000000E+00  0.00000000000E+00  0.52112029882E+02  0.52112029882E+02  0.00000000000E+00 0.  1.
          1   -1    0    0  501    0  0.00000000000E+00 -0.00000000000E+00 -0.66490274261E+03  0.66490274261E+03  0.00000000000E+00 0. -1.
         25    2    1    2    0    0 -0.33243400303E+02  0.31799750005E+02 -0.59950245627E+03  0.61414098923E+03  0.12509840851E+03 0.  0.
          5    1    3    3  502    0 -0.24639905217E+02  0.38530516271E+02 -0.60063688819E+03  0.60239013062E+03  0.41800000000E+01 0.  1.
         -5    1    3    3    0  502 -0.86034950864E+01 -0.67307662662E+01  0.11344319215E+01  0.11750858608E+02  0.41800000000E+01 0.  1.
        -11    1    1    2    0    0  0.18930129583E+02  0.21903535120E+02  0.22590295533E+02  0.36721058114E+02  0.00000000000E+00 0.  1.
         11    1    1    2    0    0  0.14313270720E+02 -0.53703285125E+02 -0.35878551996E+02  0.66152725154E+02  0.00000000000E+00 0. -1.
</event>
<event>
 7    1  0.2522928E-009  0.1227664E+03  0.7561462E-02  0.1238602E+00
          2   -1    0    0  501    0  0.00000000000E+00  0.00000000000E+00  0.27673405775E+03  0.27673405775E+03  0.00000000000E+00 0.  1.
         -2   -1    0    0    0  501 -0.00000000000E+00 -0.00000000000E+00 -0.57700937549E+02  0.57700937549E+02  0.00000000000E+00 0. -1.
         25    2    1    2    0    0 -0.61900223475E+02  0.46828403176E+01  0.12996639956E+03  0.19076703362E+03  0.12508888616E+03 0.  0.
          5    1    3    3  502    0 -0.47749590182E+02  0.60904213004E+02  0.51250012746E+02  0.92915998249E+02  0.41800000000E+01 0. -1.
         -5    1    3    3    0  502 -0.14150633293E+02 -0.56221372686E+02  0.78716386814E+02  0.97851035367E+02  0.41800000000E+01 0. -1.
        -11    1    1    2    0    0  0.69622206466E+01 -0.42591078115E+02  0.19822341198E+02  0.47491027172E+02  0.00000000000E+00 0. -1.
         11    1    1    2    0    0  0.54938002829E+02  0.37908237797E+02  0.69244379448E+02  0.96176934515E+02  0.00000000000E+00 0.  1.
</event>
<event>
 7    1  0.2522928E-009  0.1216952E+03  0.7561462E-02  0.1240326E+00
         -1   -1    0    0    0  501 -0.00000000000E+00  0.00000000000E+00  0.20917064093E+02  0.20917064093E+02  0.00000000000E+00 0.  1.
          1   -1    0    0  501    0  0.00000000000E+00 -0.00000000000E+00 -0.73495047218E+03  0.73495047218E+03  0.00000000000E+00 0. -1.
         25    2    1    2    0    0 -0.11571082965E+02  0.55359143444E+02 -0.33170776680E+03  0.35899506866E+03  0.12509553166E+03 0.  0.
          5    1    3    3  502    0 -0.13395517037E+02 -0.39667625501E+02 -0.10719365997E+03  0.11515603991E+03  0.41800000000E+01 0.  1.
         -5    1    3    3    0  502  0.18244340729E+01  0.95026768945E+02 -0.22451410684E+03  0.24383902876E+03  0.41800000000E+01 0.  1.
        -11    1    1    2    0    0  0.82029028611E+01  0.24710882634E+02 -0.81724725966E+02  0.85772059380E+02  0.00000000000E+00 0.  1.
         11    1    1    2    0    0  0.33681801035E+01 -0.80070026079E+02 -0.30060091532E+03  0.31110040823E+03  0.00000000000E+00 0. -1.
</event>
<event>
 7    1  0.2522928E-009  0.8551486E+02  0.7561462E-02  0.1314092E+00
         -4   -1    0    0    0  501 -0.00000000000E+00  0.00000000000E+00  0.12328996567E+03  0.12328996567E+03  0.00000000000E+00 0.  1.
          4   -1    0    0  501    0  0.00000000000E+00 -0.00000000000E+00 -0.16642929096E+03  0.16642929096E+03  0.00000000000E+00 0. -1.
         25    2    1    2    0    0  0.54177188443E+01  0.49419069886E+01  0.70087138171E+02  0.14356246393E+03  0.12507677638E+03 0.  0.
          5    1    3    3  502    0  0.36208843160E+02 -0.26447741074E+02 -0.15189279980E+02  0.47526308053E+02  0.41800000000E+01 0. -1.
         -5    1    3    3    0  502 -0.30791124315E+02  0.31389648062E+02  0.85276418152E+02  0.96036155873E+02  0.41800000000E+01 0. -1.
        -11    1    1    2    0    0 -0.71537073943E+01  0.38092228509E+02 -0.20340166046E+02  0.43771174956E+02  0.00000000000E+00 0.  1.
         11    1    1    2    0    0  0.17359885500E+01 -0.43034135498E+02 -0.92886297414E+02  0.10238561775E+03  0.00000000000E+00 0. -1.
</event>
<event>
 7    1  0.2567988E-009  0.1059189E+03  0.7561462E-02  0.1268320E+00
         -2   -1    0    0    0  501 -0.00000000000E+00  0.00000000000E+00  0.98496047163E+01  0.98496047163E+01  0.00000000000E+00 0.  1.
          2   -1    0    0  501    0  0.00000000000E+00 -0.00000000000E+00 -0.14525773448E+04  0.14525773448E+04  0.00000000000E+00 0. -1.
         25    2    1    2    0    0  0.16442368113E+02  0.31144129013E+02 -0.10216822932E+04  0.10299138245E+04  0.12508984526E+03 0.  0.
          5    1    3    3  502    0  0.54436474908E+02  0.47831805033E+02 -0.37954291185E+03  0.38642140948E+03  0.41800000000E+01 0. -1.
         -5    1    3    3    0  502 -0.37994106795E+02 -0.16687676020E+02 -0.64213938139E+03  0.64349241504E+03  0.41800000000E+01 0. -1.
        -11    1    1    2    0    0 -0.52806529737E+02 -0.30893917269E+02 -0.29756633235E+03  0.30379052957E+03  0.00000000000E+00 0.  1.
         11    1    1    2    0    0  0.36364161623E+02 -0.25021174408E+00 -0.12347911452E+03  0.12872259545E+03  0.00000000000E+00 0. -1.
</event>
<event>
 7    1  0.2522928E-009  0.1584249E+03  0.7561462E-02  0.1190487E+00
         -2   -1    0    0    0  501 -0.00000000000E+00  0.00000000000E+00  0.15347005921E+03  0.15347005921E+03  0.00000000000E+00 0.  1.
          2   -1    0    0  501    0  0.00000000000E+00 -0.00000000000E+00 -0.19705880461E+03  0.19705880461E+03  0.00000000000E+00 0. -1.
         25    2    1    2    0    0  0.13405066464E+03  0.52805646024E+01 -0.41737270103E+02  0.18811156484E+03  0.12508595467E+03 0.  0.
          5    1    3    3  502    0  0.12584550435E+03  0.32891874557E+02 -0.69802761352E+02  0.14767824576E+03  0.41800000000E+01 0.  1.
         -5    1    3    3    0  502  0.82051602923E+01 -0.27611309955E+02  0.28065491250E+02  0.40433319082E+02  0.41800000000E+01 0.  1.
        -11    1    1    2    0    0 -0.26531376031E+01 -0.24644279023E+02 -0.14966456440E+02  0.28954696442E+02  0.00000000000E+00 0. -1.
         11    1    1    2    0    0 -0.13139752704E+03  0.19363714420E+02  0.13114981142E+02  0.13346260255E+03  0.00000000000E+00 0.  1.
</event>
<event>
 7    1  0.2522928E-009  0.1026414E+03  0.7561462E-02  0.1274837E+00
          2   -1    0    0  501    0  0.00000000000E+00  0.00000000000E+00  0.49667718263E+02  0.49667718263E+02  0.00000000000E+00 0. -1.
         -2   -1    0    0    0  501 -0.00000000000E+00 -0.00000000000E+00 -0.25530839594E+03  0.25530839594E+03  0.00000000000E+00 0.  1.
         25    2    1    2    0    0  0.77512730504E+01 -0.29506582843E+02 -0.11439772080E+03  0.17223475504E+03  0.12508897494E+03 0.  0.
          5    1    3    3  502    0 -0.20398452824E+02 -0.63013843578E+02 -0.10944620166E+03  0.12799525311E+03  0.41800000000E+01 0.  1.
         -5    1    3    3    0  502  0.28149725875E+02  0.33507260735E+02 -0.49515191393E+01  0.44239501925E+02  0.41800000000E+01 0.  1.
        -11    1    1    2    0    0 -0.16584820867E+02 -0.30277990223E+02 -0.44607042929E+02  0.56405684590E+02  0.00000000000E+00 0.  1.
         11    1    1    2    0    0  0.88335478166E+01  0.59784573066E+02 -0.46635913943E+02  0.76335674576E+02  0.00000000000E+00 0. -1.
</event>
<event>
 7    1  0.2522928E-009  0.1007573E+03  0.7561462E-02  0.1278711E+00
          1   -1    0    0  501    0  0.00000000000E+00  0.00000000000E+00  0.16973496312E+02  0.16973496312E+02  0.00000000000E+00 0. -1.
         -1   -1    0    0    0  501 -0.00000000000E+00 -0.00000000000E+00 -0.72737730666E+03  0.72737730666E+03  0.00000000000E+00 0.  1.
         25    2    1    2    0    0 -0.12500173178E+02 -0.10291393180E+02 -0.49768407520E+03  0.51341876070E+03  0.12508884056E+03 0.  0.
          5    1    3    3  502    0  0.82011171199E+01  0.55649161731E+02 -0.24604140246E+03  0.25242411067E+03  0.41800000000E+01 0. -1.
         -5    1    3    3    0  502 -0.20701290298E+02 -0.65940554911E+02 -0.25164267274E+03  0.26099465003E+03  0.41800000000E+01 0. -1.
        -11    1    1    2    0    0  0.12169159111E+02 -0.31659218393E+02 -0.36661507142E+02  0.49944575768E+02  0.00000000000E+00 0.  1.
         11    1    1    2    0    0  0.33101406754E+00  0.41950611574E+02 -0.17605822800E+03  0.18098746650E+03  0.00000000000E+00 0. -1.
</event>
<event>
 7    1  0.2522928E-009  0.1167771E+03  0.7561462E-02  0.1248511E+00
         -1   -1    0    0    0  501 -0.00000000000E+00  0.00000000000E+00  0.23857903456E+03  0.23857903456E+03  0.00000000000E+00 0.  1.
          1   -1    0    0  501    0  0.00000000000E+00 -0.00000000000E+00 -0.64394805201E+02  0.64394805201E+02  0.00000000000E+00 0. -1.
         25    2    1    2    0    0  0.46137104013E+02  0.13247325239E+02  0.57931439931E+02  0.14597177844E+03  0.12509030488E+03 0.  0.
          5    1    3    3  502    0 -0.42503583409E+02 -0.28252754190E+01  0.10477562362E+02  0.44065729279E+02  0.41800000000E+01 0.  1.
         -5    1    3    3    0  502  0.88640687423E+02  0.16072600658E+02  0.47453877569E+02  0.10190604916E+03  0.41800000000E+01 0.  1.
        -11    1    1    2    0    0  0.26446110289E+02 -0.87134321842E+01  0.13053637354E+02  0.30752529945E+02  0.00000000000E+00 0. -1.
         11    1    1    2    0    0 -0.72583214303E+02 -0.45338930544E+01  0.10319915208E+03  0.12624953138E+03  0.00000000000E+00 0.  1.
</event>
<event>
 7    1  0.3054266E-009  0.6861673E+02  0.7561462E-02  0.1364861E+00
         -3   -1    0    0    0  501 -0.00000000000E+00  0.00000000000E+00  0.20592315976E+02  0.20592315976E+02  0.00000000000E+00 0.  1.
          3   -1    0    0  501    0  0.00000000000E+00 -0.00000000000E+00 -0.64004059536E+03  0.64004059536E+03  0.00000000000E+00 0. -1.
         25    2    1    2    0    0 -0.15232944079E+02 -0.34160811512E+02 -0.38053228151E+03  0.40230741848E+03  0.12508972007E+03 0.  0.
          5    1    3    3  502    0  0.18385681927E+01 -0.37314625987E+02 -0.38249988992E+03  0.38434281551E+03  0.41800000000E+01 0.  1.
         -5    1    3    3    0  502 -0.17071512272E+02  0.31538144750E+01  0.19676084134E+01  0.17964602970E+02  0.41800000000E+01 0.  1.
        -11    1    1    2    0    0 -0.29144542732E+02  0.78108468286E+01 -0.27919500866E+02  0.41108542030E+02  0.00000000000E+00 0.  1.
         11    1    1    2    0    0  0.44377486811E+02  0.26349964683E+02 -0.21099649701E+03  0.21721695082E+03  0.00000000000E+00 0. -1.
</event>
<event>
 6    1  0.2522928E-009  0.9756835E+02  0.7561462E-02  0.1285494E+00
          1   -1    0    0  501    0  0.00000000000E+00  0.00000000000E+00  0.57376548296E+02  0.57376548296E+02  0.00000000000E+00 0. -1.
         -1   -1    0    0    0  501 -0.00000000000E+00 -0.00000000000E+00 -0.22732802575E+03  0.22732802575E+03  0.00000000000E+00 0.  1.
          5    1    1    2  502    0  0.40627464496E+02 -0.44625582789E+02 -0.45830857394E+01  0.60667211784E+02  0.41800000000E+01 0. -1.
         -5    1    1    2    0  502 -0.90814444974E+01  0.42654596827E+02 -0.87694600300E+02  0.98029090511E+02  0.41800000000E+01 0. -1.
        -11    1    1    2    0    0 -0.22544985601E+02  0.43148062723E+02 -0.15878505202E+02  0.51207017292E+02  0.00000000000E+00 0.  1.
         11    1    1    2    0    0 -0.90010343982E+01 -0.41177076761E+02 -0.61795286214E+02  0.74801254461E+02  0.00000000000E+00 0. -1.
</event>
<event>
 7    1  0.2522928E-009  0.1205773E+03  0.7561462E-02  0.1242148E+00
         -2   -1    0    0    0  501 -0.00000000000E+00  0.00000000000E+00  0.26468254814E+02  0.26468254814E+02  0.00000000000E+00 0.  1.
          2   -1    0    0  501    0  0.00000000000E+00 -0.00000000000E+00 -0.10166465255E+04  0.10166465255E+04  0.00000000000E+00 0. -1.
         25    2    1    2    0    0  0.43577680685E+02 -0.58065806737E+02 -0.84697089184E+03  0.85923086244E+03  0.12508929283E+03 0.  0.
          5    1    3    3  502    0  0.71788927016E+02 -0.69390854651E+02 -0.76856021601E+03  0.77502968897E+03  0.41800000000E+01 0. -1.
         -5    1    3    3    0  502 -0.28211246331E+02  0.11325047914E+02 -0.78410675832E+02  0.84201173473E+02  0.41800000000E+01 0. -1.
        -11    1    1    2    0    0  0.24127820899E+02  0.26490981872E+02 -0.73212235999E+02  0.81510461671E+02  0.00000000000E+00 0. -1.
         11    1    1    2    0    0 -0.67705501583E+02  0.31574824864E+02 -0.69995142808E+02  0.10237345616E+03  0.00000000000E+00 0.  1.
</event>
<event>
 7    1  0.2522928E-009  0.1897024E+03  0.7561462E-02  0.1158730E+00
         -2   -1    0    0    0  501 -0.00000000000E+00  0.00000000000E+00  0.29680011156E+02  0.29680011156E+02  0.00000000000E+00 0.  1.
          2   -1    0    0  501    0  0.00000000000E+00 -0.00000000000E+00 -0.13207684838E+04  0.13207684838E+04  0.00000000000E+00 0. -1.
         25    2    1    2    0    0 -0.15651554216E+03 -0.50724338495E+02 -0.73413026583E+03  0.76266952581E+03  0.12508990738E+03 0.  0.
          5    1    3    3  502    0 -0.15515341295E+03 -0.41925335591E+01 -0.62409529635E+03  0.64311940588E+03  0.41800000000E+01 0.  1.
         -5    1    3    3    0  502 -0.13621292117E+01 -0.46531804936E+02 -0.11003496948E+03  0.11955011993E+03  0.41800000000E+01 0.  1.
        -11    1    1    2    0    0  0.76070390810E+02  0.59362853338E+02 -0.20404219713E+03  0.22570748974E+03  0.00000000000E+00 0.  1.
         11    1    1    2    0    0  0.80445151348E+02 -0.86385148429E+01 -0.35291600967E+03  0.36207147940E+03  0.00000000000E+00 0. -1.
</event>
<event>
 7    1  0.2522928E-009  0.8677662E+02  0.7561462E-02  0.1310851E+00
          1   -1    0    0  501    0  0.00000000000E+00  0.00000000000E+00  0.95461569674E+03  0.95461569674E+03  0.00000000000E+00 0. -1.
         -1   -1    0    0    0  501 -0.00000000000E+00 -0.00000000000E+00 -0.17658132073E+02  0.17658132073E+02  0.00000000000E+00 0.  1.
         25    2    1    2    0    0  0.26091684604E+02 -0.53746420710E+01  0.76725497713E+03  0.77784135845E+03  0.12508923300E+03 0.  0.
          5    1    3    3  502    0  0.36965132094E+02  0.25981288069E+02  0.71061000330E+03  0.71205722910E+03  0.41800000000E+01 0.  1.
         -5    1    3    3    0  502 -0.10873447490E+02 -0.31355930140E+02  0.56644973826E+02  0.65784129355E+02  0.41800000000E+01 0.  1.
        -11    1    1    2    0    0  0.34143074540E+02 -0.99347197611E+00  0.55741546698E+02  0.65374739418E+02  0.00000000000E+00 0. -1.
         11    1    1    2    0    0 -0.60234759144E+02  0.63681140471E+01  0.11396104084E+03  0.12905773094E+03  0.00000000000E+00 0.  1.
</event>
<event>
 7    1  0.2522928E-009  0.1140697E+03  0.7561462E-02  0.1253214E+00
          1   -1    0    0  501    0  0.00000000000E+00  0.00000000000E+00  0.72959434499E+03  0.72959434499E+03  0.00000000000E+00 0. -1.
         -1   -1    0    0    0  501 -0.00000000000E+00 -0.00000000000E+00 -0.26765992688E+02  0.26765992688E+02  0.00000000000E+00 0.  1.
         25    2    1    2    0    0 -0.63416343498E+02  0.25318398106E+01  0.22227690495E+03  0.26283363446E+03  0.12508578693E+03 0.  0.
          5    1    3    3  502    0 -0.44748499574E+02 -0.46078525144E+02  0.46360681254E+02  0.79324925842E+02  0.41800000000E+01 0.  1.
         -5    1    3    3    0  502 -0.18667843925E+02  0.48610364955E+02  0.17591622370E+03  0.18350870862E+03  0.41800000000E+01 0.  1.
        -11    1    1    2    0    0 -0.93071621597E+00  0.36342835520E+02  0.18703600932E+03  0.19053644457E+03  0.00000000000E+00 0.  1.
         11    1    1    2    0    0  0.64347059714E+02 -0.38874675331E+02  0.29351543803E+03  0.30299025865E+03  0.00000000000E+00 0. -1.
</event>
<event>
 7    1  0.2522928E-009  0.9215629E+02  0.7561462E-02  0.1297712E+00
          1   -1    0    0  501    0  0.00000000000E+00  0.00000000000E+00  0.43705058941E+03  0.43705058941E+03  0.00000000000E+00 0.  1.
         -1   -1    0    0    0  501 -0.00000000000E+00 -0.00000000000E+00 -0.28907889328E+02  0.28907889328E+02  0.00000000000E+00 0. -1.
         25    2    1    2    0    0 -0.43724487855E+01  0.27694950131E+02  0.22002035370E+03  0.25463972765E+03  0.12508519609E+03 0.  0.
          5    1    3    3  502    0  0.23334815624E+02  0.48512735495E+02  0.30668180353E+02  0.62096769736E+02  0.41800000000E+01 0. -1.
         -5    1    3    3    0  502 -0.27707264410E+02 -0.20817785364E+02  0.18935217335E+03  0.19254295791E+03  0.41800000000E+01 0. -1.
        -11    1    1    2    0    0 -0.39731555142E+02 -0.32110889916E+02  0.86648541031E+02  0.10058665611E+03  0.00000000000E+00 0.  1.
         11    1    1    2    0    0  0.44104003928E+02  0.44159397843E+01  0.10147380534E+03  0.11073209497E+03  0.00000000000E+00 0. -1.
</event>
<event>
 7    1  0.2522928E-009  0.7592670E+02  0.7561462E-02  0.1341025E+00
         -2   -1    0    0    0  501 -0.00000000000E+00  0.00000000000E+00  0.40242286556E+02  0.40242286556E+02  0.00000000000E+00 0.  1.
          2   -1    0    0  501    0  0.00000000000E+00 -0.00000000000E+00 -0.49747366145E+03  0.49747366145E+03  0.00000000000E+00 0. -1.
         25    2    1    2    0    0  0.48266996646E+02  0.32041843764E+01 -0.39650419572E+03  0.41858257917E+03  0.12512325365E+03 0.  0.
          5    1    3    3  502    0  0.40393505290E+02  0.31860866074E+02 -0.53762169751E+02  0.74529144319E+02  0.41800000000E+01 0. -1.
         -5    1    3    3    0  502  0.78734913559E+01 -0.28656681698E+02 -0.34274202596E+03  0.34405343485E+03  0.41800000000E+01 0. -1.
        -11    1    1    2    0    0 -0.14900241140E+02  0.23270515011E+02  0.15595732622E+02  0.31729496229E+02  0.00000000000E+00 0.  1.
         11    1    1    2    0    0 -0.33366755505E+02 -0.26474699388E+02 -0.76322911800E+02  0.87403872604E+02  0.00000000000E+00 0. -1.
</event>
<event>
 7    1  0.2522928E-009  0.1213296E+03  0.7561462E-02  0.1240920E+00
          1   -1    0    0  501    0  0.00000000000E+00  0.00000000000E+00  0.20209910283E+03  0.20209910283E+03  0.00000000000E+00 0. -1.
         -1   -1    0    0    0  501 -0.00000000000E+00 -0.00000000000E+00 -0.78810017703E+02  0.78810017703E+02  0.00000000000E+00 0.  1.
         25    2    1    2    0    0  0.11407099622E+02 -0.58508691721E+02  0.95956900438E+02  0.16854873867E+03  0.12509021399E+03 0.  0.
          5    1    3    3  502    0 -0.35938526260E+02  0.22651361870E+02  0.43097893670E+02  0.60659399132E+02  0.41800000000E+01 0. -1.
         -5    1    3    3    0  502  0.47345625882E+02 -0.81160053591E+02  0.52859006768E+02  0.10788933954E+03  0.41800000000E+01 0. -1.
        -11    1    1    2    0    0  0.35132450633E+02  0.58054918939E+01 -0.31062141691E+01  0.35744109866E+02  0.00000000000E+00 0.  1.
         11    1    1    2    0    0 -0.46539550255E+02  0.52703199827E+02  0.30438398859E+02  0.76616271999E+02  0.00000000000E+00 0. -1.
</event>
<event>
 7    1  0.2522928E-009  0.1003912E+03  0.7561462E-02  0.1279476E+00
         -1   -1    0    0    0  501 -0.00000000000E+00  0.00000000000E+00  0.16606593580E+03  0.16606593580E+03  0.00000000000E+00 0.  1.
          1   -1    0    0  501    0  0.00000000000E+00 -0.00000000000E+00 -0.17460071716E+03  0.17460071716E+03  0.00000000000E+00 0. -1.
         25    2    1    2    0    0 -0.10718916023E+02  0.41247873746E+02 -0.13081865376E+03  0.18594750380E+03  0.12508665695E+03 0.  0.
          5    1    3    3  502    0  0.43956070335E+02  0.67970112859E+01 -0.56650279799E+01  0.45032215398E+02  0.41800000000E+01 0.  1.
         -5    1    3    3    0  502 -0.54674986357E+02  0.34450862460E+02 -0.12515362578E+03  0.14091528840E+03  0.41800000000E+01 0.  1.
        -11    1    1    2    0    0  0.13686434357E+02 -0.65500769260E+02  0.10600749160E+03  0.12536051027E+03  0.00000000000E+00 0.  1.
         11    1    1    2    0    0 -0.29675183344E+01  0.24252895514E+02  0.16276380793E+02  0.29358638892E+02  0.00000000000E+00 0. -1.
</event>
<event>
 7    1  0.2522928E-009  0.1211456E+03  0.7561462E-02  0.1241219E+00
         -2   -1    0    0    0  501 -0.00000000000E+00  0.00000000000E+00  0.11078824470E+04  0.11078824470E+04  0.00000000000E+00 0.  1.
          2   -1    0    0  501    0  0.00000000000E+00 -0.00000000000E+00 -0.18766259135E+02  0.18766259135E+02  0.00000000000E+00 0. -1.
         25    2    1    2    0    0 -0.50684410456E+02  0.53069383494E+02  0.82857657109E+03  0.84117304036E+03  0.12509069007E+03 0.  0.
          5    1    3    3  502    0 -0.91359362369E+02  0.45309544850E+02  0.63730014212E+03  0.64542112725E+03  0.41800000000E+01 0.  1.
         -5    1    3    3    0  502  0.40674951913E+02  0.77598386437E+01  0.19127642896E+03  0.19575191311E+03  0.41800000000E+01 0.  1.
        -11    1    1    2    0    0  0.27236962374E+02  0.11761548516E+02  0.21356617690E+02  0.36555317835E+02  0.00000000000E+00 0. -1.
         11    1    1    2    0    0  0.23447448082E+02 -0.64830932010E+02  0.23918299904E+03  0.24892034790E+03  0.00000000000E+00 0.  1.
</event>
<event>
 7    1  0.2522928E-009  0.1072748E+03  0.7561462E-02  0.1265701E+00
          2   -1    0    0  501    0  0.00000000000E+00  0.00000000000E+00  0.34093587267E+02  0.34093587267E+02  0.00000000000E+00 0. -1.
         -2   -1    0    0    0  501 -0.00000000000E+00 -0.00000000000E+00 -0.40257918814E+03  0.40257918814E+03  0.00000000000E+00 0.  1.
         25    2    1    2    0    0  0.31056169798E+01  0.46061879032E+02 -0.24850247131E+03  0.28201403078E+03  0.12508834379E+03 0.  0.
          5    1    3    3  502    0 -0.57043349155E+02  0.39032084662E+01 -0.13601904041E+03  0.14760701363E+03  0.41800000000E+01 0.  1.
         -5    1    3    3    0  502  0.60148966135E+02  0.42158670566E+02 -0.11248343090E+03  0.13440701714E+03  0.41800000000E+01 0.  1.
        -11    1    1    2    0    0  0.25148901997E+02  0.46708379771E+01 -0.53153921962E+01  0.26125416615E+02  0.00000000000E+00 0. -1.
         11    1    1    2    0    0 -0.28254518977E+02 -0.50732717009E+02 -0.11466773736E+03  0.12853332801E+03  0.00000000000E+00 0.  1.
</event>
<event>
 7    1  0.2522928E-009  0.9562450E+02  0.7561462E-02  0.1289776E+00
         -1   -1    0    0    0  501 -0.00000000000E+00  0.00000000000E+00  0.31457724479E+02  0.31457724479E+02  0.00000000000E+00 0.  1.
          1   -1    0    0  501    0  0.00000000000E+00 -0.00000000000E+00 -0.44436586820E+03  0.44436586820E+03  0.00000000000E+00 0. -1.
         25    2    1    2    0    0  0.38664910482E+02 -0.20508656766E+02 -0.19476316048E+03  0.23557612949E+03  0.12509134184E+03 0.  0.
          5    1    3    3  502    0  0.65125898183E+02  0.20278547362E+02 -0.55579774249E+02  0.88086240713E+02  0.41800000000E+01 0. -1.
         -5    1    3    3    0  502 -0.26460987701E+02 -0.40787204128E+02 -0.13918338623E+03  0.14748988878E+03  0.41800000000E+01 0. -1.
        -11    1    1    2    0    0 -0.42077944164E+02 -0.10133799078E+02 -0.19966345171E+03  0.20430061483E+03  0.00000000000E+00 0. -1.
         11    1    1    2    0    0  0.34130336822E+01  0.30642455844E+02 -0.18481531529E+02  0.35946848356E+02  0.00000000000E+00 0.  1.
</event>
<event>
 7    1  0.2522928E-009  0.1034224E+03  0.7561462E-02  0.1273259E+00
          3   -1    0    0  501    0  0.00000000000E+00  0.00000000000E+00  0.48316329731E+02  0.48316329731E+02  0.00000000000E+00 0. -1.
         -3   -1    0    0    0  501 -0.00000000000E+00 -0.00000000000E+00 -0.25926587738E+03  0.25926587738E+03  0.00000000000E+00 0.  1.
         25    2    1    2    0    0 -0.18175447153E+02  0.21183728931E+02 -0.13312369060E+03  0.18479551638E+03  0.12509343958E+03 0.  0.
          5    1    3    3  502    0 -0.65541251294E+02  0.24485825412E+02 -0.11318302676E+03  0.13312806321E+03  0.41800000000E+01 0.  1.
         -5    1    3    3    0  502  0.47365804141E+02 -0.33020964807E+01 -0.19940663835E+02  0.51667453172E+02  0.41800000000E+01 0.  1.
        -11    1    1    2    0    0 -0.29263732637E+02  0.11542171722E+02 -0.49299640834E+02  0.58481128257E+02  0.00000000000E+00 0.  1.
         11    1    1    2    0    0  0.47439179790E+02 -0.32725900653E+02 -0.28526216215E+02  0.64305562468E+02  0.00000000000E+00 0. -1.
</event>
<event>
 7    1  0.2522928E-009  0.1454795E+03  0.7561462E-02  0.1206140E+00
         -1   -1    0    0    0  501 -0.00000000000E+00  0.00000000000E+00  0.87810327404E+02  0.87810327404E+02  0.00000000000E+00 0.  1.
          1   -1    0    0  501    0  0.00000000000E+00 -0.00000000000E+00 -0.28732441181E+03  0.28732441181E+03  0.00000000000E+00 0. -1.
         25    2    1    2    0    0 -0.10880380020E+03  0.37563754454E+02 -0.12276567380E+03  0.20968622557E+03  0.12509036711E+03 0.  0.
          5    1    3    3  502    0 -0.17542115487E+02  0.49147610800E+02  0.45588714412E+01  0.52549682891E+02  0.41800000000E+01 0.  1.
         -5    1    3    3    0  502 -0.91261684710E+02 -0.11583856346E+02 -0.12732454524E+03  0.15713654268E+03  0.41800000000E+01 0.  1.
        -11    1    1    2    0    0  0.64084860481E+02  0.25699470928E+02 -0.33971871570E+02  0.76950764822E+02  0.00000000000E+00 0.  1.
         11    1    1    2    0    0  0.44718939717E+02 -0.63263225382E+02 -0.42776539044E+02  0.88497748828E+02  0.00000000000E+00 0. -1.
</event>
<event>
 7    1  0.2522928E-009  0.9478522E+02  0.7561462E-02  0.1291661E+00
         -2   -1    0    0    0  501 -0.00000000000E+00  0.00000000000E+00  0.55038136687E+02  0.55038136687E+02  0.00000000000E+00 0.  1.
          2   -1    0    0  501    0  0.00000000000E+00 -0.00000000000E+00 -0.36989790520E+03  0.36989790520E+03  0.00000000000E+00 0. -1.
         25    2    1    2    0    0  0.55948342345E+02  0.30975433849E+01 -0.60228335376E+02  0.14971058354E+03  0.12508395043E+03 0.  0.
          5    1    3    3  502    0 -0.14896313754E+02  0.35430041942E+02  0.14891233956E+02  0.41429570167E+02  0.41800000000E+01 0. -1.
         -5    1    3    3    0  502  0.70844656099E+02 -0.32332498557E+02 -0.75119569332E+02  0.10828101337E+03  0.41800000000E+01 0. -1.
        -11    1    1    2    0    0 -0.10658121145E+02 -0.21531904918E+02 -0.10456015341E+02  0.26202036802E+02  0.00000000000E+00 0.  1.
         11    1    1    2    0    0 -0.45290221200E+02  0.18434361534E+02 -0.24417541780E+03  0.24902342155E+03  0.00000000000E+00 0. -1.
</event>
<event>
 7    1  0.2522928E-009  0.1340099E+03  0.7561462E-02  0.1221624E+00
         -1   -1    0    0    0  501 -0.00000000000E+00  0.00000000000E+00  0.14184974297E+03  0.14184974297E+03  0.00000000000E+00 0.  1.
          1   -1    0    0  501    0  0.00000000000E+00 -0.00000000000E+00 -0.17194943704E+03  0.17194943704E+03  0.00000000000E+00 0. -1.
         25    2    1    2    0    0 -0.42827956408E+02 -0.67760559523E+02 -0.93209092069E+02  0.17539373123E+03  0.12509715758E+03 0.  0.
          5    1    3    3  502    0  0.13956962194E+02  0.31019127957E+02 -0.26271155632E+02  0.43181351428E+02  0.41800000000E+01 0. -1.
         -5    1    3    3    0  502 -0.56784918602E+02 -0.98779687480E+02 -0.66937936437E+02  0.13221237981E+03  0.41800000000E+01 0. -1.
        -11    1    1    2    0    0 -0.27573804567E+02  0.12697901132E+02  0.25926192285E+01  0.30467574008E+02  0.00000000000E+00 0. -1.
         11    1    1    2    0    0  0.70401760975E+02  0.55062658391E+02  0.60516778767E+02  0.10793787477E+03  0.00000000000E+00 0.  1.
</event>
<event>
 7    1  0.2522928E-009  0.1337527E+03  0.7561462E-02  0.1221991E+00
         -1   -1    0    0    0  501 -0.00000000000E+00  0.00000000000E+00  0.45666335441E+02  0.45666335441E+02  0.00000000000E+00 0.  1.
          1   -1    0    0  501    0  0.00000000000E+00 -0.00000000000E+00 -0.70154547217E+03  0.70154547217E+03  0.00000000000E+00 0. -1.
         25    2    1    2    0    0  0.67947574518E+02 -0.55803883594E+02 -0.11502066755E+03  0.19133412650E+03  0.12509215680E+03 0.  0.
          5    1    3    3  502    0  0.94752407392E+02 -0.64499872691E+02 -0.11559037641E+03  0.16283998219E+03  0.41800000000E+01 0.  1.
         -5    1    3    3    0  502 -0.26804832873E+02  0.86959890966E+01  0.56970885440E+00  0.28494144309E+02  0.41800000000E+01 0.  1.
        -11    1    1    2    0    0 -0.65891086012E+02 -0.25385566835E+01 -0.21692076907E+03  0.22672163448E+03  0.00000000000E+00 0.  1.
         11    1    1    2    0    0 -0.20564885062E+01  0.58342440278E+02 -0.32393770010E+03  0.32915604662E+03  0.00000000000E+00 0. -1.
</event>
<event>
 7    1  0.2522928E-009  0.1266753E+03  0.7561462E-02  0.1232474E+00
         -2   -1    0    0    0  501 -0.00000000000E+00  0.00000000000E+00  0.20885739082E+03  0.20885739082E+03  0.00000000000E+00 0.  1.
          2   -1    0    0  501    0  0.00000000000E+00 -0.00000000000E+00 -0.88645641661E+02  0.88645641661E+02  0.00000000000E+00 0. -1.
         25    2    1    2    0    0  0.56445271396E+01 -0.76889230822E+02  0.95204615235E+02  0.17508519779E+03  0.12508834167E+03 0.  0.
          5    1    3    3  502    0  0.58756438846E+02 -0.74405375632E+01  0.40374926919E+02  0.71800333069E+02  0.41800000000E+01 0.  1.
         -5    1    3    3    0  502 -0.53111911707E+02 -0.69448693258E+02  0.54829688317E+02  0.10328486473E+03  0.41800000000E+01 0.  1.
        -11    1    1    2    0    0  0.14567280491E+02  0.83823306010E+02  0.42219796489E+02  0.94979279356E+02  0.00000000000E+00 0.  1.
         11    1    1    2    0    0 -0.20211807630E+02 -0.69340751882E+01 -0.17212662561E+02  0.27438555335E+02  0.00000000000E+00 0. -1.
</event>
<event>
 7    1  0.2522928E-009  0.1820951E+03  0.7561462E-02  0.1165791E+00
         -1   -1    0    0    0  501 -0.00000000000E+00  0.00000000000E+00  0.29998185785E+03  0.29998185785E+03  0.00000000000E+00 0.  1.
          1   -1    0    0  501    0  0.00000000000E+00 -0.00000000000E+00 -0.11549443279E+03  0.11549443279E+03  0.00000000000E+00 0. -1.
         25    2    1    2    0    0 -0.11093396196E+03  0.10181454207E+03  0.87138875147E+02  0.21427147284E+03  0.12508611280E+03 0.  0.
          5    1    3    3  502    0 -0.95568165992E+02  0.12896360525E+03  0.56154482497E+02  0.17010492096E+03  0.41800000000E+01 0.  1.
         -5    1    3    3    0  502 -0.15365795971E+02 -0.27149063176E+02  0.30984392650E+02  0.44166551881E+02  0.41800000000E+01 0.  1.
        -11    1    1    2    0    0  0.12148379882E+03 -0.73636568900E+02  0.95266073472E+02  0.17104467957E+03  0.00000000000E+00 0.  1.
         11    1    1    2    0    0 -0.10549836854E+02 -0.28177973174E+02  0.20824764493E+01  0.30160138229E+02  0.00000000000E+00 0. -1.
</event>
<event>
 7    1  0.2522928E-009  0.6783937E+02  0.7561462E-02  0.1367598E+00
         -1   -1    0    0    0  501 -0.00000000000E+00  0.00000000000E+00  0.37913576736E+03  0.37913576736E+03  0.00000000000E+00 0.  1.
          1   -1    0    0  501    0  0.00000000000E+00 -0.00000000000E+00 -0.35105493037E+02  0.35105493037E+02  0.00000000000E+00 0. -1.
         25    2    1    2    0    0 -0.37672795865E+02 -0.23746451073E+01  0.18443088514E+03  0.22602363110E+03  0.12508817664E+03 0.  0.
          5    1    3    3  502    0 -0.23671849739E+02  0.14534105775E+02 -0.10371285261E+02  0.29943825051E+02  0.41800000000E+01 0. -1.
         -5    1    3    3    0  502 -0.14000946127E+02 -0.16908750882E+02  0.19480217040E+03  0.19607980605E+03  0.41800000000E+01 0. -1.
        -11    1    1    2    0    0 -0.23767534171E+02  0.70754115995E+00  0.87664022520E+01  0.25342574919E+02  0.00000000000E+00 0. -1.
         11    1    1    2    0    0  0.61440330037E+02  0.16671039474E+01  0.15083298693E+03  0.16287505437E+03  0.00000000000E+00 0.  1.
</event>
<event>
 7    1  0.2522928E-009  0.2940362E+03  0.7561462E-02  0.1088260E+00
         -2   -1    0    0    0  501 -0.00000000000E+00  0.00000000000E+00  0.71033933929E+02  0.71033933929E+02  0.00000000000E+00 0.  1.
          2   -1    0    0  501    0  0.00000000000E+00 -0.00000000000E+00 -0.13722237939E+04  0.13722237939E+04  0.00000000000E+00 0. -1.
         25    2    1    2    0    0  0.18271489237E+03 -0.22329642057E+03 -0.54860631127E+03  0.63234657643E+03  0.12508910676E+03 0.  0.
          5    1    3    3  502    0  0.80403007997E+02 -0.15785889620E+03 -0.41767927346E+03  0.45371524405E+03  0.41800000000E+01 0.  1.
         -5    1    3    3    0  502  0.10231188437E+03 -0.65437524368E+02 -0.13092703780E+03  0.17863133238E+03  0.41800000000E+01 0.  1.
        -11    1    1    2    0    0 -0.14685063334E+03  0.16483787887E+03 -0.65823536056E+03  0.69426970604E+03  0.00000000000E+00 0.  1.
         11    1    1    2    0    0 -0.35864259023E+02  0.58458541702E+02 -0.94348188191E+02  0.11664144541E+03  0.00000000000E+00 0. -1.
</event>
<event>
 7    1  0.2522928E-009  0.1119954E+03  0.7561462E-02  0.1256919E+00
          2   -1    0    0  501    0  0.00000000000E+00  0.00000000000E+00  0.65727947434E+02  0.65727947434E+02  0.00000000000E+00 0. -1.
         -2   -1    0    0    0  501 -0.00000000000E+00 -0.00000000000E+00 -0.25017411301E+03  0.25017411301E+03  0.00000000000E+00 0.  1.
         25    2    1    2    0    0 -0.51762423607E+02 -0.10394142662E+02 -0.14778608306E+03  0.20068612682E+03  0.12508720338E+03 0.  0.
          5    1    3    3  502    0  0.41326889385E+02 -0.22268558797E+01 -0.36800879350E+02  0.55539605636E+02  0.41800000000E+01 0. -1.
         -5    1    3    3    0  502 -0.93089312991E+02 -0.81672867827E+01 -0.11098520372E+03  0.14514652118E+03  0.41800000000E+01 0. -1.
        -11    1    1    2    0    0  0.60561552061E+02 -0.14649825990E+02  0.84466369346E+01  0.62878173201E+02  0.00000000000E+00 0. -1.
         11    1    1    2    0    0 -0.87991284546E+01  0.25043968652E+02 -0.45106719444E+02  0.52337760426E+02  0.00000000000E+00 0.  1.
</event>
<event>
 7    1  0.2522928E-009  0.1578025E+03  0.7561462E-02  0.1191200E+00
         -2   -1    0    0    0  501 -0.00000000000E+00  0.00000000000E+00  0.29513277387E+02  0.29513277387E+02  0.00000000000E+00 0.  1.
          2   -1    0    0  501    0  0.00000000000E+00 -0.00000000000E+00 -0.13523045559E+04  0.13523045559E+04  0.00000000000E+00 0. -1.
         25    2    1    2    0    0  0.12982354598E+03 -0.24259090377E+02 -0.10488657600E+04  0.10645250977E+04  0.12510653296E+03 0.  0.
          5    1    3    3  502    0  0.48643426481E+02  0.42441118969E+02 -0.22961401259E+03  0.23855292641E+03  0.41800000000E+01 0.  1.
         -5    1    3    3    0  502  0.81180119501E+02 -0.66700209346E+02 -0.81925174743E+03  0.82597217132E+03  0.41800000000E+01 0.  1.
        -11    1    1    2    0    0 -0.95654490794E+02  0.45086194890E+02 -0.12826820423E+03  0.16623862005E+03  0.00000000000E+00 0. -1.
         11    1    1    2    0    0 -0.34169055189E+02 -0.20827104513E+02 -0.14565731425E+03  0.15105411550E+03  0.00000000000E+00 0.  1.
</event>
<event>
 7    1  0.2726373E-009  0.1588474E+03  0.7561462E-02  0.1190004E+00
          1   -1    0    0  501    0  0.00000000000E+00  0.00000000000E+00  0.14851100217E+04  0.14851100217E+04  0.00000000000E+00 0. -1.
         -1   -1    0    0    0  501 -0.00000000000E+00 -0.00000000000E+00 -0.35219865608E+02  0.35219865608E+02  0.00000000000E+00 0.  1.
         25    2    1    2    0    0  0.69318487149E+02 -0.10078994573E+03  0.12804372884E+04  0.12923328209E+04  0.12506320238E+03 0.  0.
          5    1    3    3  502    0 -0.46131909089E+00 -0.96894405438E+02  0.54425986299E+03  0.55283361827E+03  0.41800000000E+01 0. -1.
         -5    1    3    3    0  502  0.69779806239E+02 -0.38955402923E+01  0.73617742545E+03  0.73949920266E+03  0.41800000000E+01 0. -1.
        -11    1    1    2    0    0  0.11210494193E+02  0.58834035767E+02  0.50459363913E+02  0.78315173187E+02  0.00000000000E+00 0.  1.
         11    1    1    2    0    0 -0.80528981341E+02  0.41955909963E+02  0.11899350369E+03  0.14968189315E+03  0.00000000000E+00 0. -1.
</event>
<event>
 7    1  0.2522928E-009  0.1583791E+03  0.7561462E-02  0.1190539E+00
          2   -1    0    0  501    0  0.00000000000E+00  0.00000000000E+00  0.35698095705E+03  0.35698095705E+03  0.00000000000E+00 0. -1.
         -2   -1    0    0    0  501 -0.00000000000E+00 -0.00000000000E+00 -0.17573972913E+03  0.17573972913E+03  0.00000000000E+00 0.  1.
         25    2    1    2    0    0 -0.61165209761E+02  0.12311360704E+03 -0.95476932148E+02  0.20895283883E+03  0.12508917283E+03 0.  0.
          5    1    3    3  502    0 -0.73237631319E+02  0.11633081268E+03 -0.11864946839E+03  0.18163638779E+03  0.41800000000E+01 0.  1.
         -5    1    3    3    0  502  0.12072421557E+02  0.67827943549E+01  0.23172536241E+02  0.27316451039E+02  0.41800000000E+01 0.  1.
        -11    1    1    2    0    0  0.84539006890E+02 -0.10704030294E+03  0.25005638899E+03  0.28483796765E+03  0.00000000000E+00 0. -1.
         11    1    1    2    0    0 -0.23373797129E+02 -0.16073304092E+02  0.26661771079E+02  0.38929879703E+02  0.00000000000E+00 0.  1.
</event>
<event>
 7    1  0.3399368E-009  0.9696819E+02  0.7561462E-02  0.1286804E+00
         -2   -1    0    0    0  501 -0.00000000000E+00  0.00000000000E+00  0.17620002778E+02  0.17620002778E+02  0.00000000000E+00 0. -1.
          2   -1    0    0  501    0  0.00000000000E+00 -0.00000000000E+00 -0.80554818110E+03  0.80554818110E+03  0.00000000000E+00 0.  1.
         25    2    1    2    0    0 -0.87818245836E+01  0.44491069444E+02 -0.52142276080E+03  0.53812983100E+03  0.12508174861E+03 0.  0.
          5    1    3    3  502    0 -0.64444981093E+02  0.26055129244E+02 -0.35132999085E+03  0.35816512982E+03  0.41800000000E+01 0.  1.
         -5    1    3    3    0  502  0.55663156509E+02  0.18435940200E+02 -0.17009276995E+03  0.17996470118E+03  0.41800000000E+01 0.  1.
        -11    1    1    2    0    0 -0.76539462560E+01 -0.48083341539E+02 -0.26348479957E+03  0.26794557327E+03  0.00000000000E+00 0.  1.
         11    1    1    2    0    0  0.16435770840E+02  0.35922720952E+01 -0.30206179491E+01  0.17092779607E+02  0.00000000000E+00 0. -1.
</event>
<event>
 7    1  0.2522928E-009  0.9515765E+02  0.7561462E-02  0.1290821E+00
          1   -1    0    0  501    0  0.00000000000E+00  0.00000000000E+00  0.12941998014E+03  0.12941998014E+03  0.00000000000E+00 0. -1.
         -1   -1    0    0    0  501 -0.00000000000E+00 -0.00000000000E+00 -0.10707908175E+03  0.10707908175E+03  0.00000000000E+00 0.  1.
         25    2    1    2    0    0  0.13471595130E+02  0.92491347556E+01  0.58299997925E+02  0.13897441294E+03  0.12509183556E+03 0.  0.
          5    1    3    3  502    0  0.53219450670E+02  0.45368447730E+02  0.19932915971E+02  0.72838173495E+02  0.41800000000E+01 0.  1.
         -5    1    3    3    0  502 -0.39747855539E+02 -0.36119312975E+02  0.38367081953E+02  0.66136239441E+02  0.41800000000E+01 0.  1.
        -11    1    1    2    0    0  0.24060541816E+02 -0.15094055830E+02 -0.49606824814E+02  0.57162726160E+02  0.00000000000E+00 0.  1.
         11    1    1    2    0    0 -0.37532136946E+02  0.58449210740E+01  0.13647725279E+02  0.40361922791E+02  0.00000000000E+00 0. -1.
</event>
<event>
 7    1  0.2522928E-009  0.1121659E+03  0.7561462E-02  0.1256611E+00
         -2   -1    0    0    0  501 -0.00000000000E+00  0.00000000000E+00  0.22760708672E+02  0.22760708672E+02  0.00000000000E+00 0.  1.
          2   -1    0    0  501    0  0.00000000000E+00 -0.00000000000E+00 -0.74248260515E+03  0.74248260515E+03  0.00000000000E+00 0. -1.
         25    2    1    2    0    0  0.59708670283E+02  0.32110940890E+01 -0.51105546534E+03  0.52952858038E+03  0.12508953734E+03 0.  0.
          5    1    3    3  502    0  0.81065909150E+02  0.29630944443E+02 -0.21833041508E+03  0.23480910767E+03  0.41800000000E+01 0.  1.
         -5    1    3    3    0  502 -0.21357238867E+02 -0.26419850354E+02 -0.29272505025E+03  0.29471947270E+03  0.41800000000E+01 0.  1.
        -11    1    1    2    0    0  0.20966864343E+02 -0.89795823246E+01 -0.84534455147E+02  0.87557503425E+02  0.00000000000E+00 0. -1.
         11    1    1    2    0    0 -0.80675534626E+02  0.57684882357E+01 -0.12413197600E+03  0.14815723003E+03  0.00000000000E+00 0.  1.
</event>
<event>
 7    1  0.2522928E-009  0.6913365E+02  0.7561462E-02  0.1363064E+00
          1   -1    0    0  501    0  0.00000000000E+00  0.00000000000E+00  0.36925166198E+03  0.36925166198E+03  0.00000000000E+00 0. -1.
         -1   -1    0    0    0  501 -0.00000000000E+00 -0.00000000000E+00 -0.34326810714E+02  0.34326810714E+02  0.00000000000E+00 0.  1.
         25    2    1    2    0    0 -0.32629887221E+02  0.84751704309E+01  0.22895133164E+03  0.26306226872E+03  0.12508599806E+03 0.  0.
          5    1    3    3  502    0 -0.44443595262E+02  0.17588030820E+02  0.23953830832E+03  0.24429622498E+03  0.41800000000E+01 0.  1.
         -5    1    3    3    0  502  0.11813708041E+02 -0.91128603888E+01 -0.10586976683E+02  0.18766043734E+02  0.41800000000E+01 0.  1.
        -11    1    1    2    0    0  0.40384007807E+02 -0.31038985004E+02  0.26252897120E+02  0.57301843634E+02  0.00000000000E+00 0.  1.
         11    1    1    2    0    0 -0.77541205866E+01  0.22563814573E+02  0.79720622506E+02  0.83214360340E+02  0.00000000000E+00 0. -1.
</event>
<event>
 7    1  0.2522928E-009  0.8045921E+02  0.7561462E-02  0.1327753E+00
          4   -1    0    0  501    0  0.00000000000E+00  0.00000000000E+00  0.26191053450E+03  0.26191053450E+03  0.00000000000E+00 0.  1.
         -4   -1    0    0    0  501 -0.00000000000E+00 -0.00000000000E+00 -0.59437075623E+02  0.59437075623E+02  0.00000000000E+00 0. -1.
         25    2    1    2    0    0  0.38714979133E+02  0.49492798231E+02  0.86830650421E+02  0.16473044948E+03  0.12509265545E+03 0.  0.
          5    1    3    3  502    0  0.95126348754E+01  0.61953178326E+02  0.10898317670E+03  0.12579146128E+03  0.41800000000E+01 0. -1.
         -5    1    3    3    0  502  0.29202344257E+02 -0.12460380095E+02 -0.22152526277E+02  0.38938988208E+02  0.41800000000E+01 0. -1.
        -11    1    1    2    0    0 -0.84532608092E+01 -0.27218343425E+02  0.11557938134E+03  0.11904154413E+03  0.00000000000E+00 0.  1.
         11    1    1    2    0    0 -0.30261718323E+02 -0.22274454806E+02  0.63427109403E-01  0.37575616506E+02  0.00000000000E+00 0. -1.
</event>
<event>
 7    1  0.2522928E-009  0.9557736E+02  0.7561462E-02  0.1289881E+00
          1   -1    0    0  501    0  0.00000000000E+00  0.00000000000E+00  0.77978426169E+02  0.77978426169E+02  0.00000000000E+00 0. -1.
         -1   -1    0    0    0  501 -0.00000000000E+00 -0.00000000000E+00 -0.21855543063E+03  0.21855543063E+03  0.00000000000E+00 0.  1.
         25    2    1    2    0    0  0.13318584466E+02 -0.19243697652E+01 -0.15978195971E+03  0.20336951863E+03  0.12509116102E+03 0.  0.
          5    1    3    3  502    0 -0.39357828302E+02  0.20803047021E+02 -0.14325391169E+02  0.46952046240E+02  0.41800000000E+01 0.  1.
         -5    1    3    3    0  502  0.52676412767E+02 -0.22727416786E+02 -0.14545656854E+03  0.15641747239E+03  0.41800000000E+01 0.  1.
        -11    1    1    2    0    0  0.41173351013E+01 -0.41719037966E+02 -0.11754138643E+01  0.41938194702E+02  0.00000000000E+00 0.  1.
         11    1    1    2    0    0 -0.17435919567E+02  0.43643407731E+02  0.20380369115E+02  0.51226143470E+02  0.00000000000E+00 0. -1.
</event>
<event>
 7    1  0.2522928E-009  0.9499659E+02  0.7561462E-02  0.1291184E+00
          2   -1    0    0  501    0  0.00000000000E+00  0.00000000000E+00  0.17540443475E+03  0.17540443475E+03  0.00000000000E+00 0. -1.
         -2   -1    0    0    0  501 -0.00000000000E+00 -0.00000000000E+00 -0.72214299528E+02  0.72214299528E+02  0.00000000000E+00 0.  1.
         25    2    1    2    0    0  0.12909496793E+02  0.11343429845E+02  0.29505420795E+02  0.12966342122E+03  0.12508678762E+03 0.  0.
          5    1    3    3  502    0 -0.51254680717E+02  0.29405403721E+02  0.99298691436E+01  0.60064921249E+02  0.41800000000E+01 0.  1.
         -5    1    3    3    0  502  0.64164177510E+02 -0.18061973876E+02  0.19575551651E+02  0.69598499971E+02  0.41800000000E+01 0.  1.
        -11    1    1    2    0    0  0.31682565610E+01  0.24488305181E+02 -0.91090463109E+01  0.26318998175E+02  0.00000000000E+00 0.  1.
         11    1    1    2    0    0 -0.16077753354E+02 -0.35831735026E+02  0.82793760737E+02  0.91636314880E+02  0.00000000000E+00 0. -1.
</event>
<event>
 7    1  0.2522928E-009  0.1119137E+03  0.7561462E-02  0.1257066E+00
         -2   -1    0    0    0  501 -0.00000000000E+00  0.00000000000E+00  0.12039659225E+03  0.12039659225E+03  0.00000000000E+00 0.  1.
          2   -1    0    0  501    0  0.00000000000E+00 -0.00000000000E+00 -0.14709306889E+03  0.14709306889E+03  0.00000000000E+00 0. -1.
         25    2    1    2    0    0 -0.65582560684E+02 -0.22741935633E+02 -0.49398695822E+02  0.15134755602E+03  0.12509030203E+03 0.  0.
          5    1    3    3  502    0 -0.71101489857E+02  0.18325654087E+02  0.14611481580E+02  0.74981459385E+02  0.41800000000E+01 0. -1.
         -5    1    3    3    0  502  0.55189291729E+01 -0.41067589720E+02 -0.64010177402E+02  0.76366096638E+02  0.41800000000E+01 0. -1.
        -11    1    1    2    0    0  0.24310502652E+02 -0.31932461168E+02  0.25556490310E+02  0.47579583987E+02  0.00000000000E+00 0. -1.
         11    1    1    2    0    0  0.41272058032E+02  0.54674396801E+02 -0.28542711294E+01  0.68562521128E+02  0.00000000000E+00 0.  1.
</event>
<event>
 7    1  0.2522928E-009  0.7909958E+02  0.7561462E-02  0.1331626E+00
          2   -1    0    0  501    0  0.00000000000E+00  0.00000000000E+00  0.69439743424E+03  0.69439743424E+03  0.00000000000E+00 0. -1.
         -2   -1    0    0    0  501 -0.00000000000E+00 -0.00000000000E+00 -0.21365733812E+02  0.21365733812E+02  0.00000000000E+00 0.  1.
         25    2    1    2    0    0 -0.34445589133E+02 -0.33630615740E+02  0.29993305502E+03  0.32851960416E+03  0.12509107041E+03 0.  0.
          5    1    3    3  502    0 -0.16180123999E+02 -0.33053383225E+02  0.30644433429E+03  0.30867446440E+03  0.41800000000E+01 0.  1.
         -5    1    3    3    0  502 -0.18265465134E+02 -0.57723251478E+00 -0.65112792746E+01  0.19845139751E+02  0.41800000000E+01 0.  1.
        -11    1    1    2    0    0  0.41887862616E+01 -0.30879121021E+02  0.14342267391E+03  0.14676896619E+03  0.00000000000E+00 0. -1.
         11    1    1    2    0    0  0.30256802871E+02  0.64509736761E+02  0.22967597150E+03  0.24047459771E+03  0.00000000000E+00 0.  1.
</event>
<event>
 7    1  0.2522928E-009  0.1982577E+03  0.7561462E-02  0.1151217E+00
         -2   -1    0    0    0  501 -0.00000000000E+00  0.00000000000E+00  0.10393101955E+03  0.10393101955E+03  0.00000000000E+00 0.  1.
          2   -1    0    0  501    0  0.00000000000E+00 -0.00000000000E+00 -0.43059215808E+03  0.43059215808E+03  0.00000000000E+00 0. -1.
         25    2    1    2    0    0  0.59302203361E+02  0.16685143956E+03 -0.21467719619E+03  0.30510527132E+03  0.12508706494E+03 0.  0.
          5    1    3    3  502    0  0.16481567179E+02  0.14913732567E+03 -0.21029671243E+03  0.25837136765E+03  0.41800000000E+01 0. -1.
         -5    1    3    3    0  502  0.42820636182E+02  0.17714113891E+02 -0.43804837631E+01  0.46733903667E+02  0.41800000000E+01 0. -1.
        -11    1    1    2    0    0 -0.73206877372E+02 -0.67540520891E+02 -0.62550129460E+02  0.11761584737E+03  0.00000000000E+00 0.  1.
         11    1    1    2    0    0  0.13904674011E+02 -0.99310918669E+02 -0.49433812875E+02  0.11180205893E+03  0.00000000000E+00 0. -1.
</event>
<event>
 7    1  0.2522928E-009  0.1325206E+03  0.7561462E-02  0.1223763E+00
         -1   -1    0    0    0  501 -0.00000000000E+00  0.00000000000E+00  0.86087704029E+02  0.86087704029E+02  0.00000000000E+00 0.  1.
          1   -1    0    0  501    0  0.00000000000E+00 -0.00000000000E+00 -0.31501113261E+03  0.31501113261E+03  0.00000000000E+00 0. -1.
         25    2    1    2    0    0 -0.12091202275E+03  0.14161824638E+01 -0.15640603287E+03  0.23394829550E+03  0.12508890850E+03 0.  0.
          5    1    3    3  502    0 -0.11358527260E+03  0.12225166748E+02 -0.46862639923E+02  0.12355018524E+03  0.41800000000E+01 0. -1.
         -5    1    3    3    0  502 -0.73267501519E+01 -0.10808984284E+02 -0.10954339295E+03  0.11039811026E+03  0.41800000000E+01 0. -1.
        -11    1    1    2    0    0  0.31124424504E+02 -0.29552791782E+02 -0.57677874703E+02  0.71894607121E+02  0.00000000000E+00 0.  1.
         11    1    1    2    0    0  0.89787598246E+02  0.28136609318E+02 -0.14839521007E+02  0.95255934022E+02  0.00000000000E+00 0. -1.
</event>
<event>
 7    1  0.2522928E-009  0.8776163E+02  0.7561462E-02  0.1308365E+00
         -1   -1    0    0    0  501 -0.00000000000E+00  0.00000000000E+00  0.37628638152E+02  0.37628638152E+02  0.00000000000E+00 0.  1.
          1   -1    0    0  501    0  0.00000000000E+00 -0.00000000000E+00 -0.35144496165E+03  0.35144496165E+03  0.00000000000E+00 0. -1.
         25    2    1    2    0    0  0.52948705615E+01 -0.49775164607E+02 -0.22360144898E+03  0.26105621555E+03  0.12508851677E+03 0.  0.
          5    1    3    3  502    0  0.38034644145E+02 -0.28076833222E+02 -0.21559096463E+03  0.22075298220E+03  0.41800000000E+01 0. -1.
         -5    1    3    3    0  502 -0.32739773584E+02 -0.21698331385E+02 -0.80104843450E+01  0.40303233352E+02  0.41800000000E+01 0. -1.
        -11    1    1    2    0    0 -0.23966369395E+00  0.68840205117E+02 -0.56946804741E+02  0.89341870640E+02  0.00000000000E+00 0.  1.
         11    1    1    2    0    0 -0.50552068675E+01 -0.19065040510E+02 -0.33268069778E+02  0.38675513608E+02  0.00000000000E+00 0. -1.
</event>
<event>
 7    1  0.2522928E-009  0.1155689E+03  0.7561462E-02  0.1250591E+00
          2   -1    0    0  501    0  0.00000000000E+00  0.00000000000E+00  0.24928620952E+02  0.24928620952E+02  0.00000000000E+00 0. -1.
         -2   -1    0    0    0  501 -0.00000000000E+00 -0.00000000000E+00 -0.65164344845E+03  0.65164344845E+03  0.00000000000E+00 0.  1.
         25    2    1    2    0    0  0.22464703254E+02  0.35410662787E+02 -0.38334529245E+03  0.40541390676E+03  0.12509294392E+03 0.  0.
          5    1    3    3  502    0  0.60741665683E+02  0.52165340415E+02 -0.16977560602E+03  0.18775516369E+03  0.41800000000E+01 0. -1.
         -5    1    3    3    0  502 -0.38276962429E+02 -0.16754677628E+02 -0.21356968643E+03  0.21765874307E+03  0.41800000000E+01 0. -1.
        -11    1    1    2    0    0 -0.57768705443E+02  0.16402545156E+01 -0.18355354219E+03  0.19243652619E+03  0.00000000000E+00 0.  1.
         11    1    1    2    0    0  0.35304002189E+02 -0.37050917303E+02 -0.59815992859E+02  0.78721636449E+02  0.00000000000E+00 0. -1.
</event>
<event>
 7    1  0.2522928E-009  0.1131264E+03  0.7561462E-02  0.1254887E+00
          1   -1    0    0  501    0  0.00000000000E+00  0.00000000000E+00  0.14467908269E+03  0.14467908269E+03  0.00000000000E+00 0. -1.
         -1   -1    0    0    0  501 -0.00000000000E+00 -0.00000000000E+00 -0.14679696392E+03  0.14679696392E+03  0.00000000000E+00 0.  1.
         25    2    1    2    0    0 -0.79510065702E+02 -0.48142361634E+02 -0.30501026861E+02  0.15879675682E+03  0.12508620949E+03 0.  0.
          5    1    3    3  502    0 -0.70101191138E+02 -0.18851423600E+02 -0.75049662137E+02  0.10449630308E+03  0.41800000000E+01 0. -1.
         -5    1    3    3    0  502 -0.94088745640E+01 -0.29290938033E+02  0.44548635275E+02  0.54300453740E+02  0.41800000000E+01 0. -1.
        -11    1    1    2    0    0 -0.14766762581E+02 -0.32478445723E+01 -0.10581271559E+02  0.18454513792E+02  0.00000000000E+00 0.  1.
         11    1    1    2    0    0  0.94276828283E+02  0.51390206206E+02  0.38964417189E+02  0.11422477600E+03  0.00000000000E+00 0. -1.
</event>
<event>
 7    1  0.2522928E-009  0.1019624E+03  0.7561462E-02  0.1276223E+00
         -2   -1    0    0    0  501 -0.00000000000E+00  0.00000000000E+00  0.37731496320E+03  0.37731496320E+03  0.00000000000E+00 0.  1.
          2   -1    0    0  501    0  0.00000000000E+00 -0.00000000000E+00 -0.35943287130E+02  0.35943287130E+02  0.00000000000E+00 0. -1.
         25    2    1    2    0    0 -0.35108851360E+02  0.72265265836E+01  0.23457236052E+03  0.26824614016E+03  0.12508775025E+03 0.  0.
          5    1    3    3  502    0  0.97808614492E+01  0.59415314960E+02  0.94788149512E+02  0.11237486636E+03  0.41800000000E+01 0. -1.
         -5    1    3    3    0  502 -0.44889712809E+02 -0.52188788376E+02  0.13978421101E+03  0.15587127380E+03  0.41800000000E+01 0. -1.
        -11    1    1    2    0    0  0.39300970144E+01  0.27586754938E+02  0.91790715678E+02  0.95927108761E+02  0.00000000000E+00 0.  1.
         11    1    1    2    0    0  0.31178754345E+02 -0.34813281522E+02  0.15008599871E+02  0.49085001405E+02  0.00000000000E+00 0. -1.
</event>
<event>
 7    1  0.2522928E-009  0.1081468E+03  0.7561462E-02  0.1264041E+00
         -2   -1    0    0    0  501 -0.00000000000E+00  0.00000000000E+00  0.62223649719E+02  0.62223649719E+02  0.00000000000E+00 0.  1.
          2   -1    0    0  501    0  0.00000000000E+00 -0.00000000000E+00 -0.21709980256E+03  0.21709980256E+03  0.00000000000E+00 0. -1.
         25    2    1    2    0    0 -0.43604839837E+01  0.13696167309E+02 -0.39044540031E+02  0.13182870944E+03  0.12509090177E+03 0.  0.
          5    1    3    3  502    0  0.59830775853E+02  0.11608705902E+02 -0.13370360381E+02  0.62535771592E+02  0.41800000000E+01 0.  1.
         -5    1    3    3    0  502 -0.64191259837E+02  0.20874614072E+01 -0.25674179649E+02  0.69292937845E+02  0.41800000000E+01 0.  1.
        -11    1    1    2    0    0  0.43158807698E+02 -0.25698359636E+02 -0.56565339951E+02  0.75648701599E+02  0.00000000000E+00 0.  1.
         11    1    1    2    0    0 -0.38798323714E+02  0.12002192327E+02 -0.59266272863E+02  0.71846041246E+02  0.00000000000E+00 0. -1.
</event>
<event>
 7    1  0.2522928E-009  0.7331624E+02  0.7561462E-02  0.1349166E+00
         -3   -1    0    0    0  501 -0.00000000000E+00  0.00000000000E+00  0.13826028619E+03  0.13826028619E+03  0.00000000000E+00 0.  1.
          3   -1    0    0  501    0  0.00000000000E+00 -0.00000000000E+00 -0.92452032722E+02  0.92452032722E+02  0.00000000000E+00 0. -1.
         25    2    1    2    0    0  0.70677767481E+01  0.47372967417E+01  0.58970836004E+02  0.13855475978E+03  0.12508983376E+03 0.  0.
          5    1    3    3  502    0 -0.21790335172E+02 -0.10458248618E+02  0.90037350034E+02  0.93318757344E+02  0.41800000000E+01 0. -1.
         -5    1    3    3    0  502  0.28858111920E+02  0.15195545360E+02 -0.31066514030E+02  0.45236002436E+02  0.41800000000E+01 0. -1.
        -11    1    1    2    0    0 -0.24220348548E+02 -0.41841176981E+02  0.24326774669E+01  0.48406893048E+02  0.00000000000E+00 0.  1.
         11    1    1    2    0    0  0.17152571800E+02  0.37103880240E+02 -0.15595260004E+02  0.43750666084E+02  0.00000000000E+00 0. -1.
</event>
<event>
 7    1  0.2522928E-009  0.3369477E+03  0.7561462E-02  0.1068103E+00
          2   -1    0    0  501    0  0.00000000000E+00  0.00000000000E+00  0.24249611615E+04  0.24249611615E+04  0.00000000000E+00 0. -1.
         -2   -1    0    0    0  501 -0.00000000000E+00 -0.00000000000E+00 -0.48587241295E+02  0.48587241295E+02  0.00000000000E+00 0.  1.
         25    2    1    2    0    0  0.17976582658E+03  0.27113047349E+03  0.11527001059E+04  0.12042393321E+04  0.12508936328E+03 0.  0.
          5    1    3    3  502    0  0.13525040030E+03  0.26188198215E+03  0.10689852104E+04  0.11088830848E+04  0.41800000000E+01 0. -1.
         -5    1    3    3    0  502  0.44515426275E+02  0.92484913404E+01  0.83714895515E+02  0.95356247302E+02  0.41800000000E+01 0. -1.
        -11    1    1    2    0    0 -0.79746570266E+02 -0.59861910095E+02  0.45901098110E+03  0.46971698343E+03  0.00000000000E+00 0. -1.
         11    1    1    2    0    0 -0.10001925631E+03 -0.21126856340E+03  0.76466283316E+03  0.79959208721E+03  0.00000000000E+00 0.  1.
</event>
<event>
 7    1  0.2522928E-009  0.1460753E+03  0.7561462E-02  0.1205380E+00
         -2   -1    0    0    0  501 -0.00000000000E+00  0.00000000000E+00  0.37887869013E+02  0.37887869013E+02  0.00000000000E+00 0.  1.
          2   -1    0    0  501    0  0.00000000000E+00 -0.00000000000E+00 -0.62156487754E+03  0.62156487754E+03  0.00000000000E+00 0. -1.
         25    2    1    2    0    0  0.32944592783E+02 -0.10151928083E+03 -0.35690576885E+03  0.39296772592E+03  0.12510153957E+03 0.  0.
          5    1    3    3  502    0  0.62314496578E+02 -0.11517091722E+03 -0.26943843968E+03  0.29960304043E+03  0.41800000000E+01 0.  1.
         -5    1    3    3    0  502 -0.29369903795E+02  0.13651636388E+02 -0.87467329169E+02  0.93364685492E+02  0.41800000000E+01 0.  1.
        -11    1    1    2    0    0 -0.39114076763E+02  0.15237511661E+02 -0.13038038945E+03  0.13697130618E+03  0.00000000000E+00 0.  1.
         11    1    1    2    0    0  0.61694839805E+01  0.86281769174E+02 -0.96390850227E+02  0.12951371445E+03  0.00000000000E+00 0. -1.
</event>
<event>
 7    1  0.2522928E-009  0.1884950E+03  0.7561462E-02  0.1159826E+00
          2   -1    0    0  501    0  0.00000000000E+00  0.00000000000E+00  0.14271811997E+03  0.14271811997E+03  0.00000000000E+00 0. -1.
         -2   -1    0    0    0  501 -0.00000000000E+00 -0.00000000000E+00 -0.33641309728E+03  0.33641309728E+03  0.00000000000E+00 0.  1.
         25    2    1    2    0    0  0.32384482537E+02  0.16284871550E+03 -0.20136323752E+03  0.28941890649E+03  0.12509073173E+03 0.  0.
          5    1    3    3  502    0 -0.28246278272E+02 -0.20089485126E+01 -0.11830153981E+02  0.30972779236E+02  0.41800000000E+01 0. -1.
         -5    1    3    3    0  502  0.60630760810E+02  0.16485766401E+03 -0.18953308354E+03  0.25844612726E+03  0.41800000000E+01 0. -1.
        -11    1    1    2    0    0 -0.21938174426E+02 -0.16045178713E+03 -0.16982258477E+02  0.16283260298E+03  0.00000000000E+00 0.  1.
         11    1    1    2    0    0 -0.10446308111E+02 -0.23969283690E+01  0.24650518682E+02  0.26879707775E+02  0.00000000000E+00 0. -1.
</event>
<event>
 7    1  0.2522928E-009  0.1045921E+03  0.7561462E-02  0.1270925E+00
          1   -1    0    0  501    0  0.00000000000E+00  0.00000000000E+00  0.10739821450E+04  0.10739821450E+04  0.00000000000E+00 0. -1.
         -1   -1    0    0    0  501 -0.00000000000E+00 -0.00000000000E+00 -0.17916797010E+02  0.17916797010E+02  0.00000000000E+00 0.  1.
         25    2    1    2    0    0  0.80774064112E+02  0.27336217058E+02  0.55005671687E+03  0.57051027686E+03  0.12509143073E+03 0.  0.
          5    1    3    3  502    0  0.82939953368E+02  0.27361540373E+02  0.55605364649E+03  0.56288615184E+03  0.41800000000E+01 0. -1.
         -5    1    3    3    0  502 -0.21658892565E+01 -0.25323315194E-01 -0.59969296225E+01  0.76241250278E+01  0.41800000000E+01 0. -1.
        -11    1    1    2    0    0 -0.93803934004E+02 -0.85715272944E+01  0.46501491998E+03  0.47445919205E+03  0.00000000000E+00 0. -1.
         11    1    1    2    0    0  0.13029869892E+02 -0.18764689763E+02  0.40993711103E+02  0.46929473056E+02  0.00000000000E+00 0.  1.
</event>
<event>
 7    1  0.2522928E-009  0.1373893E+03  0.7561462E-02  0.1216886E+00
         -1   -1    0    0    0  501 -0.00000000000E+00  0.00000000000E+00  0.18243249659E+03  0.18243249659E+03  0.00000000000E+00 0.  1.
          1   -1    0    0  501    0  0.00000000000E+00 -0.00000000000E+00 -0.23830860827E+03  0.23830860827E+03  0.00000000000E+00 0. -1.
         25    2    1    2    0    0  0.45722376243E+02  0.12705987973E+03 -0.14629945552E+03  0.23513140129E+03  0.12509395054E+03 0.  0.
          5    1    3    3  502    0  0.29455232029E+02  0.42970791180E+02  0.13321624301E+02  0.53935495386E+02  0.41800000000E+01 0. -1.
         -5    1    3    3    0  502  0.16267144214E+02  0.84089088550E+02 -0.15962107982E+03  0.18119590591E+03  0.41800000000E+01 0. -1.
        -11    1    1    2    0    0 -0.22652640540E+02 -0.92344420069E+02  0.10481230724E+03  0.14151414696E+03  0.00000000000E+00 0.  1.
         11    1    1    2    0    0 -0.23069735703E+02 -0.34715459662E+02 -0.14388963390E+02  0.44095556606E+02  0.00000000000E+00 0. -1.
</event>
<event>
 7    1  0.2522928E-009  0.5058583E+02  0.7561462E-02  0.1442207E+00
          2   -1    0    0  501    0  0.00000000000E+00  0.00000000000E+00  0.52087103139E+03  0.52087103139E+03  0.00000000000E+00 0. -1.
         -2   -1    0    0    0  501 -0.00000000000E+00 -0.00000000000E+00 -0.33139912760E+02  0.33139912760E+02  0.00000000000E+00 0.  1.
         25    2    1    2    0    0 -0.19699074658E+02  0.35644234224E+01  0.39241259495E+03  0.41235463440E+03  0.12509173105E+03 0.  0.
          5    1    3    3  502    0 -0.26421246967E+01  0.31964004231E+01  0.39460846859E+03  0.39465239601E+03  0.41800000000E+01 0.  1.
         -5    1    3    3    0  502 -0.17056949962E+02  0.36802299926E+00 -0.21958736334E+01  0.17702238388E+02  0.41800000000E+01 0.  1.
        -11    1    1    2    0    0 -0.22258740136E+02  0.19715353978E+02 -0.52803945832E+01  0.30199822216E+02  0.00000000000E+00 0.  1.
         11    1    1    2    0    0  0.41957814794E+02 -0.23279777400E+02  0.10059891826E+03  0.11145648753E+03  0.00000000000E+00 0. -1.
</event>
<event>
 7    1  0.2522928E-009  0.1119893E+03  0.7561462E-02  0.1256930E+00
         -3   -1    0    0    0  501 -0.00000000000E+00  0.00000000000E+00  0.10406959238E+04  0.10406959238E+04  0.00000000000E+00 0.  1.
          3   -1    0    0  501    0  0.00000000000E+00 -0.00000000000E+00 -0.14889497346E+02  0.14889497346E+02  0.00000000000E+00 0. -1.
         25    2    1    2    0    0 -0.51092814701E+02 -0.31050439293E+02  0.63240716837E+03  0.64742620080E+03  0.12508898188E+03 0.  0.
          5    1    3    3  502    0  0.37032339378E+02 -0.83940189499E+01  0.31178080072E+03  0.31411239042E+03  0.41800000000E+01 0. -1.
         -5    1    3    3    0  502 -0.88125154079E+02 -0.22656420343E+02  0.32062636765E+03  0.33331381039E+03  0.41800000000E+01 0. -1.
        -11    1    1    2    0    0 -0.17214037335E+02  0.18446152547E+02  0.35324741510E+02  0.43409918083E+02  0.00000000000E+00 0.  1.
         11    1    1    2    0    0  0.68306852036E+02  0.12604286746E+02  0.35807451655E+03  0.36474930224E+03  0.00000000000E+00 0. -1.
</event>
<event>
 7    1  0.2522928E-009  0.8416953E+02  0.7561462E-02  0.1317619E+00
          3   -1    0    0  501    0  0.00000000000E+00  0.00000000000E+00  0.15163341753E+02  0.15163341753E+02  0.00000000000E+00 0. -1.
         -3   -1    0    0    0  501 -0.00000000000E+00 -0.00000000000E+00 -0.17491668730E+04  0.17491668730E+04  0.00000000000E+00 0.  1.
         25    2    1    2    0    0  0.77811108601E+01  0.49227029436E+02 -0.15268266707E+04  0.15327528010E+04  0.12509045008E+03 0.  0.
          5    1    3    3  502    0 -0.15709760910E+02  0.10395163567E+02 -0.32972847197E+02  0.38203888097E+02  0.41800000000E+01 0.  1.
         -5    1    3    3    0  502  0.23490871770E+02  0.38831865869E+02 -0.14938538235E+04  0.14945489129E+04  0.41800000000E+01 0.  1.
        -11    1    1    2    0    0  0.41597690832E+02 -0.23821809161E+02 -0.95229749767E+02  0.10661403151E+03  0.00000000000E+00 0.  1.
         11    1    1    2    0    0 -0.49378801692E+02 -0.25405220275E+02 -0.11194711080E+03  0.12496338220E+03  0.00000000000E+00 0. -1.
</event>
<event>
 7    1  0.2522928E-009  0.1018834E+03  0.7561462E-02  0.1276384E+00
          1   -1    0    0  501    0  0.00000000000E+00  0.00000000000E+00  0.18483158301E+03  0.18483158301E+03  0.00000000000E+00 0. -1.
         -1   -1    0    0    0  501 -0.00000000000E+00 -0.00000000000E+00 -0.85401831870E+02  0.85401831870E+02  0.00000000000E+00 0.  1.
         25    2    1    2    0    0 -0.21597646475E+02 -0.60985474681E+02  0.39500004071E+02  0.14627999725E+03  0.12510755700E+03 0.  0.
          5    1    3    3  502    0 -0.61162062957E+02 -0.50718040572E+01 -0.91089053792E+01  0.62184931445E+02  0.41800000000E+01 0.  1.
         -5    1    3    3    0  502  0.39564416483E+02 -0.55913670624E+02  0.48608909450E+02  0.84095065801E+02  0.41800000000E+01 0.  1.
        -11    1    1    2    0    0 -0.87490000548E+01  0.25383113816E+02 -0.18518532812E+02  0.32615694481E+02  0.00000000000E+00 0.  1.
         11    1    1    2    0    0  0.30346646530E+02  0.35602360865E+02  0.78448279882E+02  0.91337723155E+02  0.00000000000E+00 0. -1.
</event>
<event>
 7    1  0.2522928E-009  0.9611281E+02  0.7561462E-02  0.1288689E+00
          1   -1    0    0  501    0  0.00000000000E+00  0.00000000000E+00  0.31738119319E+03  0.31738119319E+03  0.00000000000E+00 0. -1.
         -1   -1    0    0    0  501 -0.00000000000E+00 -0.00000000000E+00 -0.43112145547E+02  0.43112145547E+02  0.00000000000E+00 0.  1.
         25    2    1    2    0    0 -0.50918521634E+02 -0.55295716110E+01  0.11699306170E+03  0.17876799357E+03  0.12508935618E+03 0.  0.
          5    1    3    3  502    0 -0.57829235217E+02  0.30433502773E+02  0.10808392274E+02  0.66368006451E+02  0.41800000000E+01 0. -1.
         -5    1    3    3    0  502  0.69107135824E+01 -0.35963074384E+02  0.10618466943E+03  0.11239998711E+03  0.41800000000E+01 0. -1.
        -11    1    1    2    0    0  0.46241440376E+02  0.36283514403E+02  0.11598380089E+03  0.13002694450E+03  0.00000000000E+00 0. -1.
         11    1    1    2    0    0  0.46770812581E+01 -0.30753942792E+02  0.41292185043E+02  0.51698400672E+02  0.00000000000E+00 0.  1.
</event>
<event>
 7    1  0.2522928E-009  0.2805423E+03  0.7561462E-02  0.1095393E+00
          2   -1    0    0  501    0  0.00000000000E+00  0.00000000000E+00  0.12005436993E+04  0.12005436993E+04  0.00000000000E+00 0. -1.
         -2   -1    0    0    0  501 -0.00000000000E+00 -0.00000000000E+00 -0.73008975418E+02  0.73008975418E+02  0.00000000000E+00 0.  1.
         25    2    1    2    0    0 -0.24775002722E+03  0.11185654271E+03  0.66659778659E+03  0.73067941245E+03  0.12509129686E+03 0.  0.
          5    1    3    3  502    0 -0.48900255878E+02  0.41200945932E+02  0.30782226223E+03  0.31442132640E+03  0.41800000000E+01 0. -1.
         -5    1    3    3    0  502 -0.19884977134E+03  0.70655596781E+02  0.35877552436E+03  0.41625808605E+03  0.41800000000E+01 0. -1.
        -11    1    1    2    0    0  0.22770805051E+03 -0.12707743211E+03  0.43118503667E+03  0.50390491749E+03  0.00000000000E+00 0.  1.
         11    1    1    2    0    0  0.20041976713E+02  0.15220889396E+02  0.29751900609E+02  0.38968344774E+02  0.00000000000E+00 0. -1.
</event>
<event>
 7    1  0.2522928E-009  0.1166012E+03  0.7561462E-02  0.1248812E+00
          2   -1    0    0  501    0  0.00000000000E+00  0.00000000000E+00  0.50962522424E+03  0.50962522424E+03  0.00000000000E+00 0. -1.
         -2   -1    0    0    0  501 -0.00000000000E+00 -0.00000000000E+00 -0.30095938352E+02  0.30095938352E+02  0.00000000000E+00 0.  1.
         25    2    1    2    0    0  0.33772983828E+02  0.49996418954E+02  0.29678255407E+03  0.32766747267E+03  0.12508329984E+03 0.  0.
          5    1    3    3  502    0 -0.20432505436E+02 -0.25767553358E+02  0.28763592409E+02  0.43889300891E+02  0.41800000000E+01 0.  1.
         -5    1    3    3    0  502  0.54205489264E+02  0.75763972312E+02  0.26801896166E+03  0.28377817178E+03  0.41800000000E+01 0.  1.
        -11    1    1    2    0    0 -0.14616049705E+02 -0.74373930629E+02  0.14063021651E+03  0.15975596472E+03  0.00000000000E+00 0.  1.
         11    1    1    2    0    0 -0.19156934124E+02  0.24377511675E+02  0.42116515306E+02  0.52297725209E+02  0.00000000000E+00 0. -1.
</event>
<event>
 7    1  0.2522928E-009  0.1414373E+03  0.7561462E-02  0.1211408E+00
         -2   -1    0    0    0  501 -0.00000000000E+00  0.00000000000E+00  0.79819804979E+03  0.79819804979E+03  0.00000000000E+00 0.  1.
          2   -1    0    0  501    0  0.00000000000E+00 -0.00000000000E+00 -0.34641188706E+02  0.34641188706E+02  0.00000000000E+00 0. -1.
         25    2    1    2    0    0  0.10243792277E+03 -0.55769691572E+02  0.48298644493E+03  0.51237480028E+03  0.12509293927E+03 0.  0.
          5    1    3    3  502    0  0.64561185155E+00 -0.58340860129E+02  0.26998712047E+03  0.27625095546E+03  0.41800000000E+01 0.  1.
         -5    1    3    3    0  502  0.10179231091E+03  0.25711685572E+01  0.21299932446E+03  0.23612384482E+03  0.41800000000E+01 0.  1.
        -11    1    1    2    0    0 -0.88813828703E+02  0.61142011081E+02  0.28536346303E+03  0.30505499130E+03  0.00000000000E+00 0.  1.
         11    1    1    2    0    0 -0.13624094063E+02 -0.53723195097E+01 -0.47930468722E+01  0.15409446916E+02  0.00000000000E+00 0. -1.
</event>
<event>
 7    1  0.2522928E-009  0.1162033E+03  0.7561462E-02  0.1249495E+00
         -2   -1    0    0    0  501 -0.00000000000E+00  0.00000000000E+00  0.44650606076E+02  0.44650606076E+02  0.00000000000E+00 0.  1.
          2   -1    0    0  501    0  0.00000000000E+00 -0.00000000000E+00 -0.47347065254E+03  0.47347065254E+03  0.00000000000E+00 0. -1.
         25    2    1    2    0    0 -0.85037859683E+02  0.42802711208E+02 -0.24132056352E+03  0.28800472228E+03  0.12509035140E+03 0.  0.
          5    1    3    3  502    0 -0.87685135813E+02  0.60268208126E+02 -0.24700777489E+03  0.26898188267E+03  0.41800000000E+01 0. -1.
         -5    1    3    3    0  502  0.26472761295E+01 -0.17465496919E+02  0.56872113701E+01  0.19022839606E+02  0.41800000000E+01 0. -1.
        -11    1    1    2    0    0  0.29822679941E+02 -0.43273570569E+02 -0.16004036688E+03  0.16844854757E+03  0.00000000000E+00 0. -1.
         11    1    1    2    0    0  0.55215179742E+02  0.47085936175E+00 -0.27459116067E+02  0.61667988760E+02  0.00000000000E+00 0.  1.
</event>
<event>
 7    1  0.2522928E-009  0.1130535E+03  0.7561462E-02  0.1255017E+00
          2   -1    0    0  501    0  0.00000000000E+00  0.00000000000E+00  0.61707612320E+02  0.61707612320E+02  0.00000000000E+00 0. -1.
         -2   -1    0    0    0  501 -0.00000000000E+00 -0.00000000000E+00 -0.32158580944E+03  0.32158580944E+03  0.00000000000E+00 0.  1.
         25    2    1    2    0    0 -0.84380135095E+01 -0.77246522184E+02 -0.83967093056E+02  0.16952722387E+03  0.12510308412E+03 0.  0.
          5    1    3    3  502    0  0.41278316863E+02 -0.12990838627E+02 -0.76298414806E+02  0.87815612696E+02  0.41800000000E+01 0. -1.
         -5    1    3    3    0  502 -0.49716330372E+02 -0.64255683557E+02 -0.76686782497E+01  0.81711611177E+02  0.41800000000E+01 0. -1.
        -11    1    1    2    0    0 -0.28530763062E+02  0.34196211286E+02 -0.21889461542E+02  0.49623924006E+02  0.00000000000E+00 0. -1.
         11    1    1    2    0    0  0.36968776572E+02  0.43050310898E+02 -0.15402164252E+03  0.16414227388E+03  0.00000000000E+00 0.  1.
</event>
<event>
 7    1  0.2522928E-009  0.1168075E+03  0.7561462E-02  0.1248459E+00
          2   -1    0    0  501    0  0.00000000000E+00  0.00000000000E+00  0.10335605441E+03  0.10335605441E+03  0.00000000000E+00 0. -1.
         -2   -1    0    0    0  501 -0.00000000000E+00 -0.00000000000E+00 -0.16568087725E+03  0.16568087725E+03  0.00000000000E+00 0.  1.
         25    2    1    2    0    0 -0.71673237706E+02 -0.10613854958E+02 -0.19511525375E+02  0.14587196680E+03  0.12509286213E+03 0.  0.
          5    1    3    3  502    0 -0.93094091909E+02  0.19898322341E+01  0.23404726463E+02  0.96102669065E+02  0.41800000000E+01 0. -1.
         -5    1    3    3    0  502  0.21420854203E+02 -0.12603687193E+02 -0.42916251838E+02  0.49769297740E+02  0.41800000000E+01 0. -1.
        -11    1    1    2    0    0  0.86185942149E+02  0.29759089739E+02 -0.30330693270E+02  0.96091472049E+02  0.00000000000E+00 0. -1.
         11    1    1    2    0    0 -0.14512704444E+02 -0.19145234781E+02 -0.12482604194E+02  0.27073492803E+02  0.00000000000E+00 0.  1.
</event>
<event>
 7    1  0.2522928E-009  0.1089054E+03  0.7561462E-02  0.1262610E+00
         -2   -1    0    0    0  501 -0.00000000000E+00  0.00000000000E+00  0.40036627871E+02  0.40036627871E+02  0.00000000000E+00 0.  1.
          2   -1    0    0  501    0  0.00000000000E+00 -0.00000000000E+00 -0.32066697830E+03  0.32066697830E+03  0.00000000000E+00 0. -1.
         25    2    1    2    0    0  0.38564790577E+02 -0.24856137693E+01 -0.12040419452E+03  0.17784653824E+03  0.12505518685E+03 0.  0.
          5    1    3    3  502    0  0.32702442086E+02  0.59122677611E+02 -0.50937906006E+02  0.84717668727E+02  0.41800000000E+01 0. -1.
         -5    1    3    3    0  502  0.58623484918E+01 -0.61608291381E+02 -0.69466288512E+02  0.93128869511E+02  0.41800000000E+01 0. -1.
        -11    1    1    2    0    0  0.10468963378E+02 -0.28312459038E+02 -0.57010102925E+02  0.64508498405E+02  0.00000000000E+00 0. -1.
         11    1    1    2    0    0 -0.49033753955E+02  0.30798072807E+02 -0.10321605299E+03  0.11834856953E+03  0.00000000000E+00 0.  1.
</event>
<event>
 7    1  0.2522928E-009  0.1063339E+03  0.7561462E-02  0.1267514E+00
         -3   -1    0    0    0  501 -0.00000000000E+00  0.00000000000E+00  0.64953890810E+02  0.64953890810E+02  0.00000000000E+00 0.  1.
          3   -1    0    0  501    0  0.00000000000E+00 -0.00000000000E+00 -0.23770986154E+03  0.23770986154E+03  0.00000000000E+00 0. -1.
         25    2    1    2    0    0 -0.78894169987E+00  0.28240516359E+02 -0.15953385089E+03  0.20468823270E+03  0.12509226129E+03 0.  0.
          5    1    3    3  502    0  0.20986719801E+02 -0.39192745548E+02 -0.10830116925E+03  0.11714576122E+03  0.41800000000E+01 0. -1.
         -5    1    3    3    0  502 -0.21775661501E+02  0.67433261907E+02 -0.51232681641E+02  0.87542471483E+02  0.41800000000E+01 0. -1.
        -11    1    1    2    0    0 -0.17473071581E+02  0.30699766072E+02 -0.32928100905E+01  0.35477125950E+02  0.00000000000E+00 0. -1.
         11    1    1    2    0    0  0.18262013281E+02 -0.58940282431E+02 -0.99293097469E+01  0.62498393693E+02  0.00000000000E+00 0.  1.
</event>
<event>
 7    1  0.2522928E-009  0.9883532E+02  0.7561462E-02  0.1282764E+00
         -1   -1    0    0    0  501 -0.00000000000E+00  0.00000000000E+00  0.30928014880E+02  0.30928014880E+02  0.00000000000E+00 0.  1.
          1   -1    0    0  501    0  0.00000000000E+00 -0.00000000000E+00 -0.83489067449E+03  0.83489067449E+03  0.00000000000E+00 0. -1.
         25    2    1    2    0    0 -0.61066630215E+02  0.38777932922E+02 -0.67431304196E+03  0.68962230195E+03  0.12509188378E+03 0.  0.
          5    1    3    3  502    0 -0.32948300874E+02 -0.15889934397E+02 -0.49050937123E+02  0.61331455048E+02  0.41800000000E+01 0.  1.
         -5    1    3    3    0  502 -0.28118329342E+02  0.54667867319E+02 -0.62526210483E+03  0.62829084690E+03  0.41800000000E+01 0.  1.
        -11    1    1    2    0    0  0.22801857649E+02  0.19172913080E+02 -0.93039848935E+02  0.97693084699E+02  0.00000000000E+00 0. -1.
         11    1    1    2    0    0  0.38264772566E+02 -0.57950846002E+02 -0.36609768715E+02  0.78503302716E+02  0.00000000000E+00 0.  1.
</event>
<event>
 7    1  0.2522928E-009  0.1052839E+03  0.7561462E-02  0.1269561E+00
         -1   -1    0    0    0  501 -0.00000000000E+00  0.00000000000E+00  0.39728007336E+02  0.39728007336E+02  0.00000000000E+00 0.  1.
          1   -1    0    0  501    0  0.00000000000E+00 -0.00000000000E+00 -0.44626918375E+03  0.44626918375E+03  0.00000000000E+00 0. -1.
         25    2    1    2    0    0  0.14043409140E+02 -0.32549883051E+02 -0.35830540555E+03  0.38116541251E+03  0.12509035061E+03 0.  0.
          5    1    3    3  502    0  0.28882409669E+02  0.37143041568E+02 -0.22549621893E+03  0.23039057332E+03  0.41800000000E+01 0.  1.
         -5    1    3    3    0  502 -0.14839000529E+02 -0.69692924620E+02 -0.13280918662E+03  0.15077483918E+03  0.41800000000E+01 0.  1.
        -11    1    1    2    0    0 -0.43660910684E+02  0.42281703178E+02 -0.39387344801E+02  0.72424998971E+02  0.00000000000E+00 0. -1.
         11    1    1    2    0    0  0.29617501545E+02 -0.97318201262E+01 -0.88484260548E+01  0.32406779605E+02  0.00000000000E+00 0.  1.
</event>
<event>
 7    1  0.2522928E-009  0.1197360E+03  0.7561462E-02  0.1243533E+00
         -4   -1    0    0    0  501 -0.00000000000E+00  0.00000000000E+00  0.61888823681E+03  0.61888823681E+03  0.00000000000E+00 0.  1.
          4   -1    0    0  501    0  0.00000000000E+00 -0.00000000000E+00 -0.25115899783E+02  0.25115899783E+02  0.00000000000E+00 0. -1.
         25    2    1    2    0    0 -0.35080722679E+02 -0.38548552020E+02  0.35528671883E+03  0.38025376001E+03  0.12509045312E+03 0.  0.
          5    1    3    3  502    0 -0.60529298351E+02  0.20569645547E+02  0.23721380047E+03  0.24571277096E+03  0.41800000000E+01 0.  1.
         -5    1    3    3    0  502  0.25448575673E+02 -0.59118197567E+02  0.11807291836E+03  0.13454098906E+03  0.41800000000E+01 0.  1.
        -11    1    1    2    0    0  0.43022712281E+02 -0.23044056378E+02  0.12829109536E+03  0.13726101943E+03  0.00000000000E+00 0.  1.
         11    1    1    2    0    0 -0.79419896021E+01  0.61592608398E+02  0.11019452283E+03  0.12648935714E+03  0.00000000000E+00 0. -1.
</event>
<event>
 7    1  0.2522928E-009  0.9214655E+02  0.7561462E-02  0.1297735E+00
         -2   -1    0    0    0  501 -0.00000000000E+00  0.00000000000E+00  0.49963616080E+02  0.49963616080E+02  0.00000000000E+00 0.  1.
          2   -1    0    0  501    0  0.00000000000E+00 -0.00000000000E+00 -0.28612529679E+03  0.28612529679E+03  0.00000000000E+00 0. -1.
         25    2    1    2    0    0 -0.40668173920E+02  0.16558042287E+02 -0.17263768633E+03  0.21766760720E+03  0.12508935746E+03 0.  0.
          5    1    3    3  502    0 -0.64839297660E+02 -0.23124120592E+02 -0.46496611575E+02  0.83176118942E+02  0.41800000000E+01 0. -1.
         -5    1    3    3    0  502  0.24171123741E+02  0.39682162879E+02 -0.12614107475E+03  0.13449148826E+03  0.41800000000E+01 0. -1.
        -11    1    1    2    0    0  0.69327650047E-01 -0.26803408576E+02  0.14054152388E+02  0.30264611627E+02  0.00000000000E+00 0.  1.
         11    1    1    2    0    0  0.40598846270E+02  0.10245366289E+02 -0.77578146771E+02  0.88156694047E+02  0.00000000000E+00 0. -1.
</event>
<event>
 7    1  0.2522928E-009  0.9774176E+02  0.7561462E-02  0.1285118E+00
         -2   -1    0    0    0  501 -0.00000000000E+00  0.00000000000E+00  0.96970882281E+02  0.96970882281E+02  0.00000000000E+00 0.  1.
          2   -1    0    0  501    0  0.00000000000E+00 -0.00000000000E+00 -0.12535423668E+03  0.12535423668E+03  0.00000000000E+00 0. -1.
         25    2    1    2    0    0  0.68580266402E+01 -0.12585193449E+02 -0.11212511487E+01  0.12591654546E+03  0.12509316366E+03 0.  0.
          5    1    3    3  502    0 -0.52953948770E+02 -0.54968157233E+01 -0.27456801843E+02  0.60047348325E+02  0.41800000000E+01 0.  1.
         -5    1    3    3    0  502  0.59811975410E+02 -0.70883777260E+01  0.26335550694E+02  0.65869197138E+02  0.41800000000E+01 0.  1.
        -11    1    1    2    0    0 -0.43461713271E+02  0.16076171131E+01  0.82200979452E+01  0.44261438787E+02  0.00000000000E+00 0.  1.
         11    1    1    2    0    0  0.36603686631E+02  0.10977576336E+02 -0.35482201199E+02  0.52147134716E+02  0.00000000000E+00 0. -1.
</event>
<event>
 7    1  0.2522928E-009  0.1293594E+03  0.7561462E-02  0.1228409E+00
          2   -1    0    0  501    0  0.00000000000E+00  0.00000000000E+00  0.10236084189E+03  0.10236084189E+03  0.00000000000E+00 0.  1.
         -2   -1    0    0    0  501 -0.00000000000E+00 -0.00000000000E+00 -0.19504911754E+03  0.19504911754E+03  0.00000000000E+00 0. -1.
         25    2    1    2    0    0 -0.83179434545E+01  0.84345174955E+02 -0.81497272911E+02  0.17167558476E+03  0.12508958465E+03 0.  0.
          5    1    3    3  502    0 -0.18922795102E+01 -0.31945266690E+02 -0.60288602030E+01  0.32831392614E+02  0.41800000000E+01 0. -1.
         -5    1    3    3    0  502 -0.64256639443E+01  0.11629044164E+03 -0.75468412708E+02  0.13884419214E+03  0.41800000000E+01 0. -1.
        -11    1    1    2    0    0  0.37592127244E+02 -0.64100571748E+02  0.21551158510E+02  0.77372500039E+02  0.00000000000E+00 0.  1.
         11    1    1    2    0    0 -0.29274183789E+02 -0.20244603207E+02 -0.32742161249E+02  0.48361874641E+02  0.00000000000E+00 0. -1.
</event>
<event>
 7    1  0.2522928E-009  0.7667094E+02  0.7561462E-02  0.1338773E+00
         -3   -1    0    0    0  501 -0.00000000000E+00  0.00000000000E+00  0.67832115558E+02  0.67832115558E+02  0.00000000000E+00 0.  1.
          3   -1    0    0  501    0  0.00000000000E+00 -0.00000000000E+00 -0.14393975355E+03  0.14393975355E+03  0.00000000000E+00 0. -1.
         25    2    1    2    0    0 -0.13401728937E+02 -0.26455575708E+02 -0.17933280800E+02  0.12979444345E+03  0.12508193781E+03 0.  0.
          5    1    3    3  502    0 -0.35696181228E+02  0.29956472486E+02  0.27156995641E+02  0.54097896542E+02  0.41800000000E+01 0. -1.
         -5    1    3    3    0  502  0.22294452292E+02 -0.56412048195E+02 -0.45090276440E+02  0.75696546909E+02  0.41800000000E+01 0. -1.
        -11    1    1    2    0    0 -0.30503880074E+01  0.28951994867E+02 -0.96354881109E+01  0.30665379582E+02  0.00000000000E+00 0.  1.
         11    1    1    2    0    0  0.16452116944E+02 -0.24964191584E+01 -0.48538869081E+02  0.51312046073E+02  0.00000000000E+00 0. -1.
</event>
<event>
 7    1  0.2522928E-009  0.2296716E+03  0.7561462E-02  0.1126871E+00
          2   -1    0    0  501    0  0.00000000000E+00  0.00000000000E+00  0.19011194149E+03  0.19011194149E+03  0.00000000000E+00 0.  1.
         -2   -1    0    0    0  501 -0.00000000000E+00 -0.00000000000E+00 -0.37219844110E+03  0.37219844110E+03  0.00000000000E+00 0. -1.
         25    2    1    2    0    0  0.19276571809E+03 -0.10696878956E+03  0.13381629099E+02  0.25382660592E+03  0.12509170181E+03 0.  0.
          5    1    3    3  502    0  0.10318417241E+03 -0.10140124517E+03 -0.38906815826E+02  0.14986793745E+03  0.41800000000E+01 0. -1.
         -5    1    3    3    0  502  0.89581545680E+02 -0.55675443929E+01  0.52288444924E+02  0.10395866847E+03  0.41800000000E+01 0. -1.
        -11    1    1    2    0    0 -0.94224833069E+02  0.77231323097E+02 -0.15671308774E+03  0.19849934082E+03  0.00000000000E+00 0. -1.
         11    1    1    2    0    0 -0.98540885021E+02  0.29737466463E+02 -0.38755040966E+02  0.10998443587E+03  0.00000000000E+00 0.  1.
</event>
<event>
 7    1  0.2522928E-009  0.2209776E+03  0.7561462E-02  0.1133156E+00
         -2   -1    0    0    0  501 -0.00000000000E+00  0.00000000000E+00  0.11627765215E+03  0.11627765215E+03  0.00000000000E+00 0. -1.
          2   -1    0    0  501    0  0.00000000000E+00 -0.00000000000E+00 -0.10748118748E+04  0.10748118748E+04  0.00000000000E+00 0.  1.
         25    2    1    2    0    0  0.19155023842E+03  0.81820158519E+02 -0.93146054756E+03  0.96262662514E+03  0.12508091619E+03 0.  0.
          5    1    3    3  502    0  0.18899784706E+01 -0.51899788136E+01  0.10851436235E+01  0.70112648922E+01  0.41800000000E+01 0. -1.
         -5    1    3    3    0  502  0.18966025995E+03  0.87010137332E+02 -0.93254569118E+03  0.95561536025E+03  0.41800000000E+01 0. -1.
        -11    1    1    2    0    0 -0.94771018327E+02  0.69086811624E+01 -0.19103275366E+02  0.96923737649E+02  0.00000000000E+00 0. -1.
         11    1    1    2    0    0 -0.96779220090E+02 -0.88728839681E+02 -0.79703997046E+01  0.13153916414E+03  0.00000000000E+00 0.  1.
</event>
<event>
 7    1  0.2522928E-009  0.9669024E+02  0.7561462E-02  0.1287414E+00
         -1   -1    0    0    0  501 -0.00000000000E+00  0.00000000000E+00  0.96019787812E+02  0.96019787812E+02  0.00000000000E+00 0.  1.
          1   -1    0    0  501    0  0.00000000000E+00 -0.00000000000E+00 -0.13972698527E+03  0.13972698527E+03  0.00000000000E+00 0. -1.
         25    2    1    2    0    0 -0.30553094702E+02 -0.26474506696E+02 -0.18171933002E+02  0.13271384773E+03  0.12509338564E+03 0.  0.
          5    1    3    3  502    0 -0.69607943491E+02  0.17341225536E+02 -0.17084161575E+02  0.73860171114E+02  0.41800000000E+01 0. -1.
         -5    1    3    3    0  502  0.39054848789E+02 -0.43815732233E+02 -0.10877714270E+01  0.58853676620E+02  0.41800000000E+01 0. -1.
        -11    1    1    2    0    0  0.38544868247E+02  0.34225168632E+02 -0.52673963331E+02  0.73699494225E+02  0.00000000000E+00 0. -1.
         11    1    1    2    0    0 -0.79917735450E+01 -0.77506619352E+01  0.27138698875E+02  0.29333431124E+02  0.00000000000E+00 0.  1.
</event>
<event>
 7    1  0.2522928E-009  0.9468183E+02  0.7561462E-02  0.1291894E+00
         -1   -1    0    0    0  501 -0.00000000000E+00  0.00000000000E+00  0.76761139440E+02  0.76761139440E+02  0.00000000000E+00 0.  1.
          1   -1    0    0  501    0  0.00000000000E+00 -0.00000000000E+00 -0.21118419001E+03  0.21118419001E+03  0.00000000000E+00 0. -1.
         25    2    1    2    0    0 -0.12012795680E+02 -0.63634269539E+02 -0.10172583040E+03  0.17374963039E+03  0.12508861647E+03 0.  0.
          5    1    3    3  502    0 -0.37954892775E+02 -0.61508590937E+02 -0.12106064515E+03  0.14105684261E+03  0.41800000000E+01 0.  1.
         -5    1    3    3    0  502  0.25942097095E+02 -0.21256786016E+01  0.19334814746E+02  0.32692787774E+02  0.41800000000E+01 0.  1.
        -11    1    1    2    0    0  0.64426518316E+01 -0.12607862490E+02  0.17674898517E+02  0.22646589076E+02  0.00000000000E+00 0.  1.
         11    1    1    2    0    0  0.55701438484E+01  0.76242132029E+02 -0.50372118688E+02  0.91549109990E+02  0.00000000000E+00 0. -1.
</event>
<event>
 7    1  0.2522928E-009  0.6659292E+02  0.7561462E-02  0.1372078E+00
         -2   -1    0    0    0  501 -0.00000000000E+00  0.00000000000E+00  0.86301324835E+02  0.86301324835E+02  0.00000000000E+00 0.  1.
          2   -1    0    0  501    0  0.00000000000E+00 -0.00000000000E+00 -0.19587574929E+03  0.19587574929E+03  0.00000000000E+00 0. -1.
         25    2    1    2    0    0  0.20568995512E+02 -0.44283426702E+02 -0.11681934801E+03  0.17798457461E+03  0.12509054030E+03 0.  0.
          5    1    3    3  502    0  0.52818876501E+01 -0.77768242967E+01  0.26929646222E+02  0.28828034600E+02  0.41800000000E+01 0. -1.
         -5    1    3    3    0  502  0.15287107862E+02 -0.36506602405E+02 -0.14374899423E+03  0.14915654001E+03  0.41800000000E+01 0. -1.
        -11    1    1    2    0    0  0.24855491467E+02  0.14380760659E+02  0.33231238835E+02  0.43919437243E+02  0.00000000000E+00 0.  1.
         11    1    1    2    0    0 -0.45424486979E+02  0.29902666043E+02 -0.25986315284E+02  0.60273062274E+02  0.00000000000E+00 0. -1.
</event>
<event>
 7    1  0.2522928E-009  0.1154506E+03  0.7561462E-02  0.1250797E+00
         -1   -1    0    0    0  501 -0.00000000000E+00  0.00000000000E+00  0.20262117926E+02  0.20262117926E+02  0.00000000000E+00 0.  1.
          1   -1    0    0  501    0  0.00000000000E+00 -0.00000000000E+00 -0.74330590731E+03  0.74330590731E+03  0.00000000000E+00 0. -1.
         25    2    1    2    0    0 -0.86073952292E+01 -0.43384537311E+02 -0.52840047556E+03  0.54480656414E+03  0.12510325505E+03 0.  0.
          5    1    3    3  502    0 -0.54395438809E+02  0.15229674814E+02 -0.18787431527E+03  0.19622700502E+03  0.41800000000E+01 0.  1.
         -5    1    3    3    0  502  0.45788043580E+02 -0.58614212125E+02 -0.34052616029E+03  0.34857955912E+03  0.41800000000E+01 0.  1.
        -11    1    1    2    0    0 -0.40230813701E+02  0.26106787010E+02 -0.88959827551E+02  0.10106400752E+03  0.00000000000E+00 0.  1.
         11    1    1    2    0    0  0.48838208930E+02  0.17277750301E+02 -0.10568348627E+03  0.11769745357E+03  0.00000000000E+00 0. -1.
</event>
<event>
 7    1  0.2522928E-009  0.1125738E+03  0.7561462E-02  0.1255877E+00
          2   -1    0    0  501    0  0.00000000000E+00  0.00000000000E+00  0.36642852568E+02  0.36642852568E+02  0.00000000000E+00 0. -1.
         -2   -1    0    0    0  501 -0.00000000000E+00 -0.00000000000E+00 -0.40040641353E+03  0.40040641353E+03  0.00000000000E+00 0.  1.
         25    2    1    2    0    0 -0.36064004011E+02  0.41890576262E+02 -0.24018630553E+03  0.27639196544E+03  0.12509046499E+03 0.  0.
          5    1    3    3  502    0 -0.73546796056E+02  0.45037529487E+02 -0.21287930479E+03  0.22972283535E+03  0.41800000000E+01 0. -1.
         -5    1    3    3    0  502  0.37482792046E+02 -0.31469532252E+01 -0.27307000742E+02  0.46669130093E+02  0.41800000000E+01 0. -1.
        -11    1    1    2    0    0  0.25714911169E+02  0.23451387058E+02 -0.57103823173E+02  0.66873543591E+02  0.00000000000E+00 0.  1.
         11    1    1    2    0    0  0.10349092841E+02 -0.65341963321E+02 -0.66473432254E+02  0.93783757063E+02  0.00000000000E+00 0. -1.
</event>
<event>
 7    1  0.2522928E-009  0.1091813E+03  0.7561462E-02  0.1262093E+00
          1   -1    0    0  501    0  0.00000000000E+00  0.00000000000E+00  0.12679434062E+03  0.12679434062E+03  0.00000000000E+00 0. -1.
         -1   -1    0    0    0  501 -0.00000000000E+00 -0.00000000000E+00 -0.11014486909E+03  0.11014486909E+03  0.00000000000E+00 0.  1.
         25    2    1    2    0    0 -0.36743633665E+02 -0.21680336093E+02 -0.14742107435E+02  0.13298812900E+03  0.12509348958E+03 0.  0.
          5    1    3    3  502    0 -0.27076395348E+02  0.45688441797E+02 -0.32657984133E+02  0.62486648386E+02  0.41800000000E+01 0. -1.
         -5    1    3    3    0  502 -0.96672383174E+01 -0.67368777890E+02  0.17915876698E+02  0.70501480615E+02  0.41800000000E+01 0. -1.
        -11    1    1    2    0    0  0.10689563195E+02 -0.33885481250E+02  0.22197629205E+02  0.41895433441E+02  0.00000000000E+00 0.  1.
         11    1    1    2    0    0  0.26054070471E+02  0.55565817343E+02  0.91939497558E+01  0.62055647263E+02  0.00000000000E+00 0. -1.
</event>
<event>
 7    1  0.2522928E-009  0.1085561E+03  0.7561462E-02  0.1263267E+00
         -2   -1    0    0    0  501 -0.00000000000E+00  0.00000000000E+00  0.46965323379E+02  0.46965323379E+02  0.00000000000E+00 0.  1.
          2   -1    0    0  501    0  0.00000000000E+00 -0.00000000000E+00 -0.32651518321E+03  0.32651518321E+03  0.00000000000E+00 0. -1.
         25    2    1    2    0    0  0.19771999151E+02  0.58447751259E+02 -0.17041121150E+03  0.22021492693E+03  0.12509021329E+03 0.  0.
          5    1    3    3  502    0 -0.52435072187E+02  0.29951877402E+02 -0.60425276960E+02  0.85529166083E+02  0.41800000000E+01 0. -1.
         -5    1    3    3    0  502  0.72207071338E+02  0.28495873857E+02 -0.10998593454E+03  0.13468576084E+03  0.41800000000E+01 0. -1.
        -11    1    1    2    0    0 -0.19228371951E+02  0.11302341825E+01  0.87656857393E+01  0.21162347783E+02  0.00000000000E+00 0.  1.
         11    1    1    2    0    0 -0.54362719947E+00 -0.59577985441E+02 -0.11790433408E+03  0.13210323188E+03  0.00000000000E+00 0. -1.
</event>
<event>
 7    1  0.2522928E-009  0.1403146E+03  0.7561462E-02  0.1212906E+00
          1   -1    0    0  501    0  0.00000000000E+00  0.00000000000E+00  0.20585496294E+04  0.20585496294E+04  0.00000000000E+00 0. -1.
         -1   -1    0    0    0  501 -0.00000000000E+00 -0.00000000000E+00 -0.10531053652E+02  0.10531053652E+02  0.00000000000E+00 0.  1.
         25    2    1    2    0    0  0.49456910057E+02 -0.76532788790E+02  0.14131791373E+04  0.14216278222E+04  0.12508851760E+03 0.  0.
          5    1    3    3  502    0  0.44798632561E+02 -0.11077443847E+03  0.11346197475E+04  0.11409019842E+04  0.41800000000E+01 0.  1.
         -5    1    3    3    0  502  0.46582774957E+01  0.34241649684E+02  0.27855938974E+03  0.28072583802E+03  0.41800000000E+01 0.  1.
        -11    1    1    2    0    0 -0.43430597060E+02 -0.57005322882E+01  0.18461127284E+03  0.18973675155E+03  0.00000000000E+00 0. -1.
         11    1    1    2    0    0 -0.60263129961E+01  0.82233321078E+02  0.45022816561E+03  0.45771610923E+03  0.00000000000E+00 0.  1.
</event>
<event>
 7    1  0.2522928E-009  0.2613224E+03  0.7561462E-02  0.1106351E+00
          1   -1    0    0  501    0  0.00000000000E+00  0.00000000000E+00  0.23550836747E+03  0.23550836747E+03  0.00000000000E+00 0. -1.
         -1   -1    0    0    0  501 -0.00000000000E+00 -0.00000000000E+00 -0.36840328482E+03  0.36840328482E+03  0.00000000000E+00 0.  1.
         25    2    1    2    0    0 -0.24796550371E+03 -0.44238732460E+01 -0.18606944623E+03  0.33433333804E+03  0.12510188017E+03 0.  0.
          5    1    3    3  502    0 -0.32117184433E+02 -0.26796044057E+02  0.84512689945E+01  0.42877008532E+02  0.41800000000E+01 0. -1.
         -5    1    3    3    0  502 -0.21584831928E+03  0.22372170811E+02 -0.19452071522E+03  0.29145632951E+03  0.41800000000E+01 0. -1.
        -11    1    1    2    0    0  0.25162281159E+03  0.15301824651E+02  0.46620427447E+02  0.25636234007E+03  0.00000000000E+00 0.  1.
         11    1    1    2    0    0 -0.36573078800E+01 -0.10877951405E+02  0.65541014295E+01  0.13215974169E+02  0.00000000000E+00 0. -1.
</event>
<event>
 7    1  0.2522928E-009  0.8160197E+02  0.7561462E-02  0.1324566E+00
          1   -1    0    0  501    0  0.00000000000E+00  0.00000000000E+00  0.44365907067E+02  0.44365907067E+02  0.00000000000E+00 0. -1.
         -1   -1    0    0    0  501 -0.00000000000E+00 -0.00000000000E+00 -0.30768929542E+03  0.30768929542E+03  0.00000000000E+00 0.  1.
         25    2    1    2    0    0  0.92724138010E+01  0.14603493891E+02 -0.20889165207E+03  0.24409624876E+03  0.12509203278E+03 0.  0.
          5    1    3    3  502    0 -0.42694089173E+02 -0.26988483178E+02 -0.47474006378E+02  0.69443625742E+02  0.41800000000E+01 0.  1.
         -5    1    3    3    0  502  0.51966502974E+02  0.41591977069E+02 -0.16141764569E+03  0.17465262302E+03  0.41800000000E+01 0.  1.
        -11    1    1    2    0    0  0.16067928838E+02  0.95156074500E+00  0.21243007374E+02  0.26652376391E+02  0.00000000000E+00 0. -1.
         11    1    1    2    0    0 -0.25340342639E+02 -0.15555054636E+02 -0.75674743661E+02  0.81306577335E+02  0.00000000000E+00 0.  1.
</event>
<event>
 7    1  0.2522928E-009  0.1184805E+03  0.7561462E-02  0.1245625E+00
          1   -1    0    0  501    0  0.00000000000E+00  0.00000000000E+00  0.55877127611E+03  0.55877127611E+03  0.00000000000E+00 0. -1.
         -1   -1    0    0    0  501 -0.00000000000E+00 -0.00000000000E+00 -0.30039478264E+02  0.30039478264E+02  0.00000000000E+00 0.  1.
         25    2    1    2    0    0 -0.39711144421E+02 -0.14334014848E+02  0.40749688671E+03  0.42835023378E+03  0.12509105135E+03 0.  0.
          5    1    3    3  502    0 -0.84986987618E+02 -0.35574002640E+01  0.25386629241E+03  0.26777044270E+03  0.41800000000E+01 0.  1.
         -5    1    3    3    0  502  0.45275843197E+02 -0.10776614584E+02  0.15363059430E+03  0.16057979108E+03  0.41800000000E+01 0.  1.
        -11    1    1    2    0    0  0.42298919615E+02 -0.35467082850E+02  0.61257485404E+02  0.82459639124E+02  0.00000000000E+00 0.  1.
         11    1    1    2    0    0 -0.25877751939E+01  0.49801097698E+02  0.59977425734E+02  0.78000881470E+02  0.00000000000E+00 0. -1.
</event>
<event>
 7    1  0.2522928E-009  0.1010485E+03  0.7561462E-02  0.1278106E+00
          1   -1    0    0  501    0  0.00000000000E+00  0.00000000000E+00  0.45972890353E+03  0.45972890353E+03  0.00000000000E+00 0. -1.
         -1   -1    0    0    0  501 -0.00000000000E+00 -0.00000000000E+00 -0.27685115968E+02  0.27685115968E+02  0.00000000000E+00 0.  1.
         25    2    1    2    0    0  0.28354962171E+02 -0.33856947050E+01  0.27280197009E+03  0.30146953036E+03  0.12508995180E+03 0.  0.
          5    1    3    3  502    0 -0.12018582002E+02  0.54534534560E+02  0.97495980603E+02  0.11243398244E+03  0.41800000000E+01 0. -1.
         -5    1    3    3    0  502  0.40373544173E+02 -0.57920229265E+02  0.17530598949E+03  0.18903554792E+03  0.41800000000E+01 0. -1.
        -11    1    1    2    0    0 -0.51810957668E+02  0.32813217494E+01  0.15315042930E+03  0.16171022356E+03  0.00000000000E+00 0. -1.
         11    1    1    2    0    0  0.23455995498E+02  0.10437295559E+00  0.60913881666E+01  0.24234265582E+02  0.00000000000E+00 0.  1.
</event>
<event>
 7    1  0.2522928E-009  0.1820246E+03  0.7561462E-02  0.1165858E+00
          2   -1    0    0  501    0  0.00000000000E+00  0.00000000000E+00  0.27465732848E+04  0.27465732848E+04  0.00000000000E+00 0. -1.
         -2   -1    0    0    0  501 -0.00000000000E+00 -0.00000000000E+00 -0.19963629003E+02  0.19963629003E+02  0.00000000000E+00 0.  1.
         25    2    1    2    0    0 -0.15781535405E+03 -0.19287486510E+02  0.21690378554E+04  0.21784518669E+04  0.12509846205E+03 0.  0.
          5    1    3    3  502    0  0.60205606421E+01 -0.10848112673E+02  0.72513925131E+03  0.72525742663E+03  0.41800000000E+01 0.  1.
         -5    1    3    3    0  502 -0.16383591469E+03 -0.84393738371E+01  0.14438986041E+04  0.14531944403E+04  0.41800000000E+01 0.  1.
        -11    1    1    2    0    0 -0.13672165750E+02  0.57424118828E+01  0.38869002277E+02  0.41601715692E+02  0.00000000000E+00 0. -1.
         11    1    1    2    0    0  0.17148751980E+03  0.13545074627E+02  0.51870279813E+03  0.54648333120E+03  0.00000000000E+00 0.  1.
</event>
<event>
 7    1  0.2533265E-009  0.1222988E+03  0.7561462E-02  0.1239352E+00
         -1   -1    0    0    0  501 -0.00000000000E+00  0.00000000000E+00  0.89936020126E+02  0.89936020126E+02  0.00000000000E+00 0.  1.
          1   -1    0    0  501    0  0.00000000000E+00 -0.00000000000E+00 -0.26763934366E+03  0.26763934366E+03  0.00000000000E+00 0. -1.
         25    2    1    2    0    0 -0.58870383452E+02  0.69914516087E+02 -0.23565243235E+02  0.15670578798E+03  0.12509045404E+03 0.  0.
          5    1    3    3  502    0  0.33686111556E+02  0.46379838900E+02  0.28023197161E+01  0.57542757702E+02  0.41800000000E+01 0. -1.
         -5    1    3    3    0  502 -0.92556495008E+02  0.23534677188E+02 -0.26367562952E+02  0.99163030281E+02  0.41800000000E+01 0. -1.
        -11    1    1    2    0    0  0.38290979409E+02 -0.49020020800E+02 -0.15937038013E+03  0.17107916181E+03  0.00000000000E+00 0. -1.
         11    1    1    2    0    0  0.20579404042E+02 -0.20894495287E+02  0.52322998348E+01  0.29790413988E+02  0.00000000000E+00 0.  1.
</event>
<event>
 7    1  0.2522928E-009  0.9448188E+02  0.7561462E-02  0.1292347E+00
         -2   -1    0    0    0  501 -0.00000000000E+00  0.00000000000E+00  0.20722397105E+02  0.20722397105E+02  0.00000000000E+00 0.  1.
          2   -1    0    0  501    0  0.00000000000E+00 -0.00000000000E+00 -0.60834008558E+03  0.60834008558E+03  0.00000000000E+00 0. -1.
         25    2    1    2    0    0  0.12520232704E+02 -0.23382835561E+02 -0.37048870405E+03  0.39193420440E+03  0.12508807906E+03 0.  0.
          5    1    3    3  502    0 -0.26250283903E+02 -0.51642883505E+02 -0.30591348070E+03  0.31137853956E+03  0.41800000000E+01 0.  1.
         -5    1    3    3    0  502  0.38770516607E+02  0.28260047944E+02 -0.64575223351E+02  0.80555664845E+02  0.41800000000E+01 0.  1.
        -11    1    1    2    0    0  0.13980185361E+02  0.45878934119E+02 -0.63285039296E+02  0.79406034893E+02  0.00000000000E+00 0. -1.
         11    1    1    2    0    0 -0.26500418065E+02 -0.22496098558E+02 -0.15384394512E+03  0.15772224339E+03  0.00000000000E+00 0.  1.
</event>
<event>
 7    1  0.2522928E-009  0.1188628E+03  0.7561462E-02  0.1244985E+00
          1   -1    0    0  501    0  0.00000000000E+00  0.00000000000E+00  0.13100199016E+03  0.13100199016E+03  0.00000000000E+00 0. -1.
         -1   -1    0    0    0  501 -0.00000000000E+00 -0.00000000000E+00 -0.12239810272E+03  0.12239810272E+03  0.00000000000E+00 0.  1.
         25    2    1    2    0    0 -0.82458651605E+01 -0.52882604852E+02  0.41346283084E+02  0.14220166337E+03  0.12508890339E+03 0.  0.
          5    1    3    3  502    0 -0.23321214703E+02 -0.90349126088E+02  0.39914359147E+02  0.10157495807E+03  0.41800000000E+01 0.  1.
         -5    1    3    3    0  502  0.15075349542E+02  0.37466521237E+02  0.14319239378E+01  0.40626705300E+02  0.41800000000E+01 0.  1.
        -11    1    1    2    0    0 -0.19710604127E+02 -0.18515866438E+02 -0.19610680759E+02  0.33405449029E+02  0.00000000000E+00 0.  1.
         11    1    1    2    0    0  0.27956469287E+02  0.71398471290E+02 -0.13131714885E+02  0.77792980489E+02  0.00000000000E+00 0. -1.
</event>
<event>
 7    1  0.2522928E-009  0.1186912E+03  0.7561462E-02  0.1245272E+00
         -1   -1    0    0    0  501 -0.00000000000E+00  0.00000000000E+00  0.47885880259E+03  0.47885880259E+03  0.00000000000E+00 0.  1.
          1   -1    0    0  501    0  0.00000000000E+00 -0.00000000000E+00 -0.34537909257E+02  0.34537909257E+02  0.00000000000E+00 0. -1.
         25    2    1    2    0    0  0.48244570776E+02  0.39767982451E+02  0.30322622734E+03  0.33391935340E+03  0.12508780351E+03 0.  0.
          5    1    3    3  502    0  0.35226001359E+02  0.81702217919E+02  0.14981318649E+03  0.17429167172E+03  0.41800000000E+01 0. -1.
         -5    1    3    3    0  502  0.13018569416E+02 -0.41934235468E+02  0.15341304085E+03  0.15962768168E+03  0.41800000000E+01 0. -1.
        -11    1    1    2    0    0 -0.66238625508E+02 -0.50463897656E+02  0.13323618766E+03  0.15711792444E+03  0.00000000000E+00 0.  1.
         11    1    1    2    0    0  0.17994054733E+02  0.10695915205E+02  0.78584783273E+01  0.22359434014E+02  0.00000000000E+00 0. -1.
</event>
<event>
 7    1  0.2522928E-009  0.1133175E+03  0.7561462E-02  0.1254547E+00
         -2   -1    0    0    0  501 -0.00000000000E+00  0.00000000000E+00  0.26934684408E+02  0.26934684408E+02  0.00000000000E+00 0.  1.
          2   -1    0    0  501    0  0.00000000000E+00 -0.00000000000E+00 -0.59035098676E+03  0.59035098676E+03  0.00000000000E+00 0. -1.
         25    2    1    2    0    0 -0.50933977878E+02 -0.25382123621E+02 -0.38622131591E+03  0.40994108356E+03  0.12508503039E+03 0.  0.
          5    1    3    3  502    0 -0.10359753840E+02 -0.64601907302E+02 -0.11060076636E+03  0.12857189757E+03  0.41800000000E+01 0.  1.
         -5    1    3    3    0  502 -0.40574224039E+02  0.39219783681E+02 -0.27562054955E+03  0.28136918599E+03  0.41800000000E+01 0.  1.
        -11    1    1    2    0    0 -0.23332178967E+02 -0.56391348859E+01 -0.22187756803E+02  0.32687718941E+02  0.00000000000E+00 0.  1.
         11    1    1    2    0    0  0.74266156845E+02  0.31021258507E+02 -0.15500722964E+03  0.17465686867E+03  0.00000000000E+00 0. -1.
</event>
<event>
 7    1  0.2522928E-009  0.1514752E+03  0.7561462E-02  0.1198672E+00
          2   -1    0    0  501    0  0.00000000000E+00  0.00000000000E+00  0.24205350785E+03  0.24205350785E+03  0.00000000000E+00 0. -1.
         -2   -1    0    0    0  501 -0.00000000000E+00 -0.00000000000E+00 -0.12431038701E+03  0.12431038701E+03  0.00000000000E+00 0.  1.
         25    2    1    2    0    0 -0.10943661426E+03  0.43767713819E+02  0.13205020575E+03  0.21674193173E+03  0.12509125796E+03 0.  0.
          5    1    3    3  502    0  0.20611297622E+02  0.25009238506E+02  0.56089161574E+02  0.64913435022E+02  0.41800000000E+01 0. -1.
         -5    1    3    3    0  502 -0.13004791188E+03  0.18758475313E+02  0.75961044178E+02  0.15182849671E+03  0.41800000000E+01 0. -1.
        -11    1    1    2    0    0  0.80289972658E+02  0.66629008044E+01  0.18650899276E+02  0.82696614201E+02  0.00000000000E+00 0. -1.
         11    1    1    2    0    0  0.29146641602E+02 -0.50430614624E+02 -0.32957984183E+02  0.66925348930E+02  0.00000000000E+00 0.  1.
</event>
<event>
 7    1  0.2522928E-009  0.9624718E+02  0.7561462E-02  0.1288392E+00
          1   -1    0    0  501    0  0.00000000000E+00  0.00000000000E+00  0.23834119342E+03  0.23834119342E+03  0.00000000000E+00 0. -1.
         -1   -1    0    0    0  501 -0.00000000000E+00 -0.00000000000E+00 -0.59545446301E+02  0.59545446301E+02  0.00000000000E+00 0.  1.
         25    2    1    2    0    0 -0.27548223292E+02  0.16219645130E+02  0.50363603040E+02  0.13858950289E+03  0.12509426967E+03 0.  0.
          5    1    3    3  502    0  0.16783799593E+02 -0.42687588238E+02 -0.49537540229E+01  0.46324272227E+02  0.41800000000E+01 0. -1.
         -5    1    3    3    0  502 -0.44332022886E+02  0.58907233369E+02  0.55317357062E+02  0.92265230660E+02  0.41800000000E+01 0. -1.
        -11    1    1    2    0    0  0.75906739606E+00 -0.38035974117E+02  0.15295934173E+02  0.41003379282E+02  0.00000000000E+00 0.  1.
         11    1    1    2    0    0  0.26789155896E+02  0.21816328987E+02  0.11313620991E+03  0.11829375756E+03  0.00000000000E+00 0. -1.
</event>
<event>
 7    1  0.2522928E-009  0.1365936E+03  0.7561462E-02  0.1217987E+00
          2   -1    0    0  501    0  0.00000000000E+00  0.00000000000E+00  0.10917076061E+03  0.10917076061E+03  0.00000000000E+00 0. -1.
         -2   -1    0    0    0  501 -0.00000000000E+00 -0.00000000000E+00 -0.17338229948E+03  0.17338229948E+03  0.00000000000E+00 0.  1.
         25    2    1    2    0    0 -0.84153746195E+02  0.14344778372E+02 -0.40372623990E+02  0.15673411831E+03  0.12509200378E+03 0.  0.
          5    1    3    3  502    0  0.12615473880E+00  0.56723526489E+02 -0.11918801105E+02  0.58112860815E+02  0.41800000000E+01 0. -1.
         -5    1    3    3    0  502 -0.84279900934E+02 -0.42378748117E+02 -0.28453822885E+02  0.98621257496E+02  0.41800000000E+01 0. -1.
        -11    1    1    2    0    0 -0.14928193832E+02 -0.17180134636E+02  0.34231569466E+01  0.23015777212E+02  0.00000000000E+00 0.  1.
         11    1    1    2    0    0  0.99081940027E+02  0.28353562646E+01 -0.27262071833E+02  0.10280316457E+03  0.00000000000E+00 0. -1.
</event>
<event>
 7    1  0.2522928E-009  0.9444351E+02  0.7561462E-02  0.1292434E+00
          2   -1    0    0  501    0  0.00000000000E+00  0.00000000000E+00  0.96942129733E+02  0.96942129733E+02  0.00000000000E+00 0. -1.
         -2   -1    0    0    0  501 -0.00000000000E+00 -0.00000000000E+00 -0.19049355939E+03  0.19049355939E+03  0.00000000000E+00 0.  1.
         25    2    1    2    0    0  0.64790772730E+02 -0.65626100743E+01 -0.10449979520E+03  0.17552803277E+03  0.12509584730E+03 0.  0.
          5    1    3    3  502    0  0.66493633613E+01  0.34396779830E+02 -0.97801347657E+02  0.10397080600E+03  0.41800000000E+01 0.  1.
         -5    1    3    3    0  502  0.58141409368E+02 -0.40959389904E+02 -0.66984475392E+01  0.71557226778E+02  0.41800000000E+01 0.  1.
        -11    1    1    2    0    0 -0.10085971332E+02  0.23105174046E+02 -0.31768569567E+02  0.40556354591E+02  0.00000000000E+00 0.  1.
         11    1    1    2    0    0 -0.54704801398E+02 -0.16542563972E+02  0.42716935102E+02  0.71351301763E+02  0.00000000000E+00 0. -1.
</event>
<event>
 7    1  0.2522928E-009  0.9219118E+02  0.7561462E-02  0.1297631E+00
          1   -1    0    0  501    0  0.00000000000E+00  0.00000000000E+00  0.75326009525E+02  0.75326009525E+02  0.00000000000E+00 0. -1.
         -1   -1    0    0    0  501 -0.00000000000E+00 -0.00000000000E+00 -0.19056155169E+03  0.19056155169E+03  0.00000000000E+00 0.  1.
         25    2    1    2    0    0 -0.27974377437E+02 -0.41108127948E+02 -0.72758374289E+02  0.15301576193E+03  0.12509036092E+03 0.  0.
          5    1    3    3  502    0  0.22893942092E+02  0.18684714072E+02  0.16476451997E+02  0.34091010470E+02  0.41800000000E+01 0. -1.
         -5    1    3    3    0  502 -0.50868319529E+02 -0.59792842020E+02 -0.89234826286E+02  0.11892475146E+03  0.41800000000E+01 0. -1.
        -11    1    1    2    0    0  0.25438773364E+02 -0.80632965566E+01 -0.55809826541E+02  0.61861819244E+02  0.00000000000E+00 0.  1.
         11    1    1    2    0    0  0.25356040726E+01  0.49171424504E+02  0.13332658668E+02  0.51009980033E+02  0.00000000000E+00 0. -1.
</event>
<event>
 7    1  0.2522928E-009  0.1894921E+03  0.7561462E-02  0.1158920E+00
          2   -1    0    0  501    0  0.00000000000E+00  0.00000000000E+00  0.27242749590E+03  0.27242749590E+03  0.00000000000E+00 0. -1.
         -2   -1    0    0    0  501 -0.00000000000E+00 -0.00000000000E+00 -0.16057689708E+03  0.16057689708E+03  0.00000000000E+00 0.  1.
         25    2    1    2    0    0 -0.89493953597E+02 -0.15277198429E+03  0.82552004313E+02  0.23197070722E+03  0.12508848339E+03 0.  0.
          5    1    3    3  502    0 -0.54482699308E+02 -0.13673921591E+03  0.11058792049E+03  0.18415520153E+03  0.41800000000E+01 0.  1.
         -5    1    3    3    0  502 -0.35011254289E+02 -0.16032768378E+02 -0.28035916173E+02  0.47815505690E+02  0.41800000000E+01 0.  1.
        -11    1    1    2    0    0  0.82259173958E+02  0.64769220939E+02  0.40019428196E+02  0.11208558478E+03  0.00000000000E+00 0.  1.
         11    1    1    2    0    0  0.72347796392E+01  0.88002763349E+02 -0.10720833691E+02  0.88948100983E+02  0.00000000000E+00 0. -1.
</event>
<event>
 6    1  0.2522928E-009  0.1118954E+03  0.7561462E-02  0.1257100E+00
          1   -1    0    0  501    0  0.00000000000E+00  0.00000000000E+00  0.14297897329E+03  0.14297897329E+03  0.00000000000E+00 0. -1.
         -1   -1    0    0    0  501 -0.00000000000E+00 -0.00000000000E+00 -0.10239035965E+03  0.10239035965E+03  0.00000000000E+00 0.  1.
          5    1    1    2  502    0 -0.23601245713E+02  0.38108316135E+02  0.14320865121E+02  0.47242164807E+02  0.41800000000E+01 0.  1.
         -5    1    1    2    0  502  0.84103141917E+01 -0.90672475342E+02  0.20829212312E+02  0.93507003240E+02  0.41800000000E+01 0.  1.
        -11    1    1    2    0    0  0.42088786799E+02  0.39460629071E+02 -0.24146429687E+02  0.62543243340E+02  0.00000000000E+00 0.  1.
         11    1    1    2    0    0 -0.26897855278E+02  0.13103530136E+02  0.29584965890E+02  0.42076921552E+02  0.00000000000E+00 0. -1.
</event>
<event>
 7    1  0.2522928E-009  0.1179360E+03  0.7561462E-02  0.1246541E+00
         -2   -1    0    0    0  501 -0.00000000000E+00  0.00000000000E+00  0.22850531602E+03  0.22850531602E+03  0.00000000000E+00 0.  1.
          2   -1    0    0  501    0  0.00000000000E+00 -0.00000000000E+00 -0.10725713846E+03  0.10725713846E+03  0.00000000000E+00 0. -1.
         25    2    1    2    0    0 -0.83881350761E+02  0.32335922327E+02  0.15355255835E+03  0.21750320349E+03  0.12509021733E+03 0.  0.
          5    1    3    3  502    0 -0.36337084200E+02 -0.43143679675E+02  0.27159897936E+02  0.62744667024E+02  0.41800000000E+01 0. -1.
         -5    1    3    3    0  502 -0.47544266561E+02  0.75479602003E+02  0.12639266042E+03  0.15475853646E+03  0.41800000000E+01 0. -1.
        -11    1    1    2    0    0  0.95542696045E+01 -0.52248550490E+01  0.20448812872E+02  0.23167587829E+02  0.00000000000E+00 0.  1.
         11    1    1    2    0    0  0.74327081157E+02 -0.27111067278E+02 -0.52753193664E+02  0.95091663167E+02  0.00000000000E+00 0. -1.
</event>
<event>
 7    1  0.2522928E-009  0.1457836E+03  0.7561462E-02  0.1205752E+00
          4   -1    0    0  501    0  0.00000000000E+00  0.00000000000E+00  0.67193657361E+03  0.67193657361E+03  0.00000000000E+00 0. -1.
         -4   -1    0    0    0  501 -0.00000000000E+00 -0.00000000000E+00 -0.46995165450E+02  0.46995165450E+02  0.00000000000E+00 0.  1.
         25    2    1    2    0    0  0.17233199582E+01  0.13265605903E+03  0.24046838369E+03  0.30178313769E+03  0.12508964308E+03 0.  0.
          5    1    3    3  502    0 -0.27240972604E+02  0.62443529286E+01 -0.31886183726E+00  0.28260159320E+02  0.41800000000E+01 0. -1.
         -5    1    3    3    0  502  0.28964292562E+02  0.12641170611E+03  0.24078724553E+03  0.27352297837E+03  0.41800000000E+01 0. -1.
        -11    1    1    2    0    0  0.67765360484E+01 -0.48794140976E+02  0.27292001583E+03  0.27733035296E+03  0.00000000000E+00 0. -1.
         11    1    1    2    0    0 -0.84998560067E+01 -0.83861918059E+02  0.11155300864E+03  0.13981824841E+03  0.00000000000E+00 0.  1.
</event>
<event>
 7    1  0.2522928E-009  0.9762253E+02  0.7561462E-02  0.1285376E+00
         -2   -1    0    0    0  501 -0.00000000000E+00  0.00000000000E+00  0.37119967557E+02  0.37119967557E+02  0.00000000000E+00 0.  1.
          2   -1    0    0  501    0  0.00000000000E+00 -0.00000000000E+00 -0.36441998687E+03  0.36441998687E+03  0.00000000000E+00 0. -1.
         25    2    1    2    0    0  0.29638057771E+02 -0.22769482492E+02 -0.15125904843E+03  0.19981024969E+03  0.12509185565E+03 0.  0.
          5    1    3    3  502    0  0.33295855030E+02  0.34956626651E+02 -0.12881207791E+03  0.13762486521E+03  0.41800000000E+01 0.  1.
         -5    1    3    3    0  502 -0.36577972584E+01 -0.57726109143E+02 -0.22446970520E+02  0.62185384482E+02  0.41800000000E+01 0.  1.
        -11    1    1    2    0    0 -0.40678244616E+02 -0.19498236002E+02 -0.45493838119E+02  0.64067074999E+02  0.00000000000E+00 0.  1.
         11    1    1    2    0    0  0.11040186844E+02  0.42267718494E+02 -0.13054713276E+03  0.13766262973E+03  0.00000000000E+00 0. -1.
</event>
<event>
 7    1  0.2522928E-009  0.2790737E+03  0.7561462E-02  0.1096196E+00
         -1   -1    0    0    0  501 -0.00000000000E+00  0.00000000000E+00  0.15400753148E+03  0.15400753148E+03  0.00000000000E+00 0.  1.
          1   -1    0    0  501    0  0.00000000000E+00 -0.00000000000E+00 -0.51613969840E+03  0.51613969840E+03  0.00000000000E+00 0. -1.
         25    2    1    2    0    0  0.24489589171E+03  0.79739822128E+02 -0.14366373975E+03  0.32034337749E+03  0.12509265515E+03 0.  0.
          5    1    3    3  502    0  0.68418397581E+02 -0.33677064432E+02 -0.42616354846E+02  0.87457692039E+02  0.41800000000E+01 0.  1.
         -5    1    3    3    0  502  0.17647749413E+03  0.11341688656E+03 -0.10104738490E+03  0.23288568545E+03  0.41800000000E+01 0.  1.
        -11    1    1    2    0    0 -0.94010350190E+02 -0.76220664194E+02 -0.80793447839E+02  0.14551672346E+03  0.00000000000E+00 0. -1.
         11    1    1    2    0    0 -0.15088554152E+03 -0.35191579338E+01 -0.13767497933E+03  0.20428712893E+03  0.00000000000E+00 0.  1.
</event>
<event>
 7    1  0.2522928E-009  0.1209290E+03  0.7561462E-02  0.1241572E+00
         -1   -1    0    0    0  501 -0.00000000000E+00  0.00000000000E+00  0.32325444105E+02  0.32325444105E+02  0.00000000000E+00 0.  1.
          1   -1    0    0  501    0  0.00000000000E+00 -0.00000000000E+00 -0.57998420258E+03  0.57998420258E+03  0.00000000000E+00 0. -1.
         25    2    1    2    0    0  0.15190840663E+02  0.72480326719E+02 -0.39251914212E+03  0.41857283090E+03  0.12509108058E+03 0.  0.
          5    1    3    3  502    0  0.68940328601E+02  0.35038768707E+02 -0.17512178535E+03  0.19148262669E+03  0.41800000000E+01 0.  1.
         -5    1    3    3    0  502 -0.53749487939E+02  0.37441558012E+02 -0.21739735677E+03  0.22709020421E+03  0.41800000000E+01 0.  1.
        -11    1    1    2    0    0 -0.40697294659E+02 -0.36485354474E+02 -0.32936108233E+02  0.63814090209E+02  0.00000000000E+00 0.  1.
         11    1    1    2    0    0  0.25506453997E+02 -0.35994972245E+02 -0.12220350812E+03  0.12992272557E+03  0.00000000000E+00 0. -1.
</event>
<event>
 7    1  0.2522928E-009  0.1083346E+03  0.7561462E-02  0.1263685E+00
          2   -1    0    0  501    0  0.00000000000E+00  0.00000000000E+00  0.22072325908E+03  0.22072325908E+03  0.00000000000E+00 0. -1.
         -2   -1    0    0    0  501 -0.00000000000E+00 -0.00000000000E+00 -0.66878691357E+02  0.66878691357E+02  0.00000000000E+00 0.  1.
         25    2    1    2    0    0 -0.86305260903E+01 -0.34584102786E+02  0.13440604045E+03  0.18703331163E+03  0.12508369120E+03 0.  0.
          5    1    3    3  502    0 -0.57116181590E+02  0.10765793616E+02  0.89413848353E+02  0.10672614108E+03  0.41800000000E+01 0.  1.
         -5    1    3    3    0  502  0.48485655500E+02 -0.45349896401E+02  0.44992192098E+02  0.80307170556E+02  0.41800000000E+01 0.  1.
        -11    1    1    2    0    0 -0.23765419748E+02 -0.18207028558E+02 -0.10562377042E+02  0.31746730123E+02  0.00000000000E+00 0.  1.
         11    1    1    2    0    0  0.32395945838E+02  0.52791131344E+02  0.30000904318E+02  0.68821908686E+02  0.00000000000E+00 0. -1.
</event>
<event>
 7    1  0.2522928E-009  0.1787666E+03  0.7561462E-02  0.1169002E+00
          1   -1    0    0  501    0  0.00000000000E+00  0.00000000000E+00  0.51367336002E+03  0.51367336002E+03  0.00000000000E+00 0. -1.
         -1   -1    0    0    0  501 -0.00000000000E+00 -0.00000000000E+00 -0.14220447414E+03  0.14220447414E+03  0.00000000000E+00 0.  1.
         25    2    1    2    0    0 -0.50917728251E+02 -0.16300682393E+03 -0.26476872881E+02  0.21333905727E+03  0.12509471957E+03 0.  0.
          5    1    3    3  502    0 -0.69098868573E+02 -0.13652490447E+03  0.22399577346E+02  0.15470267174E+03  0.41800000000E+01 0.  1.
         -5    1    3    3    0  502  0.18181140321E+02 -0.26481919462E+02 -0.48876450228E+02  0.58636385535E+02  0.41800000000E+01 0.  1.
        -11    1    1    2    0    0  0.29842344120E+02  0.61026166660E+02  0.26552233814E+03  0.27407457118E+03  0.00000000000E+00 0. -1.
         11    1    1    2    0    0  0.21075384132E+02  0.10198065727E+03  0.13242342063E+03  0.16846420570E+03  0.00000000000E+00 0.  1.
</event>
<event>
 7    1  0.2522928E-009  0.1253541E+03  0.7561462E-02  0.1234517E+00
          3   -1    0    0  501    0  0.00000000000E+00  0.00000000000E+00  0.61160354285E+03  0.61160354285E+03  0.00000000000E+00 0. -1.
         -3   -1    0    0    0  501 -0.00000000000E+00 -0.00000000000E+00 -0.28252952658E+02  0.28252952658E+02  0.00000000000E+00 0.  1.
         25    2    1    2    0    0 -0.59517265157E+02 -0.44729531254E+02  0.27920950205E+03  0.31487971949E+03  0.12509298900E+03 0.  0.
          5    1    3    3  502    0 -0.65246760788E+02  0.27620036326E+02  0.16333278855E+03  0.17808727752E+03  0.41800000000E+01 0. -1.
         -5    1    3    3    0  502  0.57294956310E+01 -0.72349567580E+02  0.11587671350E+03  0.13679244197E+03  0.41800000000E+01 0. -1.
        -11    1    1    2    0    0  0.19957170507E+01 -0.20196543066E+02  0.11652455536E+03  0.11827871846E+03  0.00000000000E+00 0. -1.
         11    1    1    2    0    0  0.57521548107E+02  0.64926074320E+02  0.18761653279E+03  0.20669805756E+03  0.00000000000E+00 0.  1.
</event>
<event>
 7    1  0.2522928E-009  0.2800381E+03  0.7561462E-02  0.1095668E+00
          2   -1    0    0  501    0  0.00000000000E+00  0.00000000000E+00  0.17283266198E+04  0.17283266198E+04  0.00000000000E+00 0. -1.
         -2   -1    0    0    0  501 -0.00000000000E+00 -0.00000000000E+00 -0.50319137746E+02  0.50319137746E+02  0.00000000000E+00 0.  1.
         25    2    1    2    0    0 -0.26307723401E+03 -0.27504926855E+01  0.62608449555E+03  0.69054071850E+03  0.12508993597E+03 0.  0.
          5    1    3    3  502    0 -0.27190982955E+03 -0.17512662911E+02  0.57123188791E+03  0.63290203897E+03  0.41800000000E+01 0.  1.
         -5    1    3    3    0  502  0.88325955362E+01  0.14762170225E+02  0.54852607640E+02  0.57638679535E+02  0.41800000000E+01 0.  1.
        -11    1    1    2    0    0  0.99349852579E+02  0.30236668104E+02  0.28271445206E+03  0.30118451273E+03  0.00000000000E+00 0.  1.
         11    1    1    2    0    0  0.16372738143E+03 -0.27486175419E+02  0.76920853448E+03  0.78692052634E+03  0.00000000000E+00 0. -1.
</event>
<event>
 7    1  0.2522928E-009  0.1186143E+03  0.7561462E-02  0.1245401E+00
         -1   -1    0    0    0  501 -0.00000000000E+00  0.00000000000E+00  0.44504951633E+02  0.44504951633E+02  0.00000000000E+00 0.  1.
          1   -1    0    0  501    0  0.00000000000E+00 -0.00000000000E+00 -0.51217153760E+03  0.51217153760E+03  0.00000000000E+00 0. -1.
         25    2    1    2    0    0  0.96967952308E+02  0.61976549998E+01 -0.18187408326E+03  0.24117904586E+03  0.12509178748E+03 0.  0.
          5    1    3    3  502    0  0.88186303728E+02  0.18168502085E+02 -0.40243908518E+02  0.98711515063E+02  0.41800000000E+01 0. -1.
         -5    1    3    3    0  502  0.87816485800E+01 -0.11970847085E+02 -0.14163017475E+03  0.14246753079E+03  0.41800000000E+01 0. -1.
        -11    1    1    2    0    0 -0.29271979176E+02 -0.44969015221E+02 -0.14381785571E+03  0.15350125966E+03  0.00000000000E+00 0. -1.
         11    1    1    2    0    0 -0.67695973132E+02  0.38771360221E+02 -0.14197464699E+03  0.16199618372E+03  0.00000000000E+00 0.  1.
</event>
<event>
 7    1  0.2522928E-009  0.1102478E+03  0.7561462E-02  0.1260112E+00
          2   -1    0    0  501    0  0.00000000000E+00  0.00000000000E+00  0.81514566484E+03  0.81514566484E+03  0.00000000000E+00 0.  1.
         -2   -1    0    0    0  501 -0.00000000000E+00 -0.00000000000E+00 -0.16558859163E+02  0.16558859163E+02  0.00000000000E+00 0. -1.
         25    2    1    2    0    0 -0.15945725217E+02  0.21007559847E+02  0.34071167318E+03  0.36390559208E+03  0.12508897627E+03 0.  0.
          5    1    3    3  502    0 -0.69168365422E+02  0.22443458444E+02  0.22424601409E+03  0.23577896182E+03  0.41800000000E+01 0. -1.
         -5    1    3    3    0  502  0.53222640205E+02 -0.14358985969E+01  0.11646565910E+03  0.12812663027E+03  0.41800000000E+01 0. -1.
        -11    1    1    2    0    0  0.38403676310E+02 -0.46479729854E+02  0.33163140029E+03  0.33706763906E+03  0.00000000000E+00 0. -1.
         11    1    1    2    0    0 -0.22457951093E+02  0.25472170008E+02  0.12624373221E+03  0.13073129286E+03  0.00000000000E+00 0.  1.
</event>
<event>
 7    1  0.2522928E-009  0.1282103E+03  0.7561462E-02  0.1230136E+00
         -1   -1    0    0    0  501 -0.00000000000E+00  0.00000000000E+00  0.98672640413E+03  0.98672640413E+03  0.00000000000E+00 0.  1.
          1   -1    0    0  501    0  0.00000000000E+00 -0.00000000000E+00 -0.28209031286E+02  0.28209031286E+02  0.00000000000E+00 0. -1.
         25    2    1    2    0    0 -0.97572282138E+02  0.80374466326E+02  0.49507678329E+03  0.52605190782E+03  0.12509669575E+03 0.  0.
          5    1    3    3  502    0 -0.24255649266E+02  0.16699418707E+02  0.10070524566E+02  0.31402149154E+02  0.41800000000E+01 0.  1.
         -5    1    3    3    0  502 -0.73316632871E+02  0.63675047620E+02  0.48500625872E+03  0.49464975866E+03  0.41800000000E+01 0.  1.
        -11    1    1    2    0    0  0.92442069257E+02 -0.64297900044E+02  0.45724589737E+03  0.47090717427E+03  0.00000000000E+00 0.  1.
         11    1    1    2    0    0  0.51302128802E+01 -0.16076566282E+02  0.61946921843E+01  0.17976353326E+02  0.00000000000E+00 0. -1.
</event>
<event>
 7    1  0.2522928E-009  0.2206490E+03  0.7561462E-02  0.1133400E+00
          2   -1    0    0  501    0  0.00000000000E+00  0.00000000000E+00  0.87191892398E+03  0.87191892398E+03  0.00000000000E+00 0. -1.
         -2   -1    0    0    0  501 -0.00000000000E+00 -0.00000000000E+00 -0.86030015893E+02  0.86030015893E+02  0.00000000000E+00 0.  1.
         25    2    1    2    0    0  0.12032015345E+03 -0.16788046433E+03  0.65182248558E+03  0.69512302249E+03  0.12515060550E+03 0.  0.
          5    1    3    3  502    0  0.58173345837E+02 -0.26661488243E+02  0.35316806616E+03  0.35894307136E+03  0.41800000000E+01 0. -1.
         -5    1    3    3    0  502  0.62146807613E+02 -0.14121897608E+03  0.29865441942E+03  0.33617995113E+03  0.41800000000E+01 0. -1.
        -11    1    1    2    0    0 -0.24822221039E+02  0.10637769530E+03  0.43606059641E+02  0.11761736756E+03  0.00000000000E+00 0.  1.
         11    1    1    2    0    0 -0.95497932410E+02  0.61502769026E+02  0.90460362869E+02  0.14520854983E+03  0.00000000000E+00 0. -1.
</event>
<event>
 7    1  0.2522928E-009  0.1261027E+03  0.7561462E-02  0.1233356E+00
         -2   -1    0    0    0  501 -0.00000000000E+00  0.00000000000E+00  0.29631440775E+02  0.29631440775E+02  0.00000000000E+00 0.  1.
          2   -1    0    0  501    0  0.00000000000E+00 -0.00000000000E+00 -0.11082727177E+04  0.11082727177E+04  0.00000000000E+00 0. -1.
         25    2    1    2    0    0 -0.44564176431E+02  0.97289257408E+02 -0.87340283756E+03  0.88878034513E+03  0.12508724877E+03 0.  0.
          5    1    3    3  502    0 -0.43578164764E+02  0.99042474816E+02 -0.37412627896E+03  0.38948223742E+03  0.41800000000E+01 0.  1.
         -5    1    3    3    0  502 -0.98601166707E+00 -0.17532174081E+01 -0.49927655860E+03  0.49929810771E+03  0.41800000000E+01 0.  1.
        -11    1    1    2    0    0  0.71948289492E+02 -0.65212422488E+02 -0.16089139272E+03  0.18792353939E+03  0.00000000000E+00 0. -1.
         11    1    1    2    0    0 -0.27384113062E+02 -0.32076834921E+02 -0.44347046692E+02  0.61200273995E+02  0.00000000000E+00 0.  1.
</event>
<event>
 7    1  0.2522928E-009  0.1634273E+03  0.7561462E-02  0.1184881E+00
         -1   -1    0    0    0  501 -0.00000000000E+00  0.00000000000E+00  0.12779427856E+02  0.12779427856E+02  0.00000000000E+00 0.  1.
          1   -1    0    0  501    0  0.00000000000E+00 -0.00000000000E+00 -0.36699216719E+04  0.36699216719E+04  0.00000000000E+00 0. -1.
         25    2    1    2    0    0 -0.18022751873E+02 -0.15107317531E+03 -0.28356318887E+04  0.28424642410E+04  0.12508728525E+03 0.  0.
          5    1    3    3  502    0 -0.26150834586E+01 -0.12108754833E+02 -0.23794552201E+02  0.27149838297E+02  0.41800000000E+01 0. -1.
         -5    1    3    3    0  502 -0.15407668414E+02 -0.13896442048E+03 -0.28118373365E+04  0.28153144027E+04  0.41800000000E+01 0. -1.
        -11    1    1    2    0    0  0.29412855452E+02  0.81435825816E+01 -0.97487414557E+02  0.10215297353E+03  0.00000000000E+00 0.  1.
         11    1    1    2    0    0 -0.11390103579E+02  0.14292959273E+03 -0.72402294073E+03  0.73808388523E+03  0.00000000000E+00 0. -1.
</event>
<event>
 7    1  0.2522928E-009  0.6007724E+02  0.7561462E-02  0.1397508E+00
         -1   -1    0    0    0  501 -0.00000000000E+00  0.00000000000E+00  0.25433785989E+02  0.25433785989E+02  0.00000000000E+00 0.  1.
          1   -1    0    0  501    0  0.00000000000E+00 -0.00000000000E+00 -0.53055552813E+03  0.53055552813E+03  0.00000000000E+00 0. -1.
         25    2    1    2    0    0  0.25986830030E+02  0.11271436303E+01 -0.36175833403E+03  0.38365767589E+03  0.12509010450E+03 0.  0.
          5    1    3    3  502    0  0.19342483556E+02  0.21049162455E+02 -0.36108022082E+03  0.36223417450E+03  0.41800000000E+01 0.  1.
         -5    1    3    3    0  502  0.66443464742E+01 -0.19922018825E+02 -0.67811320560E+00  0.21423501386E+02  0.41800000000E+01 0.  1.
        -11    1    1    2    0    0  0.15594855641E+02  0.18225152989E+02 -0.24138396610E+01  0.24107723780E+02  0.00000000000E+00 0.  1.
         11    1    1    2    0    0 -0.41581685671E+02 -0.19352296619E+02 -0.14094956845E+03  0.14822391445E+03  0.00000000000E+00 0. -1.
</event>
<event>
 7    1  0.2522928E-009  0.1115447E+03  0.7561462E-02  0.1257736E+00
         -2   -1    0    0    0  501 -0.00000000000E+00  0.00000000000E+00  0.15791879779E+02  0.15791879779E+02  0.00000000000E+00 0.  1.
          2   -1    0    0  501    0  0.00000000000E+00 -0.00000000000E+00 -0.94783558557E+03  0.94783558557E+03  0.00000000000E+00 0. -1.
         25    2    1    2    0    0 -0.23846386808E+02  0.50781751352E+02 -0.48070565007E+03  0.49987031307E+03  0.12507986025E+03 0.  0.
          5    1    3    3  502    0  0.16831042401E+02  0.71921456783E+02 -0.40150089682E+03  0.40826023867E+03  0.41800000000E+01 0. -1.
         -5    1    3    3    0  502 -0.40677429209E+02 -0.21139705431E+02 -0.79204753254E+02  0.91610074396E+02  0.41800000000E+01 0. -1.
        -11    1    1    2    0    0 -0.87249940634E+01 -0.66386488934E+02 -0.34544822706E+03  0.35187749148E+03  0.00000000000E+00 0. -1.
         11    1    1    2    0    0  0.32571380871E+02  0.15604737582E+02 -0.10588982866E+03  0.11187966080E+03  0.00000000000E+00 0.  1.
</event>
<event>
 7    1  0.2522928E-009  0.8475358E+02  0.7561462E-02  0.1316078E+00
          1   -1    0    0  501    0  0.00000000000E+00  0.00000000000E+00  0.47871176939E+03  0.47871176939E+03  0.00000000000E+00 0. -1.
         -1   -1    0    0    0  501 -0.00000000000E+00 -0.00000000000E+00 -0.45996668834E+02  0.45996668834E+02  0.00000000000E+00 0.  1.
         25    2    1    2    0    0  0.40596506324E+02  0.62352026064E+02  0.35394364007E+03  0.38270026459E+03  0.12509013028E+03 0.  0.
          5    1    3    3  502    0  0.29973214288E+01  0.50547706426E+02  0.35935943215E+02  0.62232780553E+02  0.41800000000E+01 0. -1.
         -5    1    3    3    0  502  0.37599184895E+02  0.11804319638E+02  0.31800769685E+03  0.32046748403E+03  0.41800000000E+01 0. -1.
        -11    1    1    2    0    0  0.19274747594E+01 -0.16194584021E+02  0.77539679842E+02  0.79236239566E+02  0.00000000000E+00 0. -1.
         11    1    1    2    0    0 -0.42523981084E+02 -0.46157442043E+02  0.12317806461E+01  0.62771934068E+02  0.00000000000E+00 0.  1.
</event>
<event>
 7    1  0.2522928E-009  0.1932822E+03  0.7561462E-02  0.1155534E+00
         -1   -1    0    0    0  501 -0.00000000000E+00  0.00000000000E+00  0.73951469789E+03  0.73951469789E+03  0.00000000000E+00 0.  1.
          1   -1    0    0  501    0  0.00000000000E+00 -0.00000000000E+00 -0.63025040092E+02  0.63025040092E+02  0.00000000000E+00 0. -1.
         25    2    1    2    0    0 -0.83717309334E+02 -0.16284815916E+03  0.29224876520E+03  0.36685786653E+03  0.12508893894E+03 0.  0.
          5    1    3    3  502    0 -0.99586590246E+02 -0.15635433360E+03  0.19917482816E+03  0.27212543278E+03  0.41800000000E+01 0.  1.
         -5    1    3    3    0  502  0.15869280913E+02 -0.64938255594E+01  0.93073937043E+02  0.94732433748E+02  0.41800000000E+01 0.  1.
        -11    1    1    2    0    0  0.63454479504E+02  0.11150430359E+03  0.34464850427E+03  0.36775300431E+03  0.00000000000E+00 0.  1.
         11    1    1    2    0    0  0.20262829830E+02  0.51343855571E+02  0.39592388332E+02  0.67928867144E+02  0.00000000000E+00 0. -1.
</event>
<event>
 6    1  0.2522928E-009  0.8030754E+02  0.7561462E-02  0.1328181E+00
          1   -1    0    0  501    0  0.00000000000E+00  0.00000000000E+00  0.88850426139E+01  0.88850426139E+01  0.00000000000E+00 0. -1.
         -1   -1    0    0    0  501 -0.00000000000E+00 -0.00000000000E+00 -0.20190985043E+04  0.20190985043E+04  0.00000000000E+00 0.  1.
          5    1    1    2  502    0 -0.31145387845E+01 -0.23489973969E+02 -0.14103240713E+04  0.14105293112E+04  0.41800000000E+01 0.  1.
         -5    1    1    2    0  502 -0.15992972055E+02  0.46829289376E+02 -0.25663958262E+03  0.26140027786E+03  0.41800000000E+01 0.  1.
        -11    1    1    2    0    0  0.47779073416E+02  0.31158270640E+01 -0.11621846474E+03  0.12569518599E+03  0.00000000000E+00 0. -1.
         11    1    1    2    0    0 -0.28671562576E+02 -0.26455142471E+02 -0.22703134306E+03  0.23035877191E+03  0.00000000000E+00 0.  1.
</event>
<event>
 7    1  0.3321131E-009  0.1462594E+03  0.7561462E-02  0.1205146E+00
          1   -1    0    0  501    0  0.00000000000E+00  0.00000000000E+00  0.87620988506E+03  0.87620988506E+03  0.00000000000E+00 0. -1.
         -1   -1    0    0    0  501 -0.00000000000E+00 -0.00000000000E+00 -0.31001343653E+02  0.31001343653E+02  0.00000000000E+00 0.  1.
         25    2    1    2    0    0  0.11047578133E+03 -0.48493308730E+02  0.52668256691E+03  0.55461588769E+03  0.12509099623E+03 0.  0.
          5    1    3    3  502    0  0.74156024521E+01  0.33365725037E+02  0.19006095692E+03  0.19315512551E+03  0.41800000000E+01 0.  1.
         -5    1    3    3    0  502  0.10306017888E+03 -0.81859033767E+02  0.33662160999E+03  0.36146076218E+03  0.41800000000E+01 0.  1.
        -11    1    1    2    0    0 -0.46560816214E+02  0.64927330217E+00  0.35584219645E+02  0.58605186205E+02  0.00000000000E+00 0.  1.
         11    1    1    2    0    0 -0.63914965119E+02  0.47844035428E+02  0.28294175485E+03  0.29399015481E+03  0.00000000000E+00 0. -1.
</event>
<event>
 7    1  0.2522928E-009  0.2246914E+03  0.7561462E-02  0.1130433E+00
         -1   -1    0    0    0  501 -0.00000000000E+00  0.00000000000E+00  0.26104327004E+03  0.26104327004E+03  0.00000000000E+00 0.  1.
          1   -1    0    0  501    0  0.00000000000E+00 -0.00000000000E+00 -0.28808801098E+03  0.28808801098E+03  0.00000000000E+00 0. -1.
         25    2    1    2    0    0  0.60288869966E+02 -0.20680945991E+03 -0.14441543753E+03  0.28793965076E+03  0.12509405795E+03 0.  0.
          5    1    3    3  502    0  0.48041129633E+02 -0.17888531019E+03 -0.16726663834E+03  0.24960670071E+03  0.41800000000E+01 0. -1.
         -5    1    3    3    0  502  0.12247740333E+02 -0.27924149720E+02  0.22851200814E+02  0.38332950050E+02  0.41800000000E+01 0. -1.
        -11    1    1    2    0    0  0.11633688712E+02  0.12017225816E+03  0.60978709309E+02  0.13525944453E+03  0.00000000000E+00 0. -1.
         11    1    1    2    0    0 -0.71922558678E+02  0.86637201748E+02  0.56391987281E+02  0.12593218573E+03  0.00000000000E+00 0.  1.
</event>
<event>
 7    1  0.2522928E-009  0.1834250E+03  0.7561462E-02  0.1164529E+00
         -2   -1    0    0    0  501 -0.00000000000E+00  0.00000000000E+00  0.56015238995E+02  0.56015238995E+02  0.00000000000E+00 0.  1.
          2   -1    0    0  501    0  0.00000000000E+00 -0.00000000000E+00 -0.64549184754E+03  0.64549184754E+03  0.00000000000E+00 0. -1.
         25    2    1    2    0    0  0.59733498199E+01  0.15142609979E+03 -0.28590558506E+03  0.34692185257E+03  0.12508886287E+03 0.  0.
          5    1    3    3  502    0 -0.45913589540E+02  0.10791842014E+03 -0.12078385430E+03  0.16840622010E+03  0.41800000000E+01 0.  1.
         -5    1    3    3    0  502  0.51886939360E+02  0.43507679650E+02 -0.16512173076E+03  0.17851563246E+03  0.41800000000E+01 0.  1.
        -11    1    1    2    0    0 -0.43509674502E+02 -0.25899819668E+02 -0.10666706353E+03  0.11807520855E+03  0.00000000000E+00 0.  1.
         11    1    1    2    0    0  0.37536324682E+02 -0.12552628012E+03 -0.19690395996E+03  0.23651002541E+03  0.00000000000E+00 0. -1.
</event>
<event>
 7    1  0.2522928E-009  0.1524589E+03  0.7561462E-02  0.1197484E+00
          1   -1    0    0  501    0  0.00000000000E+00  0.00000000000E+00  0.79713522153E+03  0.79713522153E+03  0.00000000000E+00 0. -1.
         -1   -1    0    0    0  501 -0.00000000000E+00 -0.00000000000E+00 -0.31660035161E+02  0.31660035161E+02  0.00000000000E+00 0.  1.
         25    2    1    2    0    0  0.64520091738E+02 -0.96192575925E+02  0.39800448853E+03  0.43297925810E+03  0.12509041191E+03 0.  0.
          5    1    3    3  502    0  0.30026263690E+02  0.26670280761E+02  0.12976485762E+03  0.13590169631E+03  0.41800000000E+01 0. -1.
         -5    1    3    3    0  502  0.34493828048E+02 -0.12286285669E+03  0.26823963091E+03  0.29707756179E+03  0.41800000000E+01 0. -1.
        -11    1    1    2    0    0 -0.21905863637E+02  0.91385173843E+02  0.17510568090E+03  0.19872875067E+03  0.00000000000E+00 0. -1.
         11    1    1    2    0    0 -0.42614228101E+02  0.48074020819E+01  0.19236501693E+03  0.19708724792E+03  0.00000000000E+00 0.  1.
</event>
<event>
 7    1  0.2522928E-009  0.1104725E+03  0.7561462E-02  0.1259697E+00
         -1   -1    0    0    0  501 -0.00000000000E+00  0.00000000000E+00  0.43490662154E+03  0.43490662154E+03  0.00000000000E+00 0.  1.
          1   -1    0    0  501    0  0.00000000000E+00 -0.00000000000E+00 -0.30907580386E+02  0.30907580386E+02  0.00000000000E+00 0. -1.
         25    2    1    2    0    0 -0.13449086393E+02  0.31369320499E+02  0.18698144133E+03  0.22754110167E+03  0.12509189164E+03 0.  0.
          5    1    3    3  502    0  0.55491591025E+02  0.19912219090E+02  0.75234667837E+02  0.95674138555E+02  0.41800000000E+01 0. -1.
         -5    1    3    3    0  502 -0.68940677418E+02  0.11457101409E+02  0.11174677349E+03  0.13186696312E+03  0.41800000000E+01 0. -1.
        -11    1    1    2    0    0  0.36804681486E+02  0.15130992720E+02  0.13829801887E+03  0.14390925454E+03  0.00000000000E+00 0.  1.
         11    1    1    2    0    0 -0.23355595094E+02 -0.46500313220E+02  0.78719580958E+02  0.94363845714E+02  0.00000000000E+00 0. -1.
</event>
<event>
 7    1  0.2522928E-009  0.1677042E+03  0.7561462E-02  0.1180263E+00
          1   -1    0    0  501    0  0.00000000000E+00  0.00000000000E+00  0.76972424329E+02  0.76972424329E+02  0.00000000000E+00 0. -1.
         -1   -1    0    0    0  501 -0.00000000000E+00 -0.00000000000E+00 -0.51699619127E+03  0.51699619127E+03  0.00000000000E+00 0.  1.
         25    2    1    2    0    0 -0.12653784557E+03 -0.51547311644E+02 -0.84799273562E+02  0.20373205435E+03  0.12508749528E+03 0.  0.
          5    1    3    3  502    0 -0.12793546302E+02  0.31848647642E+02  0.71583353181E+01  0.35308998119E+02  0.41800000000E+01 0. -1.
         -5    1    3    3    0  502 -0.11374429927E+03 -0.83395959286E+02 -0.91957608881E+02  0.16842305624E+03  0.41800000000E+01 0. -1.
        -11    1    1    2    0    0  0.27277564773E+02  0.53934953198E+02 -0.10699097035E+03  0.12288251484E+03  0.00000000000E+00 0. -1.
         11    1    1    2    0    0  0.99260280795E+02 -0.23876415533E+01 -0.24823352304E+03  0.26735404641E+03  0.00000000000E+00 0.  1.
</event>
<event>
 7    1  0.2522928E-009  0.1440704E+03  0.7561462E-02  0.1207955E+00
         -1   -1    0    0    0  501 -0.00000000000E+00  0.00000000000E+00  0.28927908378E+02  0.28927908378E+02  0.00000000000E+00 0.  1.
          1   -1    0    0  501    0  0.00000000000E+00 -0.00000000000E+00 -0.73712910505E+03  0.73712910505E+03  0.00000000000E+00 0. -1.
         25    2    1    2    0    0  0.85912941334E+02  0.44976136468E+02 -0.40866011676E+03  0.43823630783E+03  0.12507631322E+03 0.  0.
          5    1    3    3  502    0  0.38244423787E+02 -0.42036756482E+02 -0.18366074059E+03  0.19229785459E+03  0.41800000000E+01 0.  1.
         -5    1    3    3    0  502  0.47668517548E+02  0.87012892950E+02 -0.22499937617E+03  0.24593845324E+03  0.41800000000E+01 0.  1.
        -11    1    1    2    0    0 -0.34225283065E+02 -0.67337925841E+02 -0.19414065796E+03  0.20831793329E+03  0.00000000000E+00 0.  1.
         11    1    1    2    0    0 -0.51687658270E+02  0.22361789373E+02 -0.10540042195E+03  0.11950277231E+03  0.00000000000E+00 0. -1.
</event>
<event>
 7    1  0.2522928E-009  0.1692673E+03  0.7561462E-02  0.1178614E+00
         -3   -1    0    0    0  501 -0.00000000000E+00  0.00000000000E+00  0.74688857427E+02  0.74688857427E+02  0.00000000000E+00 0.  1.
          3   -1    0    0  501    0  0.00000000000E+00 -0.00000000000E+00 -0.43222176598E+03  0.43222176598E+03  0.00000000000E+00 0. -1.
         25    2    1    2    0    0 -0.81947161987E+02 -0.11709926969E+03 -0.18743213934E+03  0.26684407936E+03  0.12508948602E+03 0.  0.
          5    1    3    3  502    0 -0.80796870647E+02 -0.90145054858E+01 -0.88627144000E+02  0.12033968036E+03  0.41800000000E+01 0.  1.
         -5    1    3    3    0  502 -0.11502913402E+01 -0.10808476420E+03 -0.98804995337E+02  0.14650439900E+03  0.41800000000E+01 0.  1.
        -11    1    1    2    0    0  0.73271282435E+02  0.70927095310E+02 -0.55258455848E+02  0.11598633808E+03  0.00000000000E+00 0.  1.
         11    1    1    2    0    0  0.86758795513E+01  0.46172174378E+02 -0.11484231336E+03  0.12408020596E+03  0.00000000000E+00 0. -1.
</event>
<event>
 7    1  0.2522928E-009  0.1539777E+03  0.7561462E-02  0.1195669E+00
          2   -1    0    0  501    0  0.00000000000E+00  0.00000000000E+00  0.89438721470E+03  0.89438721470E+03  0.00000000000E+00 0. -1.
         -2   -1    0    0    0  501 -0.00000000000E+00 -0.00000000000E+00 -0.38625851110E+02  0.38625851110E+02  0.00000000000E+00 0.  1.
         25    2    1    2    0    0 -0.14503596617E+03 -0.34678202095E+01  0.35672261299E+03  0.40490625246E+03  0.12510233172E+03 0.  0.
          5    1    3    3  502    0 -0.61877383424E+02  0.11909845700E+02  0.29085430148E+03  0.29763123508E+03  0.41800000000E+01 0. -1.
         -5    1    3    3    0  502 -0.83158582745E+02 -0.15377665910E+02  0.65868311512E+02  0.10727501738E+03  0.41800000000E+01 0. -1.
        -11    1    1    2    0    0  0.68817835909E+02 -0.32203022261E+02  0.33768216635E+03  0.34612450745E+03  0.00000000000E+00 0. -1.
         11    1    1    2    0    0  0.76218130261E+02  0.35670842471E+02  0.16135658424E+03  0.18198230590E+03  0.00000000000E+00 0.  1.
</event>
<event>
 7    1  0.2522928E-009  0.1147693E+03  0.7561462E-02  0.1251984E+00
         -1   -1    0    0    0  501 -0.00000000000E+00  0.00000000000E+00  0.10545740128E+02  0.10545740128E+02  0.00000000000E+00 0.  1.
          1   -1    0    0  501    0  0.00000000000E+00 -0.00000000000E+00 -0.12555637361E+04  0.12555637361E+04  0.00000000000E+00 0. -1.
         25    2    1    2    0    0 -0.34580765941E+02  0.23435042550E+02 -0.67392318045E+03  0.68670705463E+03  0.12509634340E+03 0.  0.
          5    1    3    3  502    0 -0.34397115883E+02  0.73645950581E+02 -0.40237915859E+03  0.41052813215E+03  0.41800000000E+01 0. -1.
         -5    1    3    3    0  502 -0.18365005779E+00 -0.50210908031E+02 -0.27154402186E+03  0.27617892248E+03  0.41800000000E+01 0. -1.
        -11    1    1    2    0    0  0.11550908929E+02 -0.56388906808E+02 -0.33750338618E+03  0.34237650034E+03  0.00000000000E+00 0.  1.
         11    1    1    2    0    0  0.23029857012E+02  0.32953864258E+02 -0.23359142935E+03  0.23702592126E+03  0.00000000000E+00 0. -1.
</event>
<event>
 7    1  0.2522928E-009  0.1140782E+03  0.7561462E-02  0.1253199E+00
          1   -1    0    0  501    0  0.00000000000E+00  0.00000000000E+00  0.75022451332E+02  0.75022451332E+02  0.00000000000E+00 0. -1.
         -1   -1    0    0    0  501 -0.00000000000E+00 -0.00000000000E+00 -0.19106081385E+03  0.19106081385E+03  0.00000000000E+00 0.  1.
         25    2    1    2    0    0 -0.41902956688E+02  0.16569523029E+01 -0.32984001388E+02  0.13598998762E+03  0.12508688627E+03 0.  0.
          5    1    3    3  502    0  0.34078145146E+02  0.31686755375E+02 -0.27006789675E+02  0.53964891655E+02  0.41800000000E+01 0.  1.
         -5    1    3    3    0  502 -0.75981101834E+02 -0.30029803072E+02 -0.59772117122E+01  0.82025095967E+02  0.41800000000E+01 0.  1.
        -11    1    1    2    0    0  0.57672826691E+02 -0.31617554603E+02 -0.60866075862E+02  0.89613078780E+02  0.00000000000E+00 0.  1.
         11    1    1    2    0    0 -0.15769870003E+02  0.29960602300E+02 -0.22188285267E+02  0.40480198779E+02  0.00000000000E+00 0. -1.
</event>
<event>
 7    1  0.2522928E-009  0.1159018E+03  0.7561462E-02  0.1250015E+00
          1   -1    0    0  501    0  0.00000000000E+00  0.00000000000E+00  0.36645525358E+03  0.36645525358E+03  0.00000000000E+00 0. -1.
         -1   -1    0    0    0  501 -0.00000000000E+00 -0.00000000000E+00 -0.77204105707E+02  0.77204105707E+02  0.00000000000E+00 0.  1.
         25    2    1    2    0    0 -0.98545921556E+02 -0.15432547969E+01  0.44159256238E+02  0.16526130545E+03  0.12509028290E+03 0.  0.
          5    1    3    3  502    0 -0.71719223721E+02  0.44455737104E+01 -0.35955564275E+02  0.80459214383E+02  0.41800000000E+01 0.  1.
         -5    1    3    3    0  502 -0.26826697835E+02 -0.59888285073E+01  0.80114820513E+02  0.84802091068E+02  0.41800000000E+01 0.  1.
        -11    1    1    2    0    0  0.98266345536E+01  0.35644966927E+02  0.70893309480E+02  0.79956161382E+02  0.00000000000E+00 0.  1.
         11    1    1    2    0    0  0.88719287002E+02 -0.34101712130E+02  0.17419858215E+03  0.19844189245E+03  0.00000000000E+00 0. -1.
</event>
<event>
 7    1  0.2522928E-009  0.1676694E+03  0.7561462E-02  0.1180300E+00
         -2   -1    0    0    0  501 -0.00000000000E+00  0.00000000000E+00  0.62479109348E+02  0.62479109348E+02  0.00000000000E+00 0.  1.
          2   -1    0    0  501    0  0.00000000000E+00 -0.00000000000E+00 -0.49419909998E+03  0.49419909998E+03  0.00000000000E+00 0. -1.
         25    2    1    2    0    0  0.13484212900E+03  0.35961998965E+02 -0.21058774271E+03  0.28190509073E+03  0.12509043800E+03 0.  0.
          5    1    3    3  502    0 -0.53301811075E+01  0.46303440037E+02 -0.52339608089E+02  0.70209161545E+02  0.41800000000E+01 0.  1.
         -5    1    3    3    0  502  0.14017231011E+03 -0.10341441072E+02 -0.15824813462E+03  0.21169592919E+03  0.41800000000E+01 0.  1.
        -11    1    1    2    0    0 -0.11936122546E+03 -0.47658824449E+02 -0.22066394403E+03  0.25536452746E+03  0.00000000000E+00 0. -1.
         11    1    1    2    0    0 -0.15480903545E+02  0.11696825484E+02 -0.46830388709E+00  0.19408591126E+02  0.00000000000E+00 0.  1.
</event>
<event>
 7    1  0.2522928E-009  0.1052502E+03  0.7561462E-02  0.1269627E+00
          2   -1    0    0  501    0  0.00000000000E+00  0.00000000000E+00  0.23767417586E+03  0.23767417586E+03  0.00000000000E+00 0.  1.
         -2   -1    0    0    0  501 -0.00000000000E+00 -0.00000000000E+00 -0.15002495152E+03  0.15002495152E+03  0.00000000000E+00 0. -1.
         25    2    1    2    0    0  0.19423340074E+02  0.75258443097E+01  0.20255528846E+03  0.23897796987E+03  0.12509164931E+03 0.  0.
          5    1    3    3  502    0 -0.47445754614E+02  0.20654368054E+02  0.51097513936E+02  0.72843193787E+02  0.41800000000E+01 0. -1.
         -5    1    3    3    0  502  0.66869094688E+02 -0.13128523745E+02  0.15145777453E+03  0.16613477608E+03  0.41800000000E+01 0. -1.
        -11    1    1    2    0    0  0.31476714911E+02  0.14736932437E+02 -0.24190150796E+02  0.42345296725E+02  0.00000000000E+00 0.  1.
         11    1    1    2    0    0 -0.50900054985E+02 -0.22262776746E+02 -0.90715913328E+02  0.10637586078E+03  0.00000000000E+00 0. -1.
</event>
<event>
 7    1  0.2522928E-009  0.1578785E+03  0.7561462E-02  0.1191113E+00
          1   -1    0    0  501    0  0.00000000000E+00  0.00000000000E+00  0.32310580230E+03  0.32310580230E+03  0.00000000000E+00 0. -1.
         -1   -1    0    0    0  501 -0.00000000000E+00 -0.00000000000E+00 -0.17484294242E+03  0.17484294242E+03  0.00000000000E+00 0.  1.
         25    2    1    2    0    0 -0.13715170924E+03 -0.23579204866E+02 -0.89369642753E+02  0.20736627901E+03  0.12508904978E+03 0.  0.
          5    1    3    3  502    0 -0.83514493875E+02 -0.41767862095E+02  0.88724640257E+01  0.93890457497E+02  0.41800000000E+01 0.  1.
         -5    1    3    3    0  502 -0.53637215366E+02  0.18188657228E+02 -0.98242106779E+02  0.11347582151E+03  0.41800000000E+01 0.  1.
        -11    1    1    2    0    0  0.11433864071E+03 -0.20218455455E+02  0.18491924132E+03  0.21835117703E+03  0.00000000000E+00 0. -1.
         11    1    1    2    0    0  0.22813068530E+02  0.43797660321E+02  0.52713261312E+02  0.72231288674E+02  0.00000000000E+00 0.  1.
</event>
<event>
 7    1  0.2522928E-009  0.2210912E+03  0.7561462E-02  0.1133072E+00
          1   -1    0    0  501    0  0.00000000000E+00  0.00000000000E+00  0.22970484962E+04  0.22970484962E+04  0.00000000000E+00 0. -1.
         -1   -1    0    0    0  501 -0.00000000000E+00 -0.00000000000E+00 -0.24882776890E+02  0.24882776890E+02  0.00000000000E+00 0.  1.
         25    2    1    2    0    0  0.19213890821E+03 -0.67131680140E+02  0.14921266680E+04  0.15111293721E+04  0.12508382572E+03 0.  0.
          5    1    3    3  502    0  0.15679918299E+03 -0.13932746040E+02  0.75605218717E+03  0.77227746783E+03  0.41800000000E+01 0. -1.
         -5    1    3    3    0  502  0.35339725228E+02 -0.53198934100E+02  0.73607448079E+03  0.73885190427E+03  0.41800000000E+01 0. -1.
        -11    1    1    2    0    0 -0.98717194476E+02  0.79129450303E+02  0.41952804300E+03  0.43818983701E+03  0.00000000000E+00 0.  1.
         11    1    1    2    0    0 -0.93421713737E+02 -0.11997770164E+02  0.36051100834E+03  0.37261206397E+03  0.00000000000E+00 0. -1.
</event>
<event>
 7    1  0.2522928E-009  0.1167263E+03  0.7561462E-02  0.1248597E+00
         -1   -1    0    0    0  501 -0.00000000000E+00  0.00000000000E+00  0.43199242299E+03  0.43199242299E+03  0.00000000000E+00 0.  1.
          1   -1    0    0  501    0  0.00000000000E+00 -0.00000000000E+00 -0.31789475667E+02  0.31789475667E+02  0.00000000000E+00 0. -1.
         25    2    1    2    0    0  0.27031432669E+02 -0.37895141229E+02  0.22408431099E+03  0.26083103747E+03  0.12510919869E+03 0.  0.
          5    1    3    3  502    0  0.95320050164E+01 -0.83424039603E+02  0.15187685266E+03  0.17359285779E+03  0.41800000000E+01 0. -1.
         -5    1    3    3    0  502  0.17499427653E+02  0.45528898374E+02  0.72207458332E+02  0.87238179681E+02  0.41800000000E+01 0. -1.
        -11    1    1    2    0    0 -0.59175325507E+02  0.33455669880E+02  0.11023272203E+03  0.12950773722E+03  0.00000000000E+00 0.  1.
         11    1    1    2    0    0  0.32143892837E+02  0.44394713487E+01  0.65885914313E+02  0.73443123963E+02  0.00000000000E+00 0. -1.
</event>
<event>
 7    1  0.2522928E-009  0.1210294E+03  0.7561462E-02  0.1241408E+00
          2   -1    0    0  501    0  0.00000000000E+00  0.00000000000E+00  0.64871428168E+03  0.64871428168E+03  0.00000000000E+00 0. -1.
         -2   -1    0    0    0  501 -0.00000000000E+00 -0.00000000000E+00 -0.41491401627E+02  0.41491401627E+02  0.00000000000E+00 0.  1.
         25    2    1    2    0    0 -0.88264287358E+02 -0.32299609741E+02  0.48948870033E+03  0.51388720825E+03  0.12508807232E+03 0.  0.
          5    1    3    3  502    0 -0.79034802790E+02  0.23496020246E+02  0.39623658019E+03  0.40474617096E+03  0.41800000000E+01 0. -1.
         -5    1    3    3    0  502 -0.92294845676E+01 -0.55795629987E+02  0.93252120135E+02  0.10914103729E+03  0.41800000000E+01 0. -1.
        -11    1    1    2    0    0  0.65716332342E+02  0.42270527168E+02  0.12771420351E+03  0.14972091231E+03  0.00000000000E+00 0. -1.
         11    1    1    2    0    0  0.22547955016E+02 -0.99709174273E+01 -0.99800237868E+01  0.26597562755E+02  0.00000000000E+00 0.  1.
</event>
<event>
 7    1  0.2522928E-009  0.1480694E+03  0.7561462E-02  0.1202866E+00
          1   -1    0    0  501    0  0.00000000000E+00  0.00000000000E+00  0.86601896230E+03  0.86601896230E+03  0.00000000000E+00 0. -1.
         -1   -1    0    0    0  501 -0.00000000000E+00 -0.00000000000E+00 -0.38006076458E+02  0.38006076458E+02  0.00000000000E+00 0.  1.
         25    2    1    2    0    0 -0.10203397680E+03 -0.48236168880E+02  0.66558224508E+03  0.68657512650E+03  0.12509204192E+03 0.  0.
          5    1    3    3  502    0 -0.12163575008E+03 -0.49748688923E+02  0.64316350458E+03  0.65646550082E+03  0.41800000000E+01 0. -1.
         -5    1    3    3    0  502  0.19601773285E+02  0.15125200424E+01  0.22418740502E+02  0.30109625678E+02  0.41800000000E+01 0. -1.
        -11    1    1    2    0    0  0.68843683995E+02  0.75083475050E+02  0.11306675917E+03  0.15218762460E+03  0.00000000000E+00 0. -1.
         11    1    1    2    0    0  0.33190292802E+02 -0.26847306170E+02  0.49363881599E+02  0.65262287666E+02  0.00000000000E+00 0.  1.
</event>
<event>
 7    1  0.2522928E-009  0.1698603E+03  0.7561462E-02  0.1177994E+00
         -2   -1    0    0    0  501 -0.00000000000E+00  0.00000000000E+00  0.74028605263E+02  0.74028605263E+02  0.00000000000E+00 0.  1.
          2   -1    0    0  501    0  0.00000000000E+00 -0.00000000000E+00 -0.50302061281E+03  0.50302061281E+03  0.00000000000E+00 0. -1.
         25    2    1    2    0    0  0.63044617704E+02  0.14359228122E+03 -0.18251656112E+03  0.27118674385E+03  0.12504634305E+03 0.  0.
          5    1    3    3  502    0  0.50092422792E+02  0.69001502093E+02 -0.14148992378E+02  0.86533949971E+02  0.41800000000E+01 0.  1.
         -5    1    3    3    0  502  0.12952194912E+02  0.74590779130E+02 -0.16836756874E+03  0.18465279388E+03  0.41800000000E+01 0.  1.
        -11    1    1    2    0    0 -0.84249361539E+02 -0.12202222044E+03 -0.22193012124E+03  0.26690889067E+03  0.00000000000E+00 0.  1.
         11    1    1    2    0    0  0.21204743835E+02 -0.21570060783E+02 -0.24545325184E+02  0.38953583553E+02  0.00000000000E+00 0. -1.
</event>
<event>
 7    1  0.2522928E-009  0.2032046E+03  0.7561462E-02  0.1147063E+00
         -1   -1    0    0    0  501 -0.00000000000E+00  0.00000000000E+00  0.68012982612E+03  0.68012982612E+03  0.00000000000E+00 0.  1.
          1   -1    0    0  501    0  0.00000000000E+00 -0.00000000000E+00 -0.96232112730E+02  0.96232112730E+02  0.00000000000E+00 0. -1.
         25    2    1    2    0    0  0.12093803574E+03 -0.15375732336E+03  0.48779882486E+03  0.54024292210E+03  0.12508956144E+03 0.  0.
          5    1    3    3  502    0  0.96705715605E+02 -0.11492450322E+03  0.46551180219E+03  0.48916086030E+03  0.41800000000E+01 0. -1.
         -5    1    3    3    0  502  0.24232320135E+02 -0.38832820137E+02  0.22287022663E+02  0.51082061803E+02  0.41800000000E+01 0. -1.
        -11    1    1    2    0    0 -0.11977660118E+03  0.98932538116E+02  0.46454822880E+02  0.16214848706E+03  0.00000000000E+00 0. -1.
         11    1    1    2    0    0 -0.11614345636E+01  0.54824785240E+02  0.49644065656E+02  0.73970529684E+02  0.00000000000E+00 0.  1.
</event>
<event>
 7    1  0.2522928E-009  0.1084249E+03  0.7561462E-02  0.1263515E+00
         -2   -1    0    0    0  501 -0.00000000000E+00  0.00000000000E+00  0.32337583635E+02  0.32337583635E+02  0.00000000000E+00 0.  1.
          2   -1    0    0  501    0  0.00000000000E+00 -0.00000000000E+00 -0.59158420004E+03  0.59158420004E+03  0.00000000000E+00 0. -1.
         25    2    1    2    0    0 -0.17614658140E+02 -0.66922646560E+02 -0.19225750929E+03  0.23958216946E+03  0.12509096387E+03 0.  0.
          5    1    3    3  502    0  0.34839426113E+02 -0.25880364714E+02 -0.89566772139E+01  0.44511496900E+02  0.41800000000E+01 0.  1.
         -5    1    3    3    0  502 -0.52454084252E+02 -0.41042281846E+02 -0.18330083208E+03  0.19507067256E+03  0.41800000000E+01 0.  1.
        -11    1    1    2    0    0 -0.30094368569E+02  0.44694456740E+02 -0.25456481904E+03  0.26020475126E+03  0.00000000000E+00 0. -1.
         11    1    1    2    0    0  0.47709026709E+02  0.22228189819E+02 -0.11242428807E+03  0.12413486295E+03  0.00000000000E+00 0.  1.
</event>
<event>
 7    1  0.2522928E-009  0.1062011E+03  0.7561462E-02  0.1267771E+00
         -1   -1    0    0    0  501 -0.00000000000E+00  0.00000000000E+00  0.13952860457E+03  0.13952860457E+03  0.00000000000E+00 0.  1.
          1   -1    0    0  501    0  0.00000000000E+00 -0.00000000000E+00 -0.95104057060E+02  0.95104057060E+02  0.00000000000E+00 0. -1.
         25    2    1    2    0    0 -0.17647608918E+02 -0.14966432486E+02  0.47947276128E+02  0.13595538009E+03  0.12509792918E+03 0.  0.
          5    1    3    3  502    0 -0.41356504938E+02  0.37574106921E+02 -0.66812614959E+01  0.56429475159E+02  0.41800000000E+01 0.  1.
         -5    1    3    3    0  502  0.23708896020E+02 -0.52540539407E+02  0.54628537624E+02  0.79525904928E+02  0.41800000000E+01 0.  1.
        -11    1    1    2    0    0  0.57122695056E+02  0.24927273282E+01 -0.34010413184E+01  0.57278120273E+02  0.00000000000E+00 0.  1.
         11    1    1    2    0    0 -0.39475086138E+02  0.12473705158E+02 -0.12168729966E+00  0.41399161269E+02  0.00000000000E+00 0. -1.
</event>
<event>
 7    1  0.2522928E-009  0.1057846E+03  0.7561462E-02  0.1268581E+00
          4   -1    0    0  501    0  0.00000000000E+00  0.00000000000E+00  0.29724263019E+02  0.29724263019E+02  0.00000000000E+00 0. -1.
         -4   -1    0    0    0  501 -0.00000000000E+00 -0.00000000000E+00 -0.59838689764E+03  0.59838689764E+03  0.00000000000E+00 0.  1.
         25    2    1    2    0    0 -0.74205957582E+02  0.17236243396E+02 -0.31809980254E+03  0.35019853759E+03  0.12509164292E+03 0.  0.
          5    1    3    3  502    0  0.34096670830E+01  0.21384293074E+02  0.66847957966E+00  0.22064294342E+02  0.41800000000E+01 0. -1.
         -5    1    3    3    0  502 -0.77615624665E+02 -0.41480496775E+01 -0.31876828212E+03  0.32813424325E+03  0.41800000000E+01 0. -1.
        -11    1    1    2    0    0  0.84369670169E+02  0.77275541695E+01 -0.13607359701E+03  0.16029341890E+03  0.00000000000E+00 0. -1.
         11    1    1    2    0    0 -0.10163712588E+02 -0.24963797566E+02 -0.11448923507E+03  0.11761920417E+03  0.00000000000E+00 0.  1.
</event>
<event>
 7    1  0.2522928E-009  0.1124923E+03  0.7561462E-02  0.1256023E+00
          1   -1    0    0  501    0  0.00000000000E+00  0.00000000000E+00  0.17247001848E+03  0.17247001848E+03  0.00000000000E+00 0. -1.
         -1   -1    0    0    0  501 -0.00000000000E+00 -0.00000000000E+00 -0.75904785359E+02  0.75904785359E+02  0.00000000000E+00 0.  1.
         25    2    1    2    0    0  0.17994054982E+01 -0.37892987412E+02  0.61602963307E+02  0.14450334726E+03  0.12508867225E+03 0.  0.
          5    1    3    3  502    0 -0.57747835801E+02 -0.27949007058E+01  0.44761612590E+02  0.73237274467E+02  0.41800000000E+01 0. -1.
         -5    1    3    3    0  502  0.59547241300E+02 -0.35098086706E+02  0.16841350718E+02  0.71266072789E+02  0.41800000000E+01 0. -1.
        -11    1    1    2    0    0 -0.21949350101E+02 -0.24092896459E+02  0.10262206187E+02  0.34169496711E+02  0.00000000000E+00 0.  1.
         11    1    1    2    0    0  0.20149944603E+02  0.61985883871E+02  0.24700063625E+02  0.69701959871E+02  0.00000000000E+00 0. -1.
</event>
<event>
 7    1  0.2522928E-009  0.9708521E+02  0.7561462E-02  0.1286548E+00
         -3   -1    0    0    0  501 -0.00000000000E+00  0.00000000000E+00  0.71541691452E+02  0.71541691452E+02  0.00000000000E+00 0. -1.
          3   -1    0    0  501    0  0.00000000000E+00 -0.00000000000E+00 -0.22304318664E+03  0.22304318664E+03  0.00000000000E+00 0.  1.
         25    2    1    2    0    0  0.55996762747E+02 -0.35870903012E+02 -0.73583079484E+02  0.15964282433E+03  0.12509597376E+03 0.  0.
          5    1    3    3  502    0  0.16701102729E+02  0.34353044683E+02 -0.68945190457E+02  0.78930160259E+02  0.41800000000E+01 0. -1.
         -5    1    3    3    0  502  0.39295660018E+02 -0.70223947695E+02 -0.46378890272E+01  0.80712664067E+02  0.41800000000E+01 0. -1.
        -11    1    1    2    0    0 -0.57032131711E+02  0.21800081900E+02 -0.94912097486E+02  0.11285483537E+03  0.00000000000E+00 0.  1.
         11    1    1    2    0    0  0.10353689641E+01  0.14070821111E+02  0.16993681784E+02  0.22087218390E+02  0.00000000000E+00 0. -1.
</event>
<event>
 7    1  0.2522928E-009  0.1057221E+03  0.7561462E-02  0.1268703E+00
         -1   -1    0    0    0  501 -0.00000000000E+00  0.00000000000E+00  0.21815822685E+02  0.21815822685E+02  0.00000000000E+00 0.  1.
          1   -1    0    0  501    0  0.00000000000E+00 -0.00000000000E+00 -0.58729014692E+03  0.58729014692E+03  0.00000000000E+00 0. -1.
         25    2    1    2    0    0  0.25712015088E+02 -0.12915387112E+02 -0.29203729028E+03  0.31900002489E+03  0.12508925622E+03 0.  0.
          5    1    3    3  502    0  0.53888030867E+02  0.32594693670E+02 -0.22172319379E+03  0.23053195221E+03  0.41800000000E+01 0.  1.
         -5    1    3    3    0  502 -0.28176015779E+02 -0.45510080782E+02 -0.70314096490E+02  0.88468072677E+02  0.41800000000E+01 0.  1.
        -11    1    1    2    0    0 -0.83287531981E+00  0.49985715617E+02 -0.11283332558E+03  0.12341241756E+03  0.00000000000E+00 0.  1.
         11    1    1    2    0    0 -0.24879139768E+02 -0.37070328505E+02 -0.16060370838E+03  0.16669352716E+03  0.00000000000E+00 0. -1.
</event>
<event>
 6    1  0.2522928E-009  0.8651608E+02  0.7561462E-02  0.1311515E+00
         -2   -1    0    0    0  501 -0.00000000000E+00  0.00000000000E+00  0.10884767568E+03  0.10884767568E+03  0.00000000000E+00 0.  1.
          2   -1    0    0  501    0  0.00000000000E+00 -0.00000000000E+00 -0.13870496905E+03  0.13870496905E+03  0.00000000000E+00 0. -1.
          5    1    1    2  502    0 -0.58734805285E+01  0.34948512752E+02  0.54812759837E+02  0.65404949033E+02  0.41800000000E+01 0. -1.
         -5    1    1    2    0  502 -0.41667857057E+02 -0.37329143994E+02 -0.39642613967E+02  0.68692681890E+02  0.41800000000E+01 0. -1.
        -11    1    1    2    0    0  0.47887313306E+02 -0.24894170226E+02  0.72823747461E+01  0.54460512932E+02  0.00000000000E+00 0.  1.
         11    1    1    2    0    0 -0.34597571980E+00  0.27274801468E+02 -0.52309813985E+02  0.58994500875E+02  0.00000000000E+00 0. -1.
</event>
<event>
 7    1  0.2522928E-009  0.1056631E+03  0.7561462E-02  0.1268819E+00
         -3   -1    0    0    0  501 -0.00000000000E+00  0.00000000000E+00  0.16321705722E+03  0.16321705722E+03  0.00000000000E+00 0.  1.
          3   -1    0    0  501    0  0.00000000000E+00 -0.00000000000E+00 -0.11099743500E+03  0.11099743500E+03  0.00000000000E+00 0. -1.
         25    2    1    2    0    0 -0.26324509937E+01 -0.14750964672E+02 -0.50418731148E+02  0.13569984827E+03  0.12509148498E+03 0.  0.
          5    1    3    3  502    0  0.29426729851E+02  0.44225311295E+02 -0.42142577906E+02  0.67935851076E+02  0.41800000000E+01 0.  1.
         -5    1    3    3    0  502 -0.32059180845E+02 -0.58976275968E+02 -0.82761532416E+01  0.67763997196E+02  0.41800000000E+01 0.  1.
        -11    1    1    2    0    0  0.17470117652E+02  0.49772543342E+02  0.74126863521E+02  0.90979684419E+02  0.00000000000E+00 0.  1.
         11    1    1    2    0    0 -0.14837666658E+02 -0.35021578669E+02  0.28511489851E+02  0.47534959534E+02  0.00000000000E+00 0. -1.
</event>
<event>
 7    1  0.2522928E-009  0.2058914E+03  0.7561462E-02  0.1144862E+00
          2   -1    0    0  501    0  0.00000000000E+00  0.00000000000E+00  0.14115587970E+04  0.14115587970E+04  0.00000000000E+00 0. -1.
         -2   -1    0    0    0  501 -0.00000000000E+00 -0.00000000000E+00 -0.35029219491E+02  0.35029219491E+02  0.00000000000E+00 0.  1.
         25    2    1    2    0    0  0.18980543860E+03  0.70588862747E+01  0.68134378478E+03  0.71829864857E+03  0.12509061950E+03 0.  0.
          5    1    3    3  502    0  0.11452379583E+03  0.25013014877E+02  0.57421205319E+03  0.58607022203E+03  0.41800000000E+01 0. -1.
         -5    1    3    3    0  502  0.75281642770E+02 -0.17954128602E+02  0.10713173159E+03  0.13222842654E+03  0.41800000000E+01 0. -1.
        -11    1    1    2    0    0 -0.15573740434E+03  0.38177784704E+02  0.52317864490E+03  0.54719975954E+03  0.00000000000E+00 0. -1.
         11    1    1    2    0    0 -0.34068034266E+02 -0.45236670979E+02  0.17200714780E+03  0.18108960835E+03  0.00000000000E+00 0.  1.
</event>
<event>
 7    1  0.2522928E-009  0.9012491E+02  0.7561462E-02  0.1302550E+00
         -2   -1    0    0    0  501 -0.00000000000E+00  0.00000000000E+00  0.18814414716E+02  0.18814414716E+02  0.00000000000E+00 0.  1.
          2   -1    0    0  501    0  0.00000000000E+00 -0.00000000000E+00 -0.70276519177E+03  0.70276519177E+03  0.00000000000E+00 0. -1.
         25    2    1    2    0    0 -0.92872313108E+01 -0.29714726398E+02 -0.44085693984E+03  0.45931653545E+03  0.12509045009E+03 0.  0.
          5    1    3    3  502    0  0.17878817087E+02 -0.57353253847E+02 -0.10372819712E+03  0.11994189887E+03  0.41800000000E+01 0. -1.
         -5    1    3    3    0  502 -0.27166048398E+02  0.27638527449E+02 -0.33712874272E+03  0.33937463658E+03  0.41800000000E+01 0. -1.
        -11    1    1    2    0    0  0.10240395352E+02 -0.24642075251E+02 -0.22003861559E+02  0.34587100098E+02  0.00000000000E+00 0. -1.
         11    1    1    2    0    0 -0.95316404149E+00  0.54356801649E+02 -0.22108997566E+03  0.22767597094E+03  0.00000000000E+00 0.  1.
</event>
<event>
 7    1  0.2522928E-009  0.9520961E+02  0.7561462E-02  0.1290705E+00
         -1   -1    0    0    0  501 -0.00000000000E+00  0.00000000000E+00  0.51846453395E+02  0.51846453395E+02  0.00000000000E+00 0.  1.
          1   -1    0    0  501    0  0.00000000000E+00 -0.00000000000E+00 -0.31939746427E+03  0.31939746427E+03  0.00000000000E+00 0. -1.
         25    2    1    2    0    0 -0.16914368331E+02  0.48731499820E+01 -0.46463281712E+02  0.13459730766E+03  0.12509098783E+03 0.  0.
          5    1    3    3  502    0  0.24130487036E+02 -0.42035392764E+02  0.10821635064E+02  0.49838086189E+02  0.41800000000E+01 0.  1.
         -5    1    3    3    0  502 -0.41044855368E+02  0.46908542746E+02 -0.57284916776E+02  0.84759221473E+02  0.41800000000E+01 0.  1.
        -11    1    1    2    0    0  0.27865528805E+02  0.31064122824E+02 -0.15609373034E+03  0.16157574098E+03  0.00000000000E+00 0. -1.
         11    1    1    2    0    0 -0.10951160474E+02 -0.35937272806E+02 -0.64993998824E+02  0.75070869021E+02  0.00000000000E+00 0.  1.
</event>
<event>
 7    1  0.2522928E-009  0.8516028E+02  0.7561462E-02  0.1315014E+00
         -3   -1    0    0    0  501 -0.00000000000E+00  0.00000000000E+00  0.11840786385E+03  0.11840786385E+03  0.00000000000E+00 0.  1.
          3   -1    0    0  501    0  0.00000000000E+00 -0.00000000000E+00 -0.10389276619E+03  0.10389276619E+03  0.00000000000E+00 0. -1.
         25    2    1    2    0    0 -0.22961935794E+02  0.13750358112E+02  0.93754549244E+01  0.12828388266E+03  0.12511008173E+03 0.  0.
          5    1    3    3  502    0 -0.41443545503E+02 -0.20526221832E+02  0.52458874705E+02  0.70059254790E+02  0.41800000000E+01 0.  1.
         -5    1    3    3    0  502  0.18481609709E+02  0.34276579944E+02 -0.43083419780E+02  0.58224627865E+02  0.41800000000E+01 0.  1.
        -11    1    1    2    0    0 -0.25860010482E+02  0.13112268921E+02  0.21322201764E+02  0.35990387973E+02  0.00000000000E+00 0.  1.
         11    1    1    2    0    0  0.48821946276E+02 -0.26862627034E+02 -0.16182559030E+02  0.58026359407E+02  0.00000000000E+00 0. -1.
</event>
<event>
 7    1  0.2522928E-009  0.1619385E+03  0.7561462E-02  0.1186525E+00
         -1   -1    0    0    0  501 -0.00000000000E+00  0.00000000000E+00  0.14034397658E+03  0.14034397658E+03  0.00000000000E+00 0.  1.
          1   -1    0    0  501    0  0.00000000000E+00 -0.00000000000E+00 -0.20520615070E+03  0.20520615070E+03  0.00000000000E+00 0. -1.
         25    2    1    2    0    0  0.84174350589E+02 -0.94782043806E+02 -0.87654061419E+01  0.17830769874E+03  0.12509135047E+03 0.  0.
          5    1    3    3  502    0 -0.14344634864E+02 -0.69441904862E+02 -0.24810762208E+02  0.75239570850E+02  0.41800000000E+01 0. -1.
         -5    1    3    3    0  502  0.98518985453E+02 -0.25340138943E+02  0.16045356066E+02  0.10306812789E+03  0.41800000000E+01 0. -1.
        -11    1    1    2    0    0  0.31788240075E+01  0.54926662172E+02 -0.44037541208E+02  0.70472322050E+02  0.00000000000E+00 0. -1.
         11    1    1    2    0    0 -0.87353174597E+02  0.39855381634E+02 -0.12059226770E+02  0.96770106477E+02  0.00000000000E+00 0.  1.
</event>
<event>
 7    1  0.2522928E-009  0.7919359E+02  0.7561462E-02  0.1331356E+00
          1   -1    0    0  501    0  0.00000000000E+00  0.00000000000E+00  0.93033338141E+03  0.93033338141E+03  0.00000000000E+00 0. -1.
         -1   -1    0    0    0  501 -0.00000000000E+00 -0.00000000000E+00 -0.17312191222E+02  0.17312191222E+02  0.00000000000E+00 0.  1.
         25    2    1    2    0    0 -0.81603181628E+01  0.72744193933E+00  0.75795731598E+03  0.76825427298E+03  0.12509282609E+03 0.  0.
          5    1    3    3  502    0 -0.15416814491E+02 -0.31334655908E+02  0.70437745791E+03  0.70525499958E+03  0.41800000000E+01 0.  1.
         -5    1    3    3    0  502  0.72564963278E+01  0.32062097847E+02  0.53579858071E+02  0.62999273395E+02  0.41800000000E+01 0.  1.
        -11    1    1    2    0    0 -0.40099924233E+02  0.83801016335E+01  0.75219823284E+02  0.85651922580E+02  0.00000000000E+00 0.  1.
         11    1    1    2    0    0  0.48260242395E+02 -0.91075435728E+01  0.79844050925E+02  0.93739377074E+02  0.00000000000E+00 0. -1.
</event>
<event>
 7    1  0.2522928E-009  0.2950504E+03  0.7561462E-02  0.1087741E+00
         -4   -1    0    0    0  501 -0.00000000000E+00  0.00000000000E+00  0.36276057837E+03  0.36276057837E+03  0.00000000000E+00 0.  1.
          4   -1    0    0  501    0  0.00000000000E+00 -0.00000000000E+00 -0.33447021939E+03  0.33447021939E+03  0.00000000000E+00 0. -1.
         25    2    1    2    0    0  0.29096720065E+03 -0.40431780801E+02  0.16684039068E+03  0.36024906018E+03  0.12508808356E+03 0.  0.
          5    1    3    3  502    0  0.13826740879E+03 -0.38601634167E+01  0.10740282599E+02  0.13880058813E+03  0.41800000000E+01 0.  1.
         -5    1    3    3    0  502  0.15269979187E+03 -0.36571617384E+02  0.15610010808E+03  0.22144847206E+03  0.41800000000E+01 0.  1.
        -11    1    1    2    0    0 -0.12291093623E+03  0.57525804747E+01 -0.11723107527E+02  0.12360267666E+03  0.00000000000E+00 0.  1.
         11    1    1    2    0    0 -0.16805626442E+03  0.34679200326E+02 -0.12682692417E+03  0.21337906092E+03  0.00000000000E+00 0. -1.
</event>
<event>
 7    1  0.2522928E-009  0.1320365E+03  0.7561462E-02  0.1224465E+00
          4   -1    0    0  501    0  0.00000000000E+00  0.00000000000E+00  0.17779874578E+03  0.17779874578E+03  0.00000000000E+00 0. -1.
         -4   -1    0    0    0  501 -0.00000000000E+00 -0.00000000000E+00 -0.11443589065E+03  0.11443589065E+03  0.00000000000E+00 0.  1.
         25    2    1    2    0    0 -0.43855097245E+02  0.79056518325E+02  0.15505459814E+02  0.15511808932E+03  0.12509196499E+03 0.  0.
          5    1    3    3  502    0 -0.85241200887E+02  0.56552969826E+02 -0.72456800193E+01  0.10263660655E+03  0.41800000000E+01 0.  1.
         -5    1    3    3    0  502  0.41386103643E+02  0.22503548500E+02  0.22751139833E+02  0.52481482768E+02  0.41800000000E+01 0.  1.
        -11    1    1    2    0    0  0.52144287655E+02 -0.21754477686E+02  0.54913791175E+02  0.78789647135E+02  0.00000000000E+00 0. -1.
         11    1    1    2    0    0 -0.82891904108E+01 -0.57302040639E+02 -0.70563958534E+01  0.58326899982E+02  0.00000000000E+00 0.  1.
</event>
<event>
 7    1  0.2522928E-009  0.1124682E+03  0.7561462E-02  0.1256066E+00
         -2   -1    0    0    0  501 -0.00000000000E+00  0.00000000000E+00  0.15045855126E+02  0.15045855126E+02  0.00000000000E+00 0.  1.
          2   -1    0    0  501    0  0.00000000000E+00 -0.00000000000E+00 -0.11134163310E+04  0.11134163310E+04  0.00000000000E+00 0. -1.
         25    2    1    2    0    0  0.29314366064E+02  0.63916060803E+02 -0.56337676538E+03  0.58135911973E+03  0.12506179047E+03 0.  0.
          5    1    3    3  502    0  0.58355618956E+02  0.59998185280E+02 -0.53067077731E+03  0.53724678388E+03  0.41800000000E+01 0. -1.
         -5    1    3    3    0  502 -0.29041252893E+02  0.39178755231E+01 -0.32705988070E+02  0.44112335846E+02  0.41800000000E+01 0. -1.
        -11    1    1    2    0    0 -0.53311923278E+02 -0.12446976694E+02 -0.32439516581E+03  0.32898223659E+03  0.00000000000E+00 0. -1.
         11    1    1    2    0    0  0.23997557214E+02 -0.51469084110E+02 -0.21059854466E+03  0.21812082978E+03  0.00000000000E+00 0.  1.
</event>
<event>
 7    1  0.2522928E-009  0.1047349E+03  0.7561462E-02  0.1270643E+00
         -1   -1    0    0    0  501 -0.00000000000E+00  0.00000000000E+00  0.25945432000E+02  0.25945432000E+02  0.00000000000E+00 0.  1.
          1   -1    0    0  501    0  0.00000000000E+00 -0.00000000000E+00 -0.11227888305E+04  0.11227888305E+04  0.00000000000E+00 0. -1.
         25    2    1    2    0    0  0.50812772519E+02 -0.17538027214E+02 -0.96874832721E+03  0.97826864906E+03  0.12508680187E+03 0.  0.
          5    1    3    3  502    0 -0.27772233084E+02  0.25818212122E+02 -0.46565646720E+03  0.46721653958E+03  0.41800000000E+01 0. -1.
         -5    1    3    3    0  502  0.78585005603E+02 -0.43356239335E+02 -0.50309186001E+03  0.51105210948E+03  0.41800000000E+01 0. -1.
        -11    1    1    2    0    0  0.77738712158E+01 -0.13194124706E+02  0.93390066667E+01  0.17936974270E+02  0.00000000000E+00 0.  1.
         11    1    1    2    0    0 -0.58586643735E+02  0.30732151920E+02 -0.13743407799E+03  0.15252863921E+03  0.00000000000E+00 0. -1.
</event>
<event>
 7    1  0.2522928E-009  0.9344721E+02  0.7561462E-02  0.1294712E+00
         -2   -1    0    0    0  501 -0.00000000000E+00  0.00000000000E+00  0.27517201680E+03  0.27517201680E+03  0.00000000000E+00 0.  1.
          2   -1    0    0  501    0  0.00000000000E+00 -0.00000000000E+00 -0.61185907279E+02  0.61185907279E+02  0.00000000000E+00 0. -1.
         25    2    1    2    0    0  0.33285862359E+02  0.16016027420E+02  0.42077097576E+02  0.13704924697E+03  0.12509017623E+03 0.  0.
          5    1    3    3  502    0  0.29827266054E+02 -0.49881402633E+02 -0.74405876215E+00  0.58273889113E+02  0.41800000000E+01 0. -1.
         -5    1    3    3    0  502  0.34585963049E+01  0.65897430053E+02  0.42821156338E+02  0.78775357861E+02  0.41800000000E+01 0. -1.
        -11    1    1    2    0    0 -0.54495603669E+00 -0.27727164778E+02  0.42192586510E+01  0.28051645001E+02  0.00000000000E+00 0. -1.
         11    1    1    2    0    0 -0.32740906322E+02  0.11711137358E+02  0.16768975329E+03  0.17125703210E+03  0.00000000000E+00 0.  1.
</event>
<event>
 7    1  0.2522928E-009  0.1377147E+03  0.7561462E-02  0.1216437E+00
         -2   -1    0    0    0  501 -0.00000000000E+00  0.00000000000E+00  0.32396263849E+02  0.32396263849E+02  0.00000000000E+00 0.  1.
          2   -1    0    0  501    0  0.00000000000E+00 -0.00000000000E+00 -0.78063460605E+03  0.78063460605E+03  0.00000000000E+00 0. -1.
         25    2    1    2    0    0  0.11238514892E+03  0.25929795251E+02 -0.36740692909E+03  0.40488975145E+03  0.12508030744E+03 0.  0.
          5    1    3    3  502    0  0.68248640938E+02  0.65303787485E+02 -0.30270362350E+03  0.31712681648E+03  0.41800000000E+01 0. -1.
         -5    1    3    3    0  502  0.44136507985E+02 -0.39373992234E+02 -0.64703305589E+02  0.87762934976E+02  0.41800000000E+01 0. -1.
        -11    1    1    2    0    0 -0.65765965432E+02  0.44880169963E+01 -0.31549228026E+03  0.32230526432E+03  0.00000000000E+00 0. -1.
         11    1    1    2    0    0 -0.46619183491E+02 -0.30417812247E+02 -0.65339132854E+02  0.85835854125E+02  0.00000000000E+00 0.  1.
</event>
<event>
 7    1  0.2522928E-009  0.7621987E+02  0.7561462E-02  0.1340135E+00
          1   -1    0    0  501    0  0.00000000000E+00  0.00000000000E+00  0.12768895527E+03  0.12768895527E+03  0.00000000000E+00 0. -1.
         -1   -1    0    0    0  501 -0.00000000000E+00 -0.00000000000E+00 -0.11447010556E+03  0.11447010556E+03  0.00000000000E+00 0.  1.
         25    2    1    2    0    0 -0.23099438371E+02  0.91927652861E+01  0.52191654720E+02  0.13780317036E+03  0.12509058299E+03 0.  0.
          5    1    3    3  502    0 -0.39060346179E+02  0.12757350232E+02  0.88554741589E+02  0.97713229843E+02  0.41800000000E+01 0.  1.
         -5    1    3    3    0  502  0.15960907807E+02 -0.35645849462E+01 -0.36363086869E+02  0.40089940515E+02  0.41800000000E+01 0.  1.
        -11    1    1    2    0    0  0.46254803362E+02  0.25293014123E+02 -0.33491523503E+02  0.62457389827E+02  0.00000000000E+00 0.  1.
         11    1    1    2    0    0 -0.23155364991E+02 -0.34485779409E+02 -0.54812815036E+01  0.41898500644E+02  0.00000000000E+00 0. -1.
</event>
<event>
 7    1  0.2522928E-009  0.1068229E+03  0.7561462E-02  0.1266569E+00
         -1   -1    0    0    0  501 -0.00000000000E+00  0.00000000000E+00  0.26169538488E+02  0.26169538488E+02  0.00000000000E+00 0.  1.
          1   -1    0    0  501    0  0.00000000000E+00 -0.00000000000E+00 -0.46127836582E+03  0.46127836582E+03  0.00000000000E+00 0. -1.
         25    2    1    2    0    0 -0.11605233387E+02  0.57685109007E+01 -0.19799508274E+03  0.23456821229E+03  0.12510889765E+03 0.  0.
          5    1    3    3  502    0  0.46656076341E+01  0.64442614207E+02 -0.10219249886E+03  0.12097684756E+03  0.41800000000E+01 0. -1.
         -5    1    3    3    0  502 -0.16270841021E+02 -0.58674103307E+02 -0.95802583871E+02  0.11359136474E+03  0.41800000000E+01 0. -1.
        -11    1    1    2    0    0  0.47364451246E+02 -0.17099026395E+02 -0.13287088536E+03  0.14209306852E+03  0.00000000000E+00 0.  1.
         11    1    1    2    0    0 -0.35759217858E+02  0.11330515494E+02 -0.10424285924E+03  0.11078662350E+03  0.00000000000E+00 0. -1.
</event>
<event>
 7    1  0.2522928E-009  0.8470116E+02  0.7561462E-02  0.1316216E+00
         -2   -1    0    0    0  501 -0.00000000000E+00  0.00000000000E+00  0.37942247770E+02  0.37942247770E+02  0.00000000000E+00 0.  1.
          2   -1    0    0  501    0  0.00000000000E+00 -0.00000000000E+00 -0.41642439758E+03  0.41642439758E+03  0.00000000000E+00 0. -1.
         25    2    1    2    0    0  0.56130093688E+02  0.16575964866E+02 -0.25845385744E+03  0.29303855509E+03  0.12509135987E+03 0.  0.
          5    1    3    3  502    0  0.70201874855E+01  0.26256150376E+02 -0.23671539149E+03  0.23830719132E+03  0.41800000000E+01 0. -1.
         -5    1    3    3    0  502  0.49109906202E+02 -0.96801855107E+01 -0.21738465955E+02  0.54731363776E+02  0.41800000000E+01 0. -1.
        -11    1    1    2    0    0  0.68830079212E+01  0.18372406357E+02  0.18881857384E+01  0.19710057300E+02  0.00000000000E+00 0. -1.
         11    1    1    2    0    0 -0.63013101609E+02 -0.34948371223E+02 -0.12191647810E+03  0.14161803296E+03  0.00000000000E+00 0.  1.
</event>
<event>
 7    1  0.2522928E-009  0.1550530E+03  0.7561462E-02  0.1194398E+00
          1   -1    0    0  501    0  0.00000000000E+00  0.00000000000E+00  0.17985553707E+03  0.17985553707E+03  0.00000000000E+00 0. -1.
         -1   -1    0    0    0  501 -0.00000000000E+00 -0.00000000000E+00 -0.19685466115E+03  0.19685466115E+03  0.00000000000E+00 0.  1.
         25    2    1    2    0    0  0.51616520004E+02  0.14289240485E+03  0.10233687153E+02  0.19706538516E+03  0.12509010023E+03 0.  0.
          5    1    3    3  502    0  0.33754904956E+02  0.13306776632E+03 -0.39700529259E+02  0.14296862756E+03  0.41800000000E+01 0. -1.
         -5    1    3    3    0  502  0.17861615048E+02  0.98246385269E+01  0.49934216412E+02  0.54096757601E+02  0.41800000000E+01 0. -1.
        -11    1    1    2    0    0 -0.43301096573E+02 -0.11699348616E+03  0.18817530604E+02  0.12616085061E+03  0.00000000000E+00 0.  1.
         11    1    1    2    0    0 -0.83154234307E+01 -0.25898918688E+02 -0.46050341838E+02  0.53483962451E+02  0.00000000000E+00 0. -1.
</event>
<event>
 7    1  0.2522928E-009  0.6637969E+02  0.7561462E-02  0.1372856E+00
         -2   -1    0    0    0  501 -0.00000000000E+00  0.00000000000E+00  0.11691250710E+03  0.11691250710E+03  0.00000000000E+00 0.  1.
          2   -1    0    0  501    0  0.00000000000E+00 -0.00000000000E+00 -0.10942146121E+03  0.10942146121E+03  0.00000000000E+00 0. -1.
         25    2    1    2    0    0  0.20206053412E+02  0.12634997046E+02  0.25701125917E+02  0.12990777323E+03  0.12509018318E+03 0.  0.
          5    1    3    3  502    0 -0.12900874710E+02 -0.41312603436E+01  0.70313152445E+02  0.71728039755E+02  0.41800000000E+01 0. -1.
         -5    1    3    3    0  502  0.33106928122E+02  0.16766257390E+02 -0.44612026527E+02  0.58179733477E+02  0.41800000000E+01 0. -1.
        -11    1    1    2    0    0 -0.42415593444E+02  0.15707075316E+02  0.14786971729E+02  0.47586230310E+02  0.00000000000E+00 0.  1.
         11    1    1    2    0    0  0.22209540033E+02 -0.28342072362E+02 -0.32997051755E+02  0.48839964770E+02  0.00000000000E+00 0. -1.
</event>
<event>
 7    1  0.2522928E-009  0.1066697E+03  0.7561462E-02  0.1266864E+00
          1   -1    0    0  501    0  0.00000000000E+00  0.00000000000E+00  0.76006699747E+02  0.76006699747E+02  0.00000000000E+00 0. -1.
         -1   -1    0    0    0  501 -0.00000000000E+00 -0.00000000000E+00 -0.18576569835E+03  0.18576569835E+03  0.00000000000E+00 0.  1.
         25    2    1    2    0    0  0.15160494545E+02  0.22712175134E+02 -0.10407119307E+03  0.16499911727E+03  0.12509281345E+03 0.  0.
          5    1    3    3  502    0  0.45643180819E+02  0.62269650173E+02 -0.70866062516E+02  0.10488222206E+03  0.41800000000E+01 0.  1.
         -5    1    3    3    0  502 -0.30482686273E+02 -0.39557475039E+02 -0.33205130556E+02  0.60116895205E+02  0.41800000000E+01 0.  1.
        -11    1    1    2    0    0 -0.64355403478E+00  0.30623189122E+02  0.19203131951E+02  0.36151820846E+02  0.00000000000E+00 0. -1.
         11    1    1    2    0    0 -0.14516940511E+02 -0.53335364256E+02 -0.24890937484E+02  0.60621459987E+02  0.00000000000E+00 0.  1.
</event>
<event>
 7    1  0.2522928E-009  0.9146607E+02  0.7561462E-02  0.1299340E+00
         -2   -1    0    0    0  501 -0.00000000000E+00  0.00000000000E+00  0.57582427230E+02  0.57582427230E+02  0.00000000000E+00 0.  1.
          2   -1    0    0  501    0  0.00000000000E+00 -0.00000000000E+00 -0.27061486800E+03  0.27061486800E+03  0.00000000000E+00 0. -1.
         25    2    1    2    0    0  0.10993817091E+02 -0.19047297356E+02 -0.42183061356E+02  0.13382185179E+03  0.12508082907E+03 0.  0.
          5    1    3    3  502    0 -0.49570812295E+02  0.21276217943E+02 -0.17003241636E+02  0.56714420633E+02  0.41800000000E+01 0.  1.
         -5    1    3    3    0  502  0.60564629386E+02 -0.40323515298E+02 -0.25179819720E+02  0.77107431158E+02  0.41800000000E+01 0.  1.
        -11    1    1    2    0    0 -0.20071714736E+02  0.33398007863E+02 -0.17293179403E+03  0.17726732933E+03  0.00000000000E+00 0. -1.
         11    1    1    2    0    0  0.90778976451E+01 -0.14350710508E+02  0.20824146151E+01  0.17108114109E+02  0.00000000000E+00 0.  1.
</event>
<event>
 7    1  0.2522928E-009  0.1064295E+03  0.7561462E-02  0.1267328E+00
         -2   -1    0    0    0  501 -0.00000000000E+00  0.00000000000E+00  0.17536079728E+03  0.17536079728E+03  0.00000000000E+00 0.  1.
          2   -1    0    0  501    0  0.00000000000E+00 -0.00000000000E+00 -0.77975515521E+02  0.77975515521E+02  0.00000000000E+00 0. -1.
         25    2    1    2    0    0  0.16024039157E+02 -0.41308597455E+02  0.46585129833E+02  0.14065223108E+03  0.12509878389E+03 0.  0.
          5    1    3    3  502    0 -0.19676496864E+02 -0.68563630227E+02  0.60307658819E+02  0.93501989449E+02  0.41800000000E+01 0. -1.
         -5    1    3    3    0  502  0.35700536022E+02  0.27255032772E+02 -0.13722528986E+02  0.47150241626E+02  0.41800000000E+01 0. -1.
        -11    1    1    2    0    0 -0.51008855602E+02  0.31544005908E+02  0.15300794260E+02  0.61895411490E+02  0.00000000000E+00 0. -1.
         11    1    1    2    0    0  0.34984816445E+02  0.97645915470E+01  0.35499357671E+02  0.50788670240E+02  0.00000000000E+00 0.  1.
</event>
<event>
 7    1  0.2522928E-009  0.7970937E+02  0.7561462E-02  0.1329878E+00
          2   -1    0    0  501    0  0.00000000000E+00  0.00000000000E+00  0.46582735203E+03  0.46582735203E+03  0.00000000000E+00 0. -1.
         -2   -1    0    0    0  501 -0.00000000000E+00 -0.00000000000E+00 -0.29976006818E+02  0.29976006818E+02  0.00000000000E+00 0.  1.
         25    2    1    2    0    0  0.18099579408E+02  0.39328000535E+02  0.29736104213E+03  0.32549294666E+03  0.12509109699E+03 0.  0.
          5    1    3    3  502    0  0.35392726010E+02  0.68932206950E+01  0.28376896623E+03  0.28608121250E+03  0.41800000000E+01 0.  1.
         -5    1    3    3    0  502 -0.17293146602E+02  0.32434779840E+02  0.13592075899E+02  0.39411734165E+02  0.41800000000E+01 0.  1.
        -11    1    1    2    0    0 -0.46479030391E+02 -0.15275934355E+02  0.11822389997E+03  0.12794743046E+03  0.00000000000E+00 0. -1.
         11    1    1    2    0    0  0.28379450984E+02 -0.24052066179E+02  0.20266403101E+02  0.42362981721E+02  0.00000000000E+00 0.  1.
</event>
<event>
 7    1  0.2522928E-009  0.1086031E+03  0.7561462E-02  0.1263179E+00
          1   -1    0    0  501    0  0.00000000000E+00  0.00000000000E+00  0.70658260713E+02  0.70658260713E+02  0.00000000000E+00 0. -1.
         -1   -1    0    0    0  501 -0.00000000000E+00 -0.00000000000E+00 -0.22544459906E+03  0.22544459906E+03  0.00000000000E+00 0.  1.
         25    2    1    2    0    0 -0.21814880836E+02  0.36613957332E+02 -0.38669668240E+02  0.13769332731E+03  0.12509052021E+03 0.  0.
          5    1    3    3  502    0 -0.66011394064E+02  0.24612433984E+02  0.93660175644E+01  0.71193193059E+02  0.41800000000E+01 0. -1.
         -5    1    3    3    0  502  0.44196513228E+02  0.12001523348E+02 -0.48035685805E+02  0.66500134247E+02  0.41800000000E+01 0. -1.
        -11    1    1    2    0    0 -0.11260137331E+01 -0.64514011375E+02 -0.99642320964E+02  0.11870938336E+03  0.00000000000E+00 0.  1.
         11    1    1    2    0    0  0.22940894570E+02  0.27900054043E+02 -0.16474349139E+02  0.39700149103E+02  0.00000000000E+00 0. -1.
</event>
<event>
 7    1  0.2522928E-009  0.1431141E+03  0.7561462E-02  0.1209199E+00
         -1   -1    0    0    0  501 -0.00000000000E+00  0.00000000000E+00  0.61459694408E+02  0.61459694408E+02  0.00000000000E+00 0.  1.
          1   -1    0    0  501    0  0.00000000000E+00 -0.00000000000E+00 -0.44948916417E+03  0.44948916417E+03  0.00000000000E+00 0. -1.
         25    2    1    2    0    0 -0.10247702099E+03  0.10177460666E+02 -0.31341732399E+03  0.35282175942E+03  0.12509058479E+03 0.  0.
          5    1    3    3  502    0 -0.10378153715E+03 -0.31049738529E+02 -0.27766112225E+03  0.29807358978E+03  0.41800000000E+01 0.  1.
         -5    1    3    3    0  502  0.13045161506E+01  0.41227199194E+02 -0.35756201745E+02  0.54748169641E+02  0.41800000000E+01 0.  1.
        -11    1    1    2    0    0  0.37281763053E+01  0.29650142573E+02 -0.35041524311E+01  0.30088358836E+02  0.00000000000E+00 0.  1.
         11    1    1    2    0    0  0.98748844690E+02 -0.39827603239E+02 -0.71107993339E+02  0.12803874032E+03  0.00000000000E+00 0. -1.
</event>
<event>
 7    1  0.2522928E-009  0.1509016E+03  0.7561462E-02  0.1199369E+00
          2   -1    0    0  501    0  0.00000000000E+00  0.00000000000E+00  0.18148577652E+03  0.18148577652E+03  0.00000000000E+00 0. -1.
         -2   -1    0    0    0  501 -0.00000000000E+00 -0.00000000000E+00 -0.17732824816E+03  0.17732824816E+03  0.00000000000E+00 0.  1.
         25    2    1    2    0    0 -0.11668864032E+03  0.50535781434E+02 -0.60802253580E+02  0.18845486091E+03  0.12509283183E+03 0.  0.
          5    1    3    3  502    0 -0.10176435810E+03 -0.18783077826E+02 -0.16860029474E+02  0.10493103252E+03  0.41800000000E+01 0.  1.
         -5    1    3    3    0  502 -0.14924282220E+02  0.69318859260E+02 -0.43942224107E+02  0.83523828386E+02  0.41800000000E+01 0.  1.
        -11    1    1    2    0    0  0.54192112761E+02 -0.21663051374E+02  0.80842147359E+02  0.99707199690E+02  0.00000000000E+00 0. -1.
         11    1    1    2    0    0  0.62496527556E+02 -0.28872730060E+02 -0.15882365423E+02  0.70651964086E+02  0.00000000000E+00 0.  1.
</event>
<event>
 7    1  0.2522928E-009  0.1926878E+03  0.7561462E-02  0.1156059E+00
          2   -1    0    0  501    0  0.00000000000E+00  0.00000000000E+00  0.75517051919E+03  0.75517051919E+03  0.00000000000E+00 0.  1.
         -2   -1    0    0    0  501 -0.00000000000E+00 -0.00000000000E+00 -0.61533010160E+02  0.61533010160E+02  0.00000000000E+00 0. -1.
         25    2    1    2    0    0 -0.18099442533E+03  0.37782791667E+02  0.38947654428E+03  0.44891794845E+03  0.12509526188E+03 0.  0.
          5    1    3    3  502    0 -0.14016282045E+03  0.12558186079E+02  0.15437750199E+03  0.20893350567E+03  0.41800000000E+01 0. -1.
         -5    1    3    3    0  502 -0.40831604878E+02  0.25224605588E+02  0.23509904230E+03  0.23998444277E+03  0.41800000000E+01 0. -1.
        -11    1    1    2    0    0  0.13859437621E+03 -0.57003898509E+02  0.27403500883E+03  0.31233480694E+03  0.00000000000E+00 0.  1.
         11    1    1    2    0    0  0.42400049114E+02  0.19221106841E+02  0.30125955914E+02  0.55450773961E+02  0.00000000000E+00 0. -1.
</event>
<event>
 7    1  0.2522928E-009  0.1023006E+03  0.7561462E-02  0.1275531E+00
          1   -1    0    0  501    0  0.00000000000E+00  0.00000000000E+00  0.12669319448E+03  0.12669319448E+03  0.00000000000E+00 0. -1.
         -1   -1    0    0    0  501 -0.00000000000E+00 -0.00000000000E+00 -0.15824568387E+03  0.15824568387E+03  0.00000000000E+00 0.  1.
         25    2    1    2    0    0 -0.55695590262E+02 -0.69802970050E+02 -0.17662209589E+02  0.15470590228E+03  0.12509000420E+03 0.  0.
          5    1    3    3  502    0 -0.22415433592E+02 -0.70536176548E+02  0.42771393300E+02  0.85584276301E+02  0.41800000000E+01 0. -1.
         -5    1    3    3    0  502 -0.33280156670E+02  0.73320649797E+00 -0.60433602889E+02  0.69121625978E+02  0.41800000000E+01 0. -1.
        -11    1    1    2    0    0  0.42859301973E+02  0.23514494802E+02  0.36201865885E+02  0.60831129572E+02  0.00000000000E+00 0. -1.
         11    1    1    2    0    0  0.12836288290E+02  0.46288475248E+02 -0.50092145692E+02  0.69401846502E+02  0.00000000000E+00 0.  1.
</event>
<event>
 7    1  0.2522928E-009  0.1139167E+03  0.7561462E-02  0.1253484E+00
          4   -1    0    0  501    0  0.00000000000E+00  0.00000000000E+00  0.64543584996E+02  0.64543584996E+02  0.00000000000E+00 0. -1.
         -4   -1    0    0    0  501 -0.00000000000E+00 -0.00000000000E+00 -0.33291178531E+03  0.33291178531E+03  0.00000000000E+00 0.  1.
         25    2    1    2    0    0  0.44265615606E+02 -0.77365334633E+02 -0.89696967509E+02  0.17786955501E+03  0.12508874006E+03 0.  0.
          5    1    3    3  502    0  0.50078769156E+02 -0.82678639592E+02 -0.11544144945E+03  0.15062483599E+03  0.41800000000E+01 0.  1.
         -5    1    3    3    0  502 -0.58131535498E+01  0.53133049590E+01  0.25744481945E+02  0.27244719018E+02  0.41800000000E+01 0.  1.
        -11    1    1    2    0    0  0.25052974926E+02  0.23871738253E+02 -0.82839460796E+02  0.89776877340E+02  0.00000000000E+00 0.  1.
         11    1    1    2    0    0 -0.69318590532E+02  0.53493596380E+02 -0.95831772005E+02  0.12980893795E+03  0.00000000000E+00 0. -1.
</event>
<event>
 7    1  0.2522928E-009  0.2587071E+03  0.7561462E-02  0.1107923E+00
         -2   -1    0    0    0  501 -0.00000000000E+00  0.00000000000E+00  0.11314407788E+03  0.11314407788E+03  0.00000000000E+00 0. -1.
          2   -1    0    0  501    0  0.00000000000E+00 -0.00000000000E+00 -0.67010143924E+03  0.67010143924E+03  0.00000000000E+00 0.  1.
         25    2    1    2    0    0  0.12565819101E+03  0.19887829549E+03 -0.41563253558E+03  0.49370080762E+03  0.12509006929E+03 0.  0.
          5    1    3    3  502    0  0.11408808952E+03  0.66421415332E+02 -0.18243183593E+03  0.22522598373E+03  0.41800000000E+01 0.  1.
         -5    1    3    3    0  502  0.11570101481E+02  0.13245688016E+03 -0.23320069965E+03  0.26847482390E+03  0.41800000000E+01 0.  1.
        -11    1    1    2    0    0 -0.35708057533E+02 -0.14074910017E+03 -0.73193274494E+02  0.16261189994E+03  0.00000000000E+00 0. -1.
         11    1    1    2    0    0 -0.89950133472E+02 -0.58129195314E+02 -0.68131551288E+02  0.12693280955E+03  0.00000000000E+00 0.  1.
</event>
<event>
 7    1  0.2522928E-009  0.1248714E+03  0.7561462E-02  0.1235270E+00
          1   -1    0    0  501    0  0.00000000000E+00  0.00000000000E+00  0.41001509010E+03  0.41001509010E+03  0.00000000000E+00 0. -1.
         -1   -1    0    0    0  501 -0.00000000000E+00 -0.00000000000E+00 -0.45716387782E+02  0.45716387782E+02  0.00000000000E+00 0.  1.
         25    2    1    2    0    0  0.63965580850E+02  0.43082784473E+02  0.15003995484E+03  0.21001789844E+03  0.12509119780E+03 0.  0.
          5    1    3    3  502    0  0.92582687881E+02  0.24742807931E+02  0.58674337754E+02  0.11244514641E+03  0.41800000000E+01 0. -1.
         -5    1    3    3    0  502 -0.28617107031E+02  0.18339976542E+02  0.91365617085E+02  0.97572752035E+02  0.41800000000E+01 0. -1.
        -11    1    1    2    0    0 -0.44215840789E+02  0.23535786806E+02  0.76799732320E+02  0.91690635955E+02  0.00000000000E+00 0. -1.
         11    1    1    2    0    0 -0.19749740060E+02 -0.66618571278E+02  0.13745901516E+03  0.15402294349E+03  0.00000000000E+00 0.  1.
</event>
<event>
 7    1  0.2522928E-009  0.1119146E+03  0.7561462E-02  0.1257065E+00
          1   -1    0    0  501    0  0.00000000000E+00  0.00000000000E+00  0.45159537514E+03  0.45159537514E+03  0.00000000000E+00 0. -1.
         -1   -1    0    0    0  501 -0.00000000000E+00 -0.00000000000E+00 -0.29945149329E+02  0.29945149329E+02  0.00000000000E+00 0.  1.
         25    2    1    2    0    0  0.99623491185E+01  0.40832513153E+02  0.23502263801E+03  0.26953692589E+03  0.12509185231E+03 0.  0.
          5    1    3    3  502    0 -0.52911510222E+02  0.38098875260E+02  0.15054852785E+03  0.16411424024E+03  0.41800000000E+01 0. -1.
         -5    1    3    3    0  502  0.62873859340E+02  0.27336378930E+01  0.84474110154E+02  0.10542268565E+03  0.41800000000E+01 0. -1.
        -11    1    1    2    0    0 -0.46132710353E+02 -0.36830581688E+02  0.14588116657E+03  0.15737227669E+03  0.00000000000E+00 0. -1.
         11    1    1    2    0    0  0.36170361234E+02 -0.40019314648E+01  0.40746421234E+02  0.54631321883E+02  0.00000000000E+00 0.  1.
</event>
<event>
 7    1  0.2522928E-009  0.6124091E+02  0.7561462E-02  0.1392697E+00
          2   -1    0    0  501    0  0.00000000000E+00  0.00000000000E+00  0.59115130750E+02  0.59115130750E+02  0.00000000000E+00 0. -1.
         -2   -1    0    0    0  501 -0.00000000000E+00 -0.00000000000E+00 -0.26740311752E+03  0.26740311752E+03  0.00000000000E+00 0.  1.
         25    2    1    2    0    0 -0.38498367741E+02 -0.11883505850E+02 -0.14483621851E+03  0.19556256854E+03  0.12507536126E+03 0.  0.
          5    1    3    3  502    0  0.13102190734E+02 -0.24334815192E+02 -0.13924620909E+03  0.14202404648E+03  0.41800000000E+01 0. -1.
         -5    1    3    3    0  502 -0.51600558474E+02  0.12451309342E+02 -0.55900094144E+01  0.53538522061E+02  0.41800000000E+01 0. -1.
        -11    1    1    2    0    0  0.21396523863E+02  0.11241544163E+02 -0.93392277334E+02  0.96469171315E+02  0.00000000000E+00 0.  1.
         11    1    1    2    0    0  0.17101843878E+02  0.64196168651E+00  0.29940509072E+02  0.34486508410E+02  0.00000000000E+00 0. -1.
</event>
<event>
 7    1  0.2522928E-009  0.9965253E+02  0.7561462E-02  0.1281028E+00
          3   -1    0    0  501    0  0.00000000000E+00  0.00000000000E+00  0.34983862654E+02  0.34983862654E+02  0.00000000000E+00 0. -1.
         -3   -1    0    0    0  501 -0.00000000000E+00 -0.00000000000E+00 -0.34177879600E+03  0.34177879600E+03  0.00000000000E+00 0.  1.
         25    2    1    2    0    0 -0.32899523318E+01 -0.98940685900E+01 -0.14629517141E+03  0.19277315801E+03  0.12510194599E+03 0.  0.
          5    1    3    3  502    0 -0.57017440381E+02 -0.26639981652E+02 -0.47355207158E+02  0.78871193569E+02  0.41800000000E+01 0. -1.
         -5    1    3    3    0  502  0.53727488049E+02  0.16745913062E+02 -0.98939964255E+02  0.11390196444E+03  0.41800000000E+01 0. -1.
        -11    1    1    2    0    0  0.40917447632E+02  0.10209530525E+02 -0.12625112088E+03  0.13310829259E+03  0.00000000000E+00 0.  1.
         11    1    1    2    0    0 -0.37627495300E+02 -0.31546193506E+00 -0.34248641058E+02  0.50881208055E+02  0.00000000000E+00 0. -1.
</event>
<event>
 7    1  0.2522928E-009  0.7005423E+02  0.7561462E-02  0.1359909E+00
         -2   -1    0    0    0  501 -0.00000000000E+00  0.00000000000E+00  0.51862319973E+02  0.51862319973E+02  0.00000000000E+00 0. -1.
          2   -1    0    0  501    0  0.00000000000E+00 -0.00000000000E+00 -0.36269774667E+03  0.36269774667E+03  0.00000000000E+00 0.  1.
         25    2    1    2    0    0 -0.68485373340E+01 -0.40048428214E+02 -0.62952117088E+02  0.14581209393E+03  0.12508964236E+03 0.  0.
          5    1    3    3  502    0 -0.23224543317E+02 -0.48339973911E+02 -0.94694805310E+02  0.10890689162E+03  0.41800000000E+01 0. -1.
         -5    1    3    3    0  502  0.16376005983E+02  0.82915456968E+01  0.31742688222E+02  0.36905202310E+02  0.41800000000E+01 0. -1.
        -11    1    1    2    0    0  0.14662807027E+02 -0.94075863717E+01 -0.16766997031E+01  0.17501768858E+02  0.00000000000E+00 0. -1.
         11    1    1    2    0    0 -0.78142696932E+01  0.49456014586E+02 -0.24620660990E+03  0.25124620385E+03  0.00000000000E+00 0.  1.
</event>
<event>
 7    1  0.2522928E-009  0.8899789E+02  0.7561462E-02  0.1305297E+00
          1   -1    0    0  501    0  0.00000000000E+00  0.00000000000E+00  0.31679227388E+03  0.31679227388E+03  0.00000000000E+00 0. -1.
         -1   -1    0    0    0  501 -0.00000000000E+00 -0.00000000000E+00 -0.42966029846E+02  0.42966029846E+02  0.00000000000E+00 0.  1.
         25    2    1    2    0    0  0.16621364860E+02  0.41521935628E+02  0.15122371564E+03  0.20129135749E+03  0.12509699245E+03 0.  0.
          5    1    3    3  502    0 -0.30929698718E+02  0.51833707766E+01  0.13567755560E+03  0.13931756920E+03  0.41800000000E+01 0.  1.
         -5    1    3    3    0  502  0.47551063578E+02  0.36338564852E+02  0.15546160046E+02  0.61973788290E+02  0.41800000000E+01 0.  1.
        -11    1    1    2    0    0 -0.40495511491E+02 -0.46827294556E+02  0.43482300677E+02  0.75653105941E+02  0.00000000000E+00 0.  1.
         11    1    1    2    0    0  0.23874146632E+02  0.53053589275E+01  0.79120227711E+02  0.82813840291E+02  0.00000000000E+00 0. -1.
</event>
<event>
 7    1  0.2522928E-009  0.2617693E+03  0.7561462E-02  0.1106085E+00
          2   -1    0    0  501    0  0.00000000000E+00  0.00000000000E+00  0.11445482899E+04  0.11445482899E+04  0.00000000000E+00 0. -1.
         -2   -1    0    0    0  501 -0.00000000000E+00 -0.00000000000E+00 -0.63139164601E+02  0.63139164601E+02  0.00000000000E+00 0.  1.
         25    2    1    2    0    0 -0.19538498311E+03  0.13981140753E+03  0.67115283624E+03  0.72375128189E+03  0.12508903690E+03 0.  0.
          5    1    3    3  502    0 -0.46439768897E+01 -0.18639246783E+02  0.85886162419E+02  0.88107283110E+02  0.41800000000E+01 0. -1.
         -5    1    3    3    0  502 -0.19074100622E+03  0.15845065431E+03  0.58526667382E+03  0.63564399878E+03  0.41800000000E+01 0. -1.
        -11    1    1    2    0    0  0.20032946039E+03 -0.11586288620E+03  0.35869856152E+03  0.42687323544E+03  0.00000000000E+00 0.  1.
         11    1    1    2    0    0 -0.49444772819E+01 -0.23948521327E+02  0.51557727584E+02  0.57062937209E+02  0.00000000000E+00 0. -1.
</event>
<event>
 7    1  0.2522928E-009  0.1015670E+03  0.7561462E-02  0.1277035E+00
          4   -1    0    0  501    0  0.00000000000E+00  0.00000000000E+00  0.19535926612E+03  0.19535926612E+03  0.00000000000E+00 0. -1.
         -4   -1    0    0    0  501 -0.00000000000E+00 -0.00000000000E+00 -0.98147809169E+02  0.98147809169E+02  0.00000000000E+00 0.  1.
         25    2    1    2    0    0  0.22078140824E+02  0.52427226482E+02 -0.15337401220E+02  0.13826992610E+03  0.12508908109E+03 0.  0.
          5    1    3    3  502    0 -0.37255021923E+02  0.45821315247E+01  0.31095679883E+02  0.48921838632E+02  0.41800000000E+01 0.  1.
         -5    1    3    3    0  502  0.59333162746E+02  0.47845094957E+02 -0.46433081103E+02  0.89348087465E+02  0.41800000000E+01 0.  1.
        -11    1    1    2    0    0 -0.29384505762E+02  0.61323372905E+01  0.84933338355E+02  0.90081777867E+02  0.00000000000E+00 0. -1.
         11    1    1    2    0    0  0.73063649387E+01 -0.58559563772E+02  0.27615519816E+02  0.65155371325E+02  0.00000000000E+00 0.  1.
</event>
<event>
 7    1  0.2522928E-009  0.1058547E+03  0.7561462E-02  0.1268445E+00
          3   -1    0    0  501    0  0.00000000000E+00  0.00000000000E+00  0.10731368973E+03  0.10731368973E+03  0.00000000000E+00 0. -1.
         -3   -1    0    0    0  501 -0.00000000000E+00 -0.00000000000E+00 -0.19439027568E+03  0.19439027568E+03  0.00000000000E+00 0.  1.
         25    2    1    2    0    0  0.91906624182E+02  0.16832802707E+02 -0.60196957631E+02  0.16731887731E+03  0.12506703075E+03 0.  0.
          5    1    3    3  502    0 -0.58619800246E+01  0.65957887878E+01  0.31404548648E+02  0.32887464410E+02  0.41800000000E+01 0.  1.
         -5    1    3    3    0  502  0.97768604206E+02  0.10237013919E+02 -0.91601506279E+02  0.13443141290E+03  0.41800000000E+01 0.  1.
        -11    1    1    2    0    0 -0.58661728751E+02  0.11612385052E+02  0.26463145003E+02  0.65393760789E+02  0.00000000000E+00 0. -1.
         11    1    1    2    0    0 -0.33244895430E+02 -0.28445187759E+02 -0.53342773321E+02  0.68991327313E+02  0.00000000000E+00 0.  1.
</event>
<event>
 7    1  0.2522928E-009  0.9007836E+02  0.7561462E-02  0.1302662E+00
          4   -1    0    0  501    0  0.00000000000E+00  0.00000000000E+00  0.47141519081E+03  0.47141519081E+03  0.00000000000E+00 0. -1.
         -4   -1    0    0    0  501 -0.00000000000E+00 -0.00000000000E+00 -0.30271747957E+02  0.30271747957E+02  0.00000000000E+00 0.  1.
         25    2    1    2    0    0 -0.20318515373E+02  0.33811811803E+02  0.18512688863E+03  0.22688475095E+03  0.12509454279E+03 0.  0.
          5    1    3    3  502    0  0.31761055997E+02  0.14248461618E+02  0.16322819891E+03  0.16695119244E+03  0.41800000000E+01 0.  1.
         -5    1    3    3    0  502 -0.52079571371E+02  0.19563350185E+02  0.21898689718E+02  0.59933558513E+02  0.41800000000E+01 0.  1.
        -11    1    1    2    0    0  0.15562676211E+02  0.25462354999E+02  0.15275552283E+03  0.15564311154E+03  0.00000000000E+00 0. -1.
         11    1    1    2    0    0  0.47558391621E+01 -0.59274166802E+02  0.10326103139E+03  0.11915907628E+03  0.00000000000E+00 0.  1.
</event>
<event>
 7    1  0.2522928E-009  0.1171850E+03  0.7561462E-02  0.1247814E+00
          2   -1    0    0  501    0  0.00000000000E+00  0.00000000000E+00  0.83373290967E+03  0.83373290967E+03  0.00000000000E+00 0. -1.
         -2   -1    0    0    0  501 -0.00000000000E+00 -0.00000000000E+00 -0.17742847124E+02  0.17742847124E+02  0.00000000000E+00 0.  1.
         25    2    1    2    0    0  0.30828083406E+02  0.41294607631E+02  0.52774314876E+03  0.54480726922E+03  0.12508602716E+03 0.  0.
          5    1    3    3  502    0 -0.34909201388E+02 -0.23974626139E+02  0.16561863795E+03  0.17099836454E+03  0.41800000000E+01 0.  1.
         -5    1    3    3    0  502  0.65737284793E+02  0.65269233770E+02  0.36212451081E+03  0.37380890468E+03  0.41800000000E+01 0.  1.
        -11    1    1    2    0    0 -0.39209582705E+02 -0.63902801860E+02  0.25365079222E+03  0.26449892978E+03  0.00000000000E+00 0. -1.
         11    1    1    2    0    0  0.83814992990E+01  0.22608194228E+02  0.34596121568E+02  0.42169557791E+02  0.00000000000E+00 0.  1.
</event>
<event>
 7    1  0.2522928E-009  0.1291097E+03  0.7561462E-02  0.1228783E+00
         -2   -1    0    0    0  501 -0.00000000000E+00  0.00000000000E+00  0.20925497455E+02  0.20925497455E+02  0.00000000000E+00 0.  1.
          2   -1    0    0  501    0  0.00000000000E+00 -0.00000000000E+00 -0.10799077337E+04  0.10799077337E+04  0.00000000000E+00 0. -1.
         25    2    1    2    0    0 -0.43841596784E+02  0.87048288297E+02 -0.70218105564E+03  0.71986644131E+03  0.12509983337E+03 0.  0.
          5    1    3    3  502    0 -0.41305372727E+02 -0.26622492451E+01 -0.45439053392E+03  0.45629097197E+03  0.41800000000E+01 0.  1.
         -5    1    3    3    0  502 -0.25362240571E+01  0.89710537542E+02 -0.24779052173E+03  0.26357546934E+03  0.41800000000E+01 0.  1.
        -11    1    1    2    0    0  0.66095045415E+02 -0.79248501738E+02 -0.23138895007E+03  0.25335691479E+03  0.00000000000E+00 0.  1.
         11    1    1    2    0    0 -0.22253448631E+02 -0.77997865587E+01 -0.12541223054E+03  0.12760987507E+03  0.00000000000E+00 0. -1.
</event>
<event>
 7    1  0.2522928E-009  0.2527471E+03  0.7561462E-02  0.1111581E+00
         -1   -1    0    0    0  501 -0.00000000000E+00  0.00000000000E+00  0.99964995158E+02  0.99964995158E+02  0.00000000000E+00 0.  1.
          1   -1    0    0  501    0  0.00000000000E+00 -0.00000000000E+00 -0.66926095702E+03  0.66926095702E+03  0.00000000000E+00 0. -1.
         25    2    1    2    0    0 -0.23273110041E+03  0.40460112310E+02 -0.31080830214E+03  0.40993889099E+03  0.12508919969E+03 0.  0.
          5    1    3    3  502    0 -0.23658852881E+03  0.17836843744E+02 -0.30397742838E+03  0.38563199339E+03  0.41800000000E+01 0. -1.
         -5    1    3    3    0  502  0.38574284049E+01  0.22623268565E+02 -0.68308737562E+01  0.24306897596E+02  0.41800000000E+01 0. -1.
        -11    1    1    2    0    0  0.84541304885E+02 -0.46636672481E+02 -0.13678147667E+03  0.16742575612E+03  0.00000000000E+00 0.  1.
         11    1    1    2    0    0  0.14818979552E+03  0.61765601710E+01 -0.12170618305E+03  0.19186130507E+03  0.00000000000E+00 0. -1.
</event>
<event>
 7    1  0.2522928E-009  0.6643837E+02  0.7561462E-02  0.1372641E+00
          3   -1    0    0  501    0  0.00000000000E+00  0.00000000000E+00  0.18797600798E+03  0.18797600798E+03  0.00000000000E+00 0. -1.
         -3   -1    0    0    0  501 -0.00000000000E+00 -0.00000000000E+00 -0.64630315542E+02  0.64630315542E+02  0.00000000000E+00 0.  1.
         25    2    1    2    0    0 -0.87541486099E+01  0.29339555759E+01  0.74907740386E+02  0.14609350098E+03  0.12508756231E+03 0.  0.
          5    1    3    3  502    0  0.31720394555E+02  0.10923370364E-01 -0.23412521518E+02  0.39645959616E+02  0.41800000000E+01 0. -1.
         -5    1    3    3    0  502 -0.40474543165E+02  0.29230322055E+01  0.98320261904E+02  0.10644754136E+03  0.41800000000E+01 0. -1.
        -11    1    1    2    0    0  0.18707829229E+02  0.24544804824E+02 -0.16720593767E+02  0.35099979689E+02  0.00000000000E+00 0.  1.
         11    1    1    2    0    0 -0.99536806189E+01 -0.27478760400E+02  0.65158545821E+02  0.71412842854E+02  0.00000000000E+00 0. -1.
</event>
<event>
 7    1  0.2522928E-009  0.2449646E+03  0.7561462E-02  0.1116529E+00
         -2   -1    0    0    0  501 -0.00000000000E+00  0.00000000000E+00  0.43610462053E+02  0.43610462053E+02  0.00000000000E+00 0.  1.
          2   -1    0    0  501    0  0.00000000000E+00 -0.00000000000E+00 -0.16812307880E+04  0.16812307880E+04  0.00000000000E+00 0. -1.
         25    2    1    2    0    0  0.19304224637E+03 -0.10698839136E+03 -0.48350797333E+03  0.54602108882E+03  0.12508894593E+03 0.  0.
          5    1    3    3  502    0  0.69400420563E+02 -0.10818953033E+03 -0.27470395175E+03  0.30331687450E+03  0.41800000000E+01 0. -1.
         -5    1    3    3    0  502  0.12364182580E+03  0.12011389680E+01 -0.20880402158E+03  0.24270421432E+03  0.41800000000E+01 0. -1.
        -11    1    1    2    0    0 -0.75964707018E+02 -0.42868366685E+01 -0.29487172495E+03  0.30452971589E+03  0.00000000000E+00 0.  1.
         11    1    1    2    0    0 -0.11707753935E+03  0.11127522803E+03 -0.85924062766E+03  0.87429044534E+03  0.00000000000E+00 0. -1.
</event>
<event>
 7    1  0.2522928E-009  0.1544410E+03  0.7561462E-02  0.1195120E+00
          2   -1    0    0  501    0  0.00000000000E+00  0.00000000000E+00  0.19061802858E+03  0.19061802858E+03  0.00000000000E+00 0. -1.
         -2   -1    0    0    0  501 -0.00000000000E+00 -0.00000000000E+00 -0.14999397610E+03  0.14999397610E+03  0.00000000000E+00 0.  1.
         25    2    1    2    0    0 -0.72883239310E+02  0.97487672541E+02  0.64684107718E+02  0.18614073261E+03  0.12509406730E+03 0.  0.
          5    1    3    3  502    0 -0.60294836423E+02  0.11759474647E+03  0.82796944506E+02  0.15600255805E+03  0.41800000000E+01 0. -1.
         -5    1    3    3    0  502 -0.12588402888E+02 -0.20107073933E+02 -0.18112836788E+02  0.30138174562E+02  0.41800000000E+01 0. -1.
        -11    1    1    2    0    0 -0.16357843085E+02 -0.47612000657E+02 -0.87508777351E+01  0.51098527358E+02  0.00000000000E+00 0.  1.
         11    1    1    2    0    0  0.89241082395E+02 -0.49875671883E+02 -0.15309177500E+02  0.10337274471E+03  0.00000000000E+00 0. -1.
</event>
<event>
 7    1  0.2522928E-009  0.8825380E+02  0.7561462E-02  0.1307136E+00
          1   -1    0    0  501    0  0.00000000000E+00  0.00000000000E+00  0.49012989110E+03  0.49012989110E+03  0.00000000000E+00 0. -1.
         -1   -1    0    0    0  501 -0.00000000000E+00 -0.00000000000E+00 -0.24811763534E+02  0.24811763534E+02  0.00000000000E+00 0.  1.
         25    2    1    2    0    0 -0.16118395117E+02 -0.18638840099E+02  0.25639309586E+03  0.28634277424E+03  0.12509019039E+03 0.  0.
          5    1    3    3  502    0 -0.32892995979E+01  0.31440409987E+02  0.83873051192E+01  0.32971778222E+02  0.41800000000E+01 0.  1.
         -5    1    3    3    0  502 -0.12829095519E+02 -0.50079250086E+02  0.24800579074E+03  0.25337099602E+03  0.41800000000E+01 0.  1.
        -11    1    1    2    0    0  0.53488480888E+02  0.11439904522E+02  0.12568676042E+03  0.13707315838E+03  0.00000000000E+00 0. -1.
         11    1    1    2    0    0 -0.37370085771E+02  0.71989355773E+01  0.83238271284E+02  0.91525722015E+02  0.00000000000E+00 0.  1.
</event>
<event>
 7    1  0.2522928E-009  0.1221222E+03  0.7561462E-02  0.1239637E+00
         -2   -1    0    0    0  501 -0.00000000000E+00  0.00000000000E+00  0.23182589599E+02  0.23182589599E+02  0.00000000000E+00 0.  1.
          2   -1    0    0  501    0  0.00000000000E+00 -0.00000000000E+00 -0.85966995954E+03  0.85966995954E+03  0.00000000000E+00 0. -1.
         25    2    1    2    0    0 -0.82487142761E+02  0.27292192796E+02 -0.50548782063E+03  0.52793396351E+03  0.12508933014E+03 0.  0.
          5    1    3    3  502    0 -0.89264953625E+02  0.58688243535E+02 -0.27278075135E+03  0.29298353636E+03  0.41800000000E+01 0.  1.
         -5    1    3    3    0  502  0.67778108633E+01 -0.31396050738E+02 -0.23270706928E+03  0.23495042714E+03  0.41800000000E+01 0.  1.
        -11    1    1    2    0    0  0.72012598327E+01 -0.28754957820E+02 -0.22102573834E+02  0.36976066753E+02  0.00000000000E+00 0.  1.
         11    1    1    2    0    0  0.75285882929E+02  0.14627650237E+01 -0.30889697548E+03  0.31794251888E+03  0.00000000000E+00 0. -1.
</event>
<event>
 7    1  0.2522928E-009  0.6955664E+02  0.7561462E-02  0.1361607E+00
          1   -1    0    0  501    0  0.00000000000E+00  0.00000000000E+00  0.26468412728E+03  0.26468412728E+03  0.00000000000E+00 0. -1.
         -1   -1    0    0    0  501 -0.00000000000E+00 -0.00000000000E+00 -0.51540354031E+02  0.51540354031E+02  0.00000000000E+00 0.  1.
         25    2    1    2    0    0 -0.26051791199E+02 -0.16303350864E+02  0.82164350548E+02  0.15278344203E+03  0.12508918652E+03 0.  0.
          5    1    3    3  502    0 -0.46292711492E+02 -0.16975891957E+02  0.10852819513E+03  0.11927714610E+03  0.41800000000E+01 0.  1.
         -5    1    3    3    0  502  0.20240920292E+02  0.67254109314E+00 -0.26363844579E+02  0.33506295927E+02  0.41800000000E+01 0.  1.
        -11    1    1    2    0    0 -0.51932838529E+01 -0.20225425283E+02  0.10829267094E+03  0.11028753603E+03  0.00000000000E+00 0. -1.
         11    1    1    2    0    0  0.31245075052E+02  0.36528776147E+02  0.22686751760E+02  0.53153503245E+02  0.00000000000E+00 0.  1.
</event>
<event>
 7    1  0.4126997E-009  0.1009165E+03  0.7561462E-02  0.1278380E+00
          2   -1    0    0  501    0  0.00000000000E+00  0.00000000000E+00  0.10380942315E+04  0.10380942315E+04  0.00000000000E+00 0. -1.
         -2   -1    0    0    0  501 -0.00000000000E+00 -0.00000000000E+00 -0.17865009177E+02  0.17865009177E+02  0.00000000000E+00 0.  1.
         25    2    1    2    0    0 -0.77986091870E+02 -0.90966783864E+01  0.65143695093E+03  0.66797042714E+03  0.12509920231E+03 0.  0.
          5    1    3    3  502    0 -0.77985390698E+02  0.99449536767E+01  0.18410127040E+03  0.20022830327E+03  0.41800000000E+01 0.  1.
         -5    1    3    3    0  502 -0.70117228805E-03 -0.19041632063E+02  0.46733568053E+03  0.46774212388E+03  0.41800000000E+01 0.  1.
        -11    1    1    2    0    0  0.91345431147E+01  0.30236448506E+02  0.37841755134E+02  0.49291795745E+02  0.00000000000E+00 0.  1.
         11    1    1    2    0    0  0.68851548755E+02 -0.21139770119E+02  0.33095051625E+03  0.33869701778E+03  0.00000000000E+00 0. -1.
</event>
<event>
 7    1  0.2522928E-009  0.1037998E+03  0.7561462E-02  0.1272502E+00
         -4   -1    0    0    0  501 -0.00000000000E+00  0.00000000000E+00  0.55984237557E+02  0.55984237557E+02  0.00000000000E+00 0.  1.
          4   -1    0    0  501    0  0.00000000000E+00 -0.00000000000E+00 -0.27651578470E+03  0.27651578470E+03  0.00000000000E+00 0. -1.
         25    2    1    2    0    0 -0.12809950280E+02  0.55399799087E+02 -0.15012318343E+03  0.20351227166E+03  0.12508813671E+03 0.  0.
          5    1    3    3  502    0 -0.46694185378E+02  0.79316711280E+01 -0.59306300494E+01  0.47915583350E+02  0.41800000000E+01 0. -1.
         -5    1    3    3    0  502  0.33884235098E+02  0.47468127959E+02 -0.14419255338E+03  0.15559668831E+03  0.41800000000E+01 0. -1.
        -11    1    1    2    0    0  0.22765144154E+00  0.22586106861E+02 -0.36717798783E+02  0.43108941019E+02  0.00000000000E+00 0. -1.
         11    1    1    2    0    0  0.12582298838E+02 -0.77985905948E+02 -0.33690564930E+02  0.85878809586E+02  0.00000000000E+00 0.  1.
</event>
<event>
 7    1  0.2522928E-009  0.1165012E+03  0.7561462E-02  0.1248983E+00
         -1   -1    0    0    0  501 -0.00000000000E+00  0.00000000000E+00  0.45376335210E+02  0.45376335210E+02  0.00000000000E+00 0.  1.
          1   -1    0    0  501    0  0.00000000000E+00 -0.00000000000E+00 -0.78590220618E+03  0.78590220618E+03  0.00000000000E+00 0. -1.
         25    2    1    2    0    0  0.78560714657E+02  0.66680744999E+00 -0.68007315033E+03  0.69593071810E+03  0.12509134292E+03 0.  0.
          5    1    3    3  502    0 -0.30443203407E+02  0.14371529823E+02 -0.23729075508E+03  0.23970336742E+03  0.41800000000E+01 0.  1.
         -5    1    3    3    0  502  0.10900391806E+03 -0.13704722373E+02 -0.44278239525E+03  0.45622735068E+03  0.41800000000E+01 0.  1.
        -11    1    1    2    0    0 -0.64978952182E+02  0.16699737328E+02  0.40188816005E+01  0.67210838879E+02  0.00000000000E+00 0.  1.
         11    1    1    2    0    0 -0.13581762476E+02 -0.17366544778E+02 -0.64471602246E+02  0.68136984419E+02  0.00000000000E+00 0. -1.
</event>
<event>
 7    1  0.3807641E-009  0.5717368E+02  0.7561462E-02  0.1410090E+00
         -2   -1    0    0    0  501 -0.00000000000E+00  0.00000000000E+00  0.41694081782E+03  0.41694081782E+03  0.00000000000E+00 0.  1.
          2   -1    0    0  501    0  0.00000000000E+00 -0.00000000000E+00 -0.40328800276E+02  0.40328800276E+02  0.00000000000E+00 0. -1.
         25    2    1    2    0    0  0.24998073163E+02  0.49980490536E+02  0.28532006643E+03  0.31649195781E+03  0.12504665513E+03 0.  0.
          5    1    3    3  502    0  0.22778715837E+02  0.38935453120E+02  0.17755459739E+02  0.48657662864E+02  0.41800000000E+01 0. -1.
         -5    1    3    3    0  502  0.22193573254E+01  0.11045037416E+02  0.26756460669E+03  0.26783429495E+03  0.41800000000E+01 0. -1.
        -11    1    1    2    0    0 -0.18599937418E+02 -0.24519336971E+02 -0.12869821441E+02  0.33358475106E+02  0.00000000000E+00 0. -1.
         11    1    1    2    0    0 -0.63981357443E+01 -0.25461153565E+02  0.10416177256E+03  0.10741918518E+03  0.00000000000E+00 0.  1.
</event>
<event>
 7    1  0.2522928E-009  0.9485347E+02  0.7561462E-02  0.1291506E+00
         -1   -1    0    0    0  501 -0.00000000000E+00  0.00000000000E+00  0.49561921283E+02  0.49561921283E+02  0.00000000000E+00 0.  1.
          1   -1    0    0  501    0  0.00000000000E+00 -0.00000000000E+00 -0.32080851104E+03  0.32080851104E+03  0.00000000000E+00 0. -1.
         25    2    1    2    0    0  0.27650327700E+02  0.13074479732E+02 -0.11505513841E+03  0.17268871255E+03  0.12509286121E+03 0.  0.
          5    1    3    3  502    0  0.47035158262E+02  0.11938979909E+01 -0.13445452651E+03  0.14251043332E+03  0.41800000000E+01 0.  1.
         -5    1    3    3    0  502 -0.19384830561E+02  0.11880581742E+02  0.19399388103E+02  0.30178279228E+02  0.41800000000E+01 0.  1.
        -11    1    1    2    0    0  0.31500887506E+02 -0.42809134022E+02 -0.86757644066E+02  0.10174387782E+03  0.00000000000E+00 0.  1.
         11    1    1    2    0    0 -0.59151215206E+02  0.29734654289E+02 -0.69433807281E+02  0.95937841958E+02  0.00000000000E+00 0. -1.
</event>
<event>
 7    1  0.2522928E-009  0.9332271E+02  0.7561462E-02  0.1294999E+00
         -2   -1    0    0    0  501 -0.00000000000E+00  0.00000000000E+00  0.38793694239E+03  0.38793694239E+03  0.00000000000E+00 0. -1.
          2   -1    0    0  501    0  0.00000000000E+00 -0.00000000000E+00 -0.31016689364E+02  0.31016689364E+02  0.00000000000E+00 0.  1.
         25    2    1    2    0    0  0.14776137485E+02 -0.63360253985E+01  0.23558725683E+03  0.26722205275E+03  0.12509112853E+03 0.  0.
          5    1    3    3  502    0  0.24241749459E+02  0.45188927171E+02  0.19251818981E+03  0.19927475345E+03  0.41800000000E+01 0. -1.
         -5    1    3    3    0  502 -0.94656119734E+01 -0.51524952569E+02  0.43069067015E+02  0.67947299290E+02  0.41800000000E+01 0. -1.
        -11    1    1    2    0    0 -0.22035668843E+02 -0.34624723296E+02  0.28391135788E+02  0.49904897114E+02  0.00000000000E+00 0.  1.
         11    1    1    2    0    0  0.72595313575E+01  0.40960748694E+02  0.92941860408E+02  0.10182668189E+03  0.00000000000E+00 0. -1.
</event>
<event>
 7    1  0.2522928E-009  0.8009083E+02  0.7561462E-02  0.1328794E+00
         -2   -1    0    0    0  501 -0.00000000000E+00  0.00000000000E+00  0.60836798521E+02  0.60836798521E+02  0.00000000000E+00 0. -1.
          2   -1    0    0  501    0  0.00000000000E+00 -0.00000000000E+00 -0.20228317950E+03  0.20228317950E+03  0.00000000000E+00 0.  1.
         25    2    1    2    0    0 -0.89874943728E+01 -0.13318040531E+02 -0.80435848531E+02  0.14958453957E+03  0.12508982169E+03 0.  0.
          5    1    3    3  502    0 -0.43026205325E+02 -0.39406290259E+02 -0.18201254133E+00  0.58494577400E+02  0.41800000000E+01 0.  1.
         -5    1    3    3    0  502  0.34038710952E+02  0.26088249728E+02 -0.80253835990E+02  0.91089962171E+02  0.41800000000E+01 0.  1.
        -11    1    1    2    0    0 -0.23304884965E+02  0.12155772690E+02  0.15476727850E+02  0.30502615918E+02  0.00000000000E+00 0. -1.
         11    1    1    2    0    0  0.32292379338E+02  0.11622678409E+01 -0.76487260293E+02  0.83032822528E+02  0.00000000000E+00 0.  1.
</event>
<event>
 7    1  0.2522928E-009  0.6711257E+02  0.7561462E-02  0.1370197E+00
          2   -1    0    0  501    0  0.00000000000E+00  0.00000000000E+00  0.88405485717E+02  0.88405485717E+02  0.00000000000E+00 0. -1.
         -2   -1    0    0    0  501 -0.00000000000E+00 -0.00000000000E+00 -0.15268511243E+03  0.15268511243E+03  0.00000000000E+00 0.  1.
         25    2    1    2    0    0  0.19697080789E+02 -0.70469308853E+01  0.18909147736E+01  0.12688156483E+03  0.12513081838E+03 0.  0.
          5    1    3    3  502    0 -0.44219683324E+01  0.38995204117E+02 -0.42790245296E+02  0.58212174332E+02  0.41800000000E+01 0. -1.
         -5    1    3    3    0  502  0.24119049122E+02 -0.46042135002E+02  0.44681160070E+02  0.68669390497E+02  0.41800000000E+01 0. -1.
        -11    1    1    2    0    0  0.75570422135E+01 -0.83894560530E+01  0.19754169999E+02  0.22753441327E+02  0.00000000000E+00 0. -1.
         11    1    1    2    0    0 -0.27254123003E+02  0.15436386938E+02 -0.85924711490E+02  0.91455591994E+02  0.00000000000E+00 0.  1.
</event>
<event>
 7    1  0.2522928E-009  0.1336750E+03  0.7561462E-02  0.1222102E+00
          1   -1    0    0  501    0  0.00000000000E+00  0.00000000000E+00  0.14319746918E+04  0.14319746918E+04  0.00000000000E+00 0. -1.
         -1   -1    0    0    0  501 -0.00000000000E+00 -0.00000000000E+00 -0.12816251315E+02  0.12816251315E+02  0.00000000000E+00 0.  1.
         25    2    1    2    0    0  0.59932588791E+02  0.43956804279E+02  0.84980424823E+03  0.86217091300E+03  0.12508919651E+03 0.  0.
          5    1    3    3  502    0 -0.38561635450E+02  0.13106074379E+02  0.29563602713E+03  0.29845753777E+03  0.41800000000E+01 0. -1.
         -5    1    3    3    0  502  0.98494224242E+02  0.30850729900E+02  0.55416822109E+03  0.56371337523E+03  0.41800000000E+01 0. -1.
        -11    1    1    2    0    0  0.13981522695E+01  0.28300028812E+02  0.15458037143E+03  0.15715577524E+03  0.00000000000E+00 0. -1.
         11    1    1    2    0    0 -0.61330741061E+02 -0.72256833090E+02  0.41477382083E+03  0.42546425487E+03  0.00000000000E+00 0.  1.
</event>
<event>
 7    1  0.2522928E-009  0.1147570E+03  0.7561462E-02  0.1252006E+00
         -2   -1    0    0    0  501 -0.00000000000E+00  0.00000000000E+00  0.29481384460E+02  0.29481384460E+02  0.00000000000E+00 0.  1.
          2   -1    0    0  501    0  0.00000000000E+00 -0.00000000000E+00 -0.51333302030E+03  0.51333302030E+03  0.00000000000E+00 0. -1.
         25    2    1    2    0    0  0.35406125691E+02 -0.42920373584E+02 -0.23831297552E+03  0.27483845482E+03  0.12508936704E+03 0.  0.
          5    1    3    3  502    0 -0.39402074546E+02 -0.27231008318E+02 -0.40964362788E+02  0.63163301934E+02  0.41800000000E+01 0.  1.
         -5    1    3    3    0  502  0.74808200238E+02 -0.15689365265E+02 -0.19734861273E+03  0.21167515289E+03  0.41800000000E+01 0.  1.
        -11    1    1    2    0    0 -0.25172671579E+02 -0.25425009424E+02 -0.58440902762E+02  0.68523234120E+02  0.00000000000E+00 0.  1.
         11    1    1    2    0    0 -0.10233454112E+02  0.68345383008E+02 -0.18709775756E+03  0.19945271581E+03  0.00000000000E+00 0. -1.
</event>
<event>
 7    1  0.2522928E-009  0.9425243E+02  0.7561462E-02  0.1292869E+00
         -1   -1    0    0    0  501 -0.00000000000E+00  0.00000000000E+00  0.25867469161E+02  0.25867469161E+02  0.00000000000E+00 0.  1.
          1   -1    0    0  501    0  0.00000000000E+00 -0.00000000000E+00 -0.66232502913E+03  0.66232502913E+03  0.00000000000E+00 0. -1.
         25    2    1    2    0    0  0.66746144118E+02  0.27510872878E+01 -0.44442813398E+03  0.46650429764E+03  0.12508907710E+03 0.  0.
          5    1    3    3  502    0  0.55762406776E+02  0.28051609559E+02 -0.82675525305E+02  0.10367764317E+03  0.41800000000E+01 0.  1.
         -5    1    3    3    0  502  0.10983737342E+02 -0.25300522272E+02 -0.36175260868E+03  0.36282665448E+03  0.41800000000E+01 0.  1.
        -11    1    1    2    0    0  0.88695413431E+01 -0.18764304252E+02 -0.82824484089E+01  0.22346517163E+02  0.00000000000E+00 0.  1.
         11    1    1    2    0    0 -0.75615685461E+02  0.16013216964E+02 -0.18374697758E+03  0.19934168349E+03  0.00000000000E+00 0. -1.
</event>
<event>
 6    1  0.2522928E-009  0.1155533E+03  0.7561462E-02  0.1250618E+00
          2   -1    0    0  501    0  0.00000000000E+00  0.00000000000E+00  0.21298712169E+03  0.21298712169E+03  0.00000000000E+00 0. -1.
         -2   -1    0    0    0  501 -0.00000000000E+00 -0.00000000000E+00 -0.70198976768E+02  0.70198976768E+02  0.00000000000E+00 0.  1.
          5    1    1    2  502    0  0.42316654563E+02 -0.55755033264E+02  0.23971128709E+02  0.74104051166E+02  0.41800000000E+01 0. -1.
         -5    1    1    2    0  502 -0.60693596064E+02  0.14425324490E+02  0.13190469116E+02  0.63900418350E+02  0.41800000000E+01 0. -1.
        -11    1    1    2    0    0 -0.18799281278E+01  0.66290010840E+02  0.81012803236E+02  0.10469467014E+03  0.00000000000E+00 0. -1.
         11    1    1    2    0    0  0.20256869629E+02 -0.24960302066E+02  0.24613743860E+02  0.40486958804E+02  0.00000000000E+00 0.  1.
</event>
<event>
 6    1  0.2522928E-009  0.1054113E+03  0.7561462E-02  0.1269311E+00
          3   -1    0    0  501    0  0.00000000000E+00  0.00000000000E+00  0.13489719290E+03  0.13489719290E+03  0.00000000000E+00 0. -1.
         -3   -1    0    0    0  501 -0.00000000000E+00 -0.00000000000E+00 -0.11186035736E+03  0.11186035736E+03  0.00000000000E+00 0.  1.
          5    1    1    2  502    0 -0.13387691680E+02 -0.48949483385E+02  0.58931067517E+02  0.77882124591E+02  0.41800000000E+01 0. -1.
         -5    1    1    2    0  502 -0.30178959029E+02  0.53201524221E+02 -0.13056657214E+02  0.62682696537E+02  0.41800000000E+01 0. -1.
        -11    1    1    2    0    0  0.11262678205E+02 -0.45118717020E+02 -0.27274719172E+02  0.53911565102E+02  0.00000000000E+00 0.  1.
         11    1    1    2    0    0  0.32303972504E+02  0.40866676183E+02  0.44371444058E+01  0.52281164029E+02  0.00000000000E+00 0. -1.
</event>
<event>
 7    1  0.2522928E-009  0.2055484E+03  0.7561462E-02  0.1145141E+00
          1   -1    0    0  501    0  0.00000000000E+00  0.00000000000E+00  0.35924578510E+04  0.35924578510E+04  0.00000000000E+00 0. -1.
         -1   -1    0    0    0  501 -0.00000000000E+00 -0.00000000000E+00 -0.24523726550E+02  0.24523726550E+02  0.00000000000E+00 0.  1.
         25    2    1    2    0    0  0.41134456321E+02  0.19912163802E+03  0.29588779054E+04  0.29684925375E+04  0.12509202896E+03 0.  0.
          5    1    3    3  502    0  0.29613457590E+02  0.67330037465E+02  0.43885651512E+03  0.44499753267E+03  0.41800000000E+01 0. -1.
         -5    1    3    3    0  502  0.11520998731E+02  0.13179160055E+03  0.25200213903E+04  0.25234950048E+04  0.41800000000E+01 0. -1.
        -11    1    1    2    0    0 -0.25951735789E+02 -0.63560741774E+02  0.98782736517E+02  0.12029750421E+03  0.00000000000E+00 0.  1.
         11    1    1    2    0    0 -0.15182720531E+02 -0.13556089624E+03  0.51027348257E+03  0.52819153591E+03  0.00000000000E+00 0. -1.
</event>
<event>
 7    1  0.2966039E-009  0.7895294E+02  0.7561462E-02  0.1332049E+00
         -1   -1    0    0    0  501 -0.00000000000E+00  0.00000000000E+00  0.18461260448E+03  0.18461260448E+03  0.00000000000E+00 0.  1.
          1   -1    0    0  501    0  0.00000000000E+00 -0.00000000000E+00 -0.83823651404E+02  0.83823651404E+02  0.00000000000E+00 0. -1.
         25    2    1    2    0    0 -0.15629321073E+02  0.44719367600E+02  0.97797750416E+02  0.16569797508E+03  0.12508925391E+03 0.  0.
          5    1    3    3  502    0 -0.25535806907E+02  0.28195820106E+02  0.12577753658E+03  0.13147069185E+03  0.41800000000E+01 0.  1.
         -5    1    3    3    0  502  0.99064858343E+01  0.16523547494E+02 -0.27979786168E+02  0.34227283231E+02  0.41800000000E+01 0.  1.
        -11    1    1    2    0    0 -0.35517062818E+02 -0.30553479245E+02 -0.10425998836E+02  0.47996648809E+02  0.00000000000E+00 0.  1.
         11    1    1    2    0    0  0.51146383890E+02 -0.14165888355E+02  0.13417201501E+02  0.54741632001E+02  0.00000000000E+00 0. -1.
</event>
<event>
 7    1  0.2522928E-009  0.9459926E+02  0.7561462E-02  0.1292081E+00
         -1   -1    0    0    0  501 -0.00000000000E+00  0.00000000000E+00  0.71505372943E+02  0.71505372943E+02  0.00000000000E+00 0.  1.
          1   -1    0    0  501    0  0.00000000000E+00 -0.00000000000E+00 -0.23392371135E+03  0.23392371135E+03  0.00000000000E+00 0. -1.
         25    2    1    2    0    0  0.18522633564E+02 -0.53039574734E+02 -0.14486548901E+03  0.19947243274E+03  0.12508779747E+03 0.  0.
          5    1    3    3  502    0  0.11055515535E+02 -0.77984326568E+02 -0.34657887840E+02  0.86153474704E+02  0.41800000000E+01 0. -1.
         -5    1    3    3    0  502  0.74671180294E+01  0.24944751834E+02 -0.11020760117E+03  0.11331895804E+03  0.41800000000E+01 0. -1.
        -11    1    1    2    0    0 -0.40316366362E+02  0.21717261396E+02 -0.40751058293E+02  0.61300061918E+02  0.00000000000E+00 0.  1.
         11    1    1    2    0    0  0.21793732798E+02  0.31322313338E+02  0.23198208891E+02  0.44656589635E+02  0.00000000000E+00 0. -1.
</event>
<event>
 7    1  0.2522928E-009  0.1356507E+03  0.7561462E-02  0.1219304E+00
          2   -1    0    0  501    0  0.00000000000E+00  0.00000000000E+00  0.31187374629E+03  0.31187374629E+03  0.00000000000E+00 0. -1.
         -2   -1    0    0    0  501 -0.00000000000E+00 -0.00000000000E+00 -0.15988325341E+03  0.15988325341E+03  0.00000000000E+00 0.  1.
         25    2    1    2    0    0  0.91529974481E+02 -0.85100908376E+01 -0.10239279077E+03  0.18596560258E+03  0.12509501935E+03 0.  0.
          5    1    3    3  502    0  0.80886952936E+02  0.46228070175E+02 -0.38059481838E+02  0.10072601543E+03  0.41800000000E+01 0. -1.
         -5    1    3    3    0  502  0.10643021545E+02 -0.54738161013E+02 -0.64333308936E+02  0.85239587149E+02  0.41800000000E+01 0. -1.
        -11    1    1    2    0    0 -0.37878776821E+02  0.43798993455E+02  0.17105028608E+03  0.18058613992E+03  0.00000000000E+00 0. -1.
         11    1    1    2    0    0 -0.53651197660E+02 -0.35288902618E+02  0.83332997564E+02  0.10520525719E+03  0.00000000000E+00 0.  1.
</event>
<event>
 7    1  0.2522928E-009  0.1540060E+03  0.7561462E-02  0.1195635E+00
         -2   -1    0    0    0  501 -0.00000000000E+00  0.00000000000E+00  0.62702524902E+02  0.62702524902E+02  0.00000000000E+00 0.  1.
          2   -1    0    0  501    0  0.00000000000E+00 -0.00000000000E+00 -0.58578167205E+03  0.58578167205E+03  0.00000000000E+00 0. -1.
         25    2    1    2    0    0  0.51106368212E+02  0.11772544563E+03 -0.42788253075E+03  0.46389176162E+03  0.12506384352E+03 0.  0.
          5    1    3    3  502    0  0.52907825846E+02 -0.73540070870E+01 -0.14386617927E+03  0.15351960590E+03  0.41800000000E+01 0.  1.
         -5    1    3    3    0  502 -0.18014576346E+01  0.12507945271E+03 -0.28401635148E+03  0.31037215572E+03  0.41800000000E+01 0.  1.
        -11    1    1    2    0    0 -0.23080775433E+02 -0.34990747041E+02  0.14509184547E+02  0.44357536104E+02  0.00000000000E+00 0.  1.
         11    1    1    2    0    0 -0.28025592779E+02 -0.82734698587E+02 -0.10970580094E+03  0.14023489923E+03  0.00000000000E+00 0. -1.
</event>
<event>
 7    1  0.2522928E-009  0.8366658E+02  0.7561462E-02  0.1318957E+00
          1   -1    0    0  501    0  0.00000000000E+00  0.00000000000E+00  0.17301234166E+03  0.17301234166E+03  0.00000000000E+00 0.  1.
         -1   -1    0    0    0  501 -0.00000000000E+00 -0.00000000000E+00 -0.22419982716E+03  0.22419982716E+03  0.00000000000E+00 0. -1.
         25    2    1    2    0    0  0.48814598950E+01  0.28787966753E+02  0.13647919192E+03  0.18742093795E+03  0.12508981764E+03 0.  0.
          5    1    3    3  502    0  0.42928042895E+02  0.19154482419E+02  0.14005278259E+03  0.14779027497E+03  0.41800000000E+01 0. -1.
         -5    1    3    3    0  502 -0.38046583000E+02  0.96334843338E+01 -0.35735906745E+01  0.39630662986E+02  0.41800000000E+01 0. -1.
        -11    1    1    2    0    0 -0.25256469291E+02 -0.46991383286E+02 -0.64858184838E+02  0.83980137441E+02  0.00000000000E+00 0.  1.
         11    1    1    2    0    0  0.20375009396E+02  0.18203416533E+02 -0.12280849257E+03  0.12581109343E+03  0.00000000000E+00 0. -1.
</event>
<event>
 7    1  0.2522928E-009  0.1517946E+03  0.7561462E-02  0.1198285E+00
         -1   -1    0    0    0  501 -0.00000000000E+00  0.00000000000E+00  0.86403216902E+03  0.86403216902E+03  0.00000000000E+00 0.  1.
          1   -1    0    0  501    0  0.00000000000E+00 -0.00000000000E+00 -0.49903992332E+02  0.49903992332E+02  0.00000000000E+00 0. -1.
         25    2    1    2    0    0 -0.93906448647E+02 -0.13050741241E+02  0.10285110520E+03  0.18765562867E+03  0.12509013625E+03 0.  0.
          5    1    3    3  502    0 -0.19485805208E+02  0.53370837358E+02  0.33439857375E+02  0.66059362290E+02  0.41800000000E+01 0. -1.
         -5    1    3    3    0  502 -0.74420643439E+02 -0.66421578599E+02  0.69411247825E+02  0.12159626638E+03  0.41800000000E+01 0. -1.
        -11    1    1    2    0    0  0.89660423317E+02 -0.36676757701E+02  0.48074432121E+03  0.49040725774E+03  0.00000000000E+00 0.  1.
         11    1    1    2    0    0  0.42460253299E+01  0.49727498942E+02  0.23053275028E+03  0.23587327494E+03  0.00000000000E+00 0. -1.
</event>
<event>
 7    1  0.2522928E-009  0.1029168E+03  0.7561462E-02  0.1274279E+00
         -1   -1    0    0    0  501 -0.00000000000E+00  0.00000000000E+00  0.78621163464E+02  0.78621163464E+02  0.00000000000E+00 0.  1.
          1   -1    0    0  501    0  0.00000000000E+00 -0.00000000000E+00 -0.19526326773E+03  0.19526326773E+03  0.00000000000E+00 0. -1.
         25    2    1    2    0    0 -0.30560332956E+02 -0.13172078115E+02 -0.11894904603E+03  0.17579526301E+03  0.12509061257E+03 0.  0.
          5    1    3    3  502    0 -0.24068807341E+02  0.50886117007E+02 -0.24788410448E+02  0.61649347794E+02  0.41800000000E+01 0.  1.
         -5    1    3    3    0  502 -0.64915256146E+01 -0.64058195122E+02 -0.94160635584E+02  0.11414591522E+03  0.41800000000E+01 0.  1.
        -11    1    1    2    0    0 -0.10678705564E+02  0.36124206896E+02 -0.23400374546E+02  0.44346032576E+02  0.00000000000E+00 0. -1.
         11    1    1    2    0    0  0.41239038520E+02 -0.22952128780E+02  0.25707316307E+02  0.53743135611E+02  0.00000000000E+00 0.  1.
</event>
<event>
 7    1  0.2522928E-009  0.8706963E+02  0.7561462E-02  0.1310107E+00
         -1   -1    0    0    0  501 -0.00000000000E+00  0.00000000000E+00  0.58095589412E+02  0.58095589412E+02  0.00000000000E+00 0.  1.
          1   -1    0    0  501    0  0.00000000000E+00 -0.00000000000E+00 -0.28037050287E+03  0.28037050287E+03  0.00000000000E+00 0. -1.
         25    2    1    2    0    0 -0.54288018756E+02  0.26441849419E+02 -0.16725734953E+03  0.21741145760E+03  0.12508541298E+03 0.  0.
          5    1    3    3  502    0  0.11773234893E+02  0.10286355669E+02  0.15473778875E+02  0.22390364121E+02  0.41800000000E+01 0.  1.
         -5    1    3    3    0  502 -0.66061253649E+02  0.16155493750E+02 -0.18273112841E+03  0.19502109348E+03  0.41800000000E+01 0.  1.
        -11    1    1    2    0    0 -0.15033500007E+02  0.14377831854E+01 -0.42746609601E+02  0.45335923673E+02  0.00000000000E+00 0. -1.
         11    1    1    2    0    0  0.69321518763E+02 -0.27879632604E+02 -0.12270954329E+02  0.75718711016E+02  0.00000000000E+00 0.  1.
</event>
<event>
 7    1  0.2522928E-009  0.1448847E+03  0.7561462E-02  0.1206903E+00
         -2   -1    0    0    0  501 -0.00000000000E+00  0.00000000000E+00  0.23721390543E+03  0.23721390543E+03  0.00000000000E+00 0.  1.
          2   -1    0    0  501    0  0.00000000000E+00 -0.00000000000E+00 -0.13679595516E+03  0.13679595516E+03  0.00000000000E+00 0. -1.
         25    2    1    2    0    0  0.83002395199E+02  0.91186607361E+02  0.12881892232E+03  0.21783117578E+03  0.12510680008E+03 0.  0.
          5    1    3    3  502    0  0.40804585270E+02 -0.19787461074E+02  0.74236607754E+02  0.87092503269E+02  0.41800000000E+01 0.  1.
         -5    1    3    3    0  502  0.42197809929E+02  0.11097406843E+03  0.54582314566E+02  0.13073867252E+03  0.41800000000E+01 0.  1.
        -11    1    1    2    0    0 -0.38335197166E+02 -0.59046821052E+02  0.29472195871E+02  0.76319884352E+02  0.00000000000E+00 0.  1.
         11    1    1    2    0    0 -0.44667198033E+02 -0.32139786308E+02 -0.57873167921E+02  0.79858800449E+02  0.00000000000E+00 0. -1.
</event>
<event>
 7    1  0.2522928E-009  0.1814324E+03  0.7561462E-02  0.1166424E+00
          2   -1    0    0  501    0  0.00000000000E+00  0.00000000000E+00  0.16372390275E+04  0.16372390275E+04  0.00000000000E+00 0. -1.
         -2   -1    0    0    0  501 -0.00000000000E+00 -0.00000000000E+00 -0.50877499055E+02  0.50877499055E+02  0.00000000000E+00 0.  1.
         25    2    1    2    0    0 -0.13162026148E+03 -0.66249794322E+02  0.14628234099E+04  0.14755380635E+04  0.12508924809E+03 0.  0.
          5    1    3    3  502    0 -0.78353755020E+02 -0.10024071628E+03  0.85498156583E+03  0.86440642202E+03  0.41800000000E+01 0. -1.
         -5    1    3    3    0  502 -0.53266506456E+02  0.33990921961E+02  0.60784184406E+03  0.61113164152E+03  0.41800000000E+01 0. -1.
        -11    1    1    2    0    0  0.71472002911E+02  0.83263619363E+02  0.69002516170E+02  0.12962416730E+03  0.00000000000E+00 0.  1.
         11    1    1    2    0    0  0.60148258565E+02 -0.17013825041E+02  0.54535602421E+02  0.82954295744E+02  0.00000000000E+00 0. -1.
</event>
<event>
 7    1  0.2624485E-009  0.1563091E+03  0.7561462E-02  0.1192928E+00
         -1   -1    0    0    0  501 -0.00000000000E+00  0.00000000000E+00  0.16986443654E+03  0.16986443654E+03  0.00000000000E+00 0.  1.
          1   -1    0    0  501    0  0.00000000000E+00 -0.00000000000E+00 -0.20617125166E+03  0.20617125166E+03  0.00000000000E+00 0. -1.
         25    2    1    2    0    0  0.12286894826E+03 -0.56412554746E+02 -0.89056632272E+02  0.20459541674E+03  0.12509614711E+03 0.  0.
          5    1    3    3  502    0  0.19570626814E+02 -0.44346301955E+02  0.21110794665E+02  0.53035289972E+02  0.41800000000E+01 0. -1.
         -5    1    3    3    0  502  0.10329832144E+03 -0.12066252791E+02 -0.11016742694E+03  0.15156012677E+03  0.41800000000E+01 0. -1.
        -11    1    1    2    0    0 -0.24397302736E+02 -0.22884573359E+02  0.25612763654E+02  0.42130104920E+02  0.00000000000E+00 0.  1.
         11    1    1    2    0    0 -0.98471645521E+02  0.79297128105E+02  0.27137053493E+02  0.12931016654E+03  0.00000000000E+00 0. -1.
</event>
<event>
 7    1  0.2522928E-009  0.1099491E+03  0.7561462E-02  0.1260664E+00
          1   -1    0    0  501    0  0.00000000000E+00  0.00000000000E+00  0.19230301870E+03  0.19230301870E+03  0.00000000000E+00 0. -1.
         -1   -1    0    0    0  501 -0.00000000000E+00 -0.00000000000E+00 -0.68325258053E+02  0.68325258053E+02  0.00000000000E+00 0.  1.
         25    2    1    2    0    0  0.78333027123E+01  0.32930462483E+02  0.85533208804E+02  0.15527260769E+03  0.12509147414E+03 0.  0.
          5    1    3    3  502    0  0.65230726187E+02  0.15269525134E+02  0.59451597167E+02  0.89666999740E+02  0.41800000000E+01 0.  1.
         -5    1    3    3    0  502 -0.57397423474E+02  0.17660937349E+02  0.26081611637E+02  0.65605607955E+02  0.41800000000E+01 0.  1.
        -11    1    1    2    0    0 -0.18168742215E+01  0.29650393274E+02 -0.33008852728E+01  0.29888839001E+02  0.00000000000E+00 0.  1.
         11    1    1    2    0    0 -0.60164284908E+01 -0.62580855757E+02  0.41745437121E+02  0.75466830061E+02  0.00000000000E+00 0. -1.
</event>
<event>
 7    1  0.2522928E-009  0.1083994E+03  0.7561462E-02  0.1263563E+00
         -2   -1    0    0    0  501 -0.00000000000E+00  0.00000000000E+00  0.32113772917E+03  0.32113772917E+03  0.00000000000E+00 0.  1.
          2   -1    0    0  501    0  0.00000000000E+00 -0.00000000000E+00 -0.48566351262E+02  0.48566351262E+02  0.00000000000E+00 0. -1.
         25    2    1    2    0    0 -0.42259122512E+02 -0.38195885842E+02  0.21045203377E+03  0.25135822809E+03  0.12508453614E+03 0.  0.
          5    1    3    3  502    0 -0.65429351422E+02 -0.61009690441E+02  0.91755975254E+02  0.12821783710E+03  0.41800000000E+01 0.  1.
         -5    1    3    3    0  502  0.23170228909E+02  0.22813804599E+02  0.11869605851E+03  0.12314039099E+03  0.41800000000E+01 0.  1.
        -11    1    1    2    0    0 -0.21391639590E+02  0.26562915718E+01  0.33902446282E+02  0.40175041919E+02  0.00000000000E+00 0.  1.
         11    1    1    2    0    0  0.63650762103E+02  0.35539594270E+02  0.28216897861E+02  0.78170810422E+02  0.00000000000E+00 0. -1.
</event>
<event>
 7    1  0.2522928E-009  0.1287780E+03  0.7561462E-02  0.1229280E+00
          2   -1    0    0  501    0  0.00000000000E+00  0.00000000000E+00  0.17634174048E+04  0.17634174048E+04  0.00000000000E+00 0. -1.
         -2   -1    0    0    0  501 -0.00000000000E+00 -0.00000000000E+00 -0.13759932482E+02  0.13759932482E+02  0.00000000000E+00 0.  1.
         25    2    1    2    0    0 -0.70810671129E+02  0.73723633773E+02  0.11899911884E+04  0.12009059479E+04  0.12508693732E+03 0.  0.
          5    1    3    3  502    0 -0.60084725852E+02  0.16356349143E+02  0.10037832142E+04  0.10057215906E+04  0.41800000000E+01 0. -1.
         -5    1    3    3    0  502 -0.10725945276E+02  0.57367284630E+02  0.18620797428E+03  0.19518435730E+03  0.41800000000E+01 0. -1.
        -11    1    1    2    0    0  0.92866810995E+02 -0.57128671162E+02  0.42138759618E+03  0.43526478823E+03  0.00000000000E+00 0.  1.
         11    1    1    2    0    0 -0.22056139866E+02 -0.16594962611E+02  0.13827868765E+03  0.14100660108E+03  0.00000000000E+00 0. -1.
</event>
<event>
 7    1  0.2522928E-009  0.1943601E+03  0.7561462E-02  0.1154587E+00
          2   -1    0    0  501    0  0.00000000000E+00  0.00000000000E+00  0.17432246893E+03  0.17432246893E+03  0.00000000000E+00 0. -1.
         -2   -1    0    0    0  501 -0.00000000000E+00 -0.00000000000E+00 -0.32791935716E+03  0.32791935716E+03  0.00000000000E+00 0.  1.
         25    2    1    2    0    0 -0.15255881795E+03  0.86534406659E+02 -0.20594331071E+03  0.29803144961E+03  0.12509077209E+03 0.  0.
          5    1    3    3  502    0 -0.38970066917E+02  0.91512305418E+02 -0.11696656712E+03  0.15359628375E+03  0.41800000000E+01 0. -1.
         -5    1    3    3    0  502 -0.11358875103E+03 -0.49778987586E+01 -0.88976743593E+02  0.14443516586E+03  0.41800000000E+01 0. -1.
        -11    1    1    2    0    0  0.80296095278E+02 -0.45926807808E+02 -0.19477575992E+02  0.94531003162E+02  0.00000000000E+00 0. -1.
         11    1    1    2    0    0  0.72262722673E+02 -0.40607598851E+02  0.71823998483E+02  0.10967937331E+03  0.00000000000E+00 0.  1.
</event>
<event>
 7    1  0.2522928E-009  0.1379543E+03  0.7561462E-02  0.1216108E+00
          2   -1    0    0  501    0  0.00000000000E+00  0.00000000000E+00  0.62215980968E+02  0.62215980968E+02  0.00000000000E+00 0. -1.
         -2   -1    0    0    0  501 -0.00000000000E+00 -0.00000000000E+00 -0.37825647980E+03  0.37825647980E+03  0.00000000000E+00 0.  1.
         25    2    1    2    0    0  0.94820881289E+02  0.52048806412E+02 -0.19725907934E+03  0.25740622934E+03  0.12508694874E+03 0.  0.
          5    1    3    3  502    0  0.41796725937E+02  0.69467959885E+02 -0.18216989512E+03  0.19943948164E+03  0.41800000000E+01 0. -1.
         -5    1    3    3    0  502  0.53024155352E+02 -0.17419153472E+02 -0.15089184220E+02  0.57966747700E+02  0.41800000000E+01 0. -1.
        -11    1    1    2    0    0 -0.42698748513E+02  0.22135709780E+02 -0.33651650342E+02  0.58699287413E+02  0.00000000000E+00 0. -1.
         11    1    1    2    0    0 -0.52122132776E+02 -0.74184516193E+02 -0.85129769153E+02  0.12436694402E+03  0.00000000000E+00 0.  1.
</event>
<event>
 7    1  0.2522928E-009  0.1164960E+03  0.7561462E-02  0.1248992E+00
         -1   -1    0    0    0  501 -0.00000000000E+00  0.00000000000E+00  0.31776046669E+02  0.31776046669E+02  0.00000000000E+00 0.  1.
          1   -1    0    0  501    0  0.00000000000E+00 -0.00000000000E+00 -0.53909696856E+03  0.53909696856E+03  0.00000000000E+00 0. -1.
         25    2    1    2    0    0  0.49225474193E+02 -0.26500181132E+01 -0.40082828626E+03  0.42277845713E+03  0.12509252112E+03 0.  0.
          5    1    3    3  502    0  0.16837521124E+02  0.59479885335E+02 -0.14943190109E+03  0.16176750088E+03  0.41800000000E+01 0.  1.
         -5    1    3    3    0  502  0.32387953069E+02 -0.62129903449E+02 -0.25139638517E+03  0.26101095625E+03  0.41800000000E+01 0.  1.
        -11    1    1    2    0    0  0.25036274341E+02  0.82783293090E+01 -0.41920883659E+02  0.49524804450E+02  0.00000000000E+00 0. -1.
         11    1    1    2    0    0 -0.74261748534E+02 -0.56283111958E+01 -0.64571751978E+02  0.98569753656E+02  0.00000000000E+00 0.  1.
</event>
<event>
 7    1  0.2522928E-009  0.5766774E+02  0.7561462E-02  0.1407888E+00
         -2   -1    0    0    0  501 -0.00000000000E+00  0.00000000000E+00  0.77096519961E+02  0.77096519961E+02  0.00000000000E+00 0.  1.
          2   -1    0    0  501    0  0.00000000000E+00 -0.00000000000E+00 -0.14532779255E+03  0.14532779255E+03  0.00000000000E+00 0. -1.
         25    2    1    2    0    0 -0.34785941860E+02 -0.11420614331E+02 -0.43341013342E+02  0.13735953842E+03  0.12509479276E+03 0.  0.
          5    1    3    3  502    0 -0.32025938167E+02 -0.98472447020E+01 -0.87032947295E+02  0.93353281992E+02  0.41800000000E+01 0. -1.
         -5    1    3    3    0  502 -0.27600036925E+01 -0.15733696294E+01  0.43691933953E+02  0.44006256430E+02  0.41800000000E+01 0. -1.
        -11    1    1    2    0    0  0.21741522134E+02  0.39651488184E+02 -0.28962154263E+02  0.53700471874E+02  0.00000000000E+00 0. -1.
         11    1    1    2    0    0  0.13044419726E+02 -0.28230873852E+02  0.40718950174E+01  0.31364302216E+02  0.00000000000E+00 0.  1.
</event>
<event>
 7    1  0.2522928E-009  0.1212071E+03  0.7561462E-02  0.1241119E+00
         -1   -1    0    0    0  501 -0.00000000000E+00  0.00000000000E+00  0.92881473550E+02  0.92881473550E+02  0.00000000000E+00 0.  1.
          1   -1    0    0  501    0  0.00000000000E+00 -0.00000000000E+00 -0.22249490572E+03  0.22249490572E+03  0.00000000000E+00 0. -1.
         25    2    1    2    0    0  0.13112318923E+02 -0.57937753713E+02  0.69400771099E+01  0.13865191601E+03  0.12508985942E+03 0.  0.
          5    1    3    3  502    0 -0.26930575061E+02  0.29373457908E+02 -0.93237585866E+01  0.41139528154E+02  0.41800000000E+01 0. -1.
         -5    1    3    3    0  502  0.40042893984E+02 -0.87311211620E+02  0.16263835697E+02  0.97512387853E+02  0.41800000000E+01 0. -1.
        -11    1    1    2    0    0 -0.50702413869E+02  0.39821760411E+02 -0.10926038259E+03  0.12686346432E+03  0.00000000000E+00 0. -1.
         11    1    1    2    0    0  0.37590094946E+02  0.18115993301E+02 -0.27293126686E+02  0.49860998944E+02  0.00000000000E+00 0.  1.
</event>
<event>
 7    1  0.2522928E-009  0.1299105E+03  0.7561462E-02  0.1227589E+00
         -2   -1    0    0    0  501 -0.00000000000E+00  0.00000000000E+00  0.63671772182E+02  0.63671772182E+02  0.00000000000E+00 0.  1.
          2   -1    0    0  501    0  0.00000000000E+00 -0.00000000000E+00 -0.41042072577E+03  0.41042072577E+03  0.00000000000E+00 0. -1.
         25    2    1    2    0    0  0.32353980645E+02 -0.91531738720E+02 -0.29587912821E+03  0.33558434144E+03  0.12509017729E+03 0.  0.
          5    1    3    3  502    0 -0.36225640282E+02  0.62598018099E+01 -0.93434957990E+02  0.10049400931E+03  0.41800000000E+01 0.  1.
         -5    1    3    3    0  502  0.68579620927E+02 -0.97791540530E+02 -0.20244417022E+03  0.23509033213E+03  0.41800000000E+01 0.  1.
        -11    1    1    2    0    0 -0.26337512317E+02  0.24390686620E+02  0.19674259305E+02  0.40934662916E+02  0.00000000000E+00 0.  1.
         11    1    1    2    0    0 -0.60164683281E+01  0.67141052100E+02 -0.70544084680E+02  0.97573493591E+02  0.00000000000E+00 0. -1.
</event>
<event>
 7    1  0.2522928E-009  0.1284142E+03  0.7561462E-02  0.1229828E+00
         -2   -1    0    0    0  501 -0.00000000000E+00  0.00000000000E+00  0.70364330919E+02  0.70364330919E+02  0.00000000000E+00 0. -1.
          2   -1    0    0  501    0  0.00000000000E+00 -0.00000000000E+00 -0.29213971312E+03  0.29213971312E+03  0.00000000000E+00 0.  1.
         25    2    1    2    0    0 -0.60953565209E+02 -0.69493900818E+02 -0.14303721638E+03  0.21131635228E+03  0.12510082376E+03 0.  0.
          5    1    3    3  502    0  0.27454751437E+02 -0.46466826754E+02 -0.91573031575E+02  0.10637679200E+03  0.41800000000E+01 0. -1.
         -5    1    3    3    0  502 -0.88408316646E+02 -0.23027074064E+02 -0.51464184808E+02  0.10493956027E+03  0.41800000000E+01 0. -1.
        -11    1    1    2    0    0 -0.81034931994E+01  0.31288025590E+02  0.86289912689E+01  0.33452453388E+02  0.00000000000E+00 0. -1.
         11    1    1    2    0    0  0.69057058409E+02  0.38205875227E+02 -0.87367157086E+02  0.11773523837E+03  0.00000000000E+00 0.  1.
</event>
<event>
 7    1  0.2522928E-009  0.1087293E+03  0.7561462E-02  0.1262941E+00
          3   -1    0    0  501    0  0.00000000000E+00  0.00000000000E+00  0.18774575366E+03  0.18774575366E+03  0.00000000000E+00 0. -1.
         -3   -1    0    0    0  501 -0.00000000000E+00 -0.00000000000E+00 -0.73641229051E+02  0.73641229051E+02  0.00000000000E+00 0.  1.
         25    2    1    2    0    0  0.40870322554E+02  0.10054262779E+02  0.85200915230E+02  0.15709162892E+03  0.12508841854E+03 0.  0.
          5    1    3    3  502    0  0.84389484288E+02  0.15697616733E+02  0.43125043904E+02  0.96152181677E+02  0.41800000000E+01 0. -1.
         -5    1    3    3    0  502 -0.43519161734E+02 -0.56433539541E+01  0.42075871326E+02  0.60939447239E+02  0.41800000000E+01 0. -1.
        -11    1    1    2    0    0  0.19858252862E+02 -0.17224194102E+02 -0.13819867126E+02  0.29698683415E+02  0.00000000000E+00 0.  1.
         11    1    1    2    0    0 -0.60728575416E+02  0.71699313225E+01  0.42723476506E+02  0.74596670381E+02  0.00000000000E+00 0. -1.
</event>
<event>
 7    1  0.2522928E-009  0.9459611E+02  0.7561462E-02  0.1292088E+00
         -3   -1    0    0    0  501 -0.00000000000E+00  0.00000000000E+00  0.69039668987E+02  0.69039668987E+02  0.00000000000E+00 0.  1.
          3   -1    0    0  501    0  0.00000000000E+00 -0.00000000000E+00 -0.19825327487E+03  0.19825327487E+03  0.00000000000E+00 0. -1.
         25    2    1    2    0    0  0.13941888903E+02  0.39324806130E+02 -0.57579023316E+02  0.14392279092E+03  0.12513036873E+03 0.  0.
          5    1    3    3  502    0  0.25983626293E+01  0.68801341442E+02 -0.79498479236E+02  0.10525139749E+03  0.41800000000E+01 0.  1.
         -5    1    3    3    0  502  0.11343526274E+02 -0.29476535312E+02  0.21919455920E+02  0.38671393435E+02  0.41800000000E+01 0.  1.
        -11    1    1    2    0    0  0.32268804003E+02 -0.21756804659E+02 -0.33419669322E+01  0.39061528435E+02  0.00000000000E+00 0.  1.
         11    1    1    2    0    0 -0.46210692906E+02 -0.17568001471E+02 -0.68292615635E+02  0.84308624498E+02  0.00000000000E+00 0. -1.
</event>
<event>
 7    1  0.2522928E-009  0.1816620E+03  0.7561462E-02  0.1166204E+00
         -2   -1    0    0    0  501 -0.00000000000E+00  0.00000000000E+00  0.72763220080E+02  0.72763220080E+02  0.00000000000E+00 0.  1.
          2   -1    0    0  501    0  0.00000000000E+00 -0.00000000000E+00 -0.55649183394E+03  0.55649183394E+03  0.00000000000E+00 0. -1.
         25    2    1    2    0    0  0.89636189992E+02 -0.11937606285E+03 -0.38328367227E+03  0.42992981935E+03  0.12509190701E+03 0.  0.
          5    1    3    3  502    0  0.48071641856E+02  0.16220965932E+02 -0.76047722501E+02  0.91513556286E+02  0.41800000000E+01 0.  1.
         -5    1    3    3    0  502  0.41564548136E+02 -0.13559702878E+03 -0.30723594977E+03  0.33841626306E+03  0.41800000000E+01 0.  1.
        -11    1    1    2    0    0 -0.97721737044E+02  0.69282947563E+02 -0.57620610506E+02  0.13292779795E+03  0.00000000000E+00 0. -1.
         11    1    1    2    0    0  0.80855470514E+01  0.50093115283E+02 -0.42824331086E+02  0.66397436719E+02  0.00000000000E+00 0.  1.
</event>
<event>
 7    1  0.2522928E-009  0.2162424E+03  0.7561462E-02  0.1136716E+00
          1   -1    0    0  501    0  0.00000000000E+00  0.00000000000E+00  0.12531779115E+04  0.12531779115E+04  0.00000000000E+00 0. -1.
         -1   -1    0    0    0  501 -0.00000000000E+00 -0.00000000000E+00 -0.41954124785E+02  0.41954124785E+02  0.00000000000E+00 0.  1.
         25    2    1    2    0    0 -0.85906196672E+01  0.18797620368E+03  0.83455015428E+03  0.86459098175E+03  0.12503900916E+03 0.  0.
          5    1    3    3  502    0  0.57386476829E+02  0.91511491246E+02  0.36276001587E+03  0.37852326516E+03  0.41800000000E+01 0. -1.
         -5    1    3    3    0  502 -0.65977096496E+02  0.96464712433E+02  0.47179013842E+03  0.48606771659E+03  0.41800000000E+01 0. -1.
        -11    1    1    2    0    0 -0.25072017858E+02 -0.16450846553E+03  0.28348985926E+03  0.32872198225E+03  0.00000000000E+00 0.  1.
         11    1    1    2    0    0  0.33662637525E+02 -0.23467738148E+02  0.93183773174E+02  0.10181907229E+03  0.00000000000E+00 0. -1.
</event>
<event>
 6    1  0.2522928E-009  0.1074521E+03  0.7561462E-02  0.1265362E+00
         -2   -1    0    0    0  501 -0.00000000000E+00  0.00000000000E+00  0.13964920977E+03  0.13964920977E+03  0.00000000000E+00 0. -1.
          2   -1    0    0  501    0  0.00000000000E+00 -0.00000000000E+00 -0.13812397977E+03  0.13812397977E+03  0.00000000000E+00 0.  1.
          5    1    1    2  502    0  0.25599125215E+02 -0.27512912997E+02  0.68776715269E+02  0.78485569097E+02  0.41800000000E+01 0. -1.
         -5    1    1    2    0  502  0.35812814988E+02  0.62290695567E+02 -0.17191135436E+02  0.73997945980E+02  0.41800000000E+01 0. -1.
        -11    1    1    2    0    0 -0.72251909684E+02 -0.38589845991E+01 -0.56620373312E+02  0.91875442253E+02  0.00000000000E+00 0.  1.
         11    1    1    2    0    0  0.10839969481E+02 -0.30918797972E+02  0.65600234717E+01  0.33414232212E+02  0.00000000000E+00 0. -1.
</event>
<event>
 6    1  0.2522928E-009  0.1428904E+03  0.7561462E-02  0.1209492E+00
          1   -1    0    0  501    0  0.00000000000E+00  0.00000000000E+00  0.51478846929E+02  0.51478846929E+02  0.00000000000E+00 0. -1.
         -1   -1    0    0    0  501 -0.00000000000E+00 -0.00000000000E+00 -0.53784876591E+03  0.53784876591E+03  0.00000000000E+00 0.  1.
          5    1    1    2  502    0 -0.59378960586E+01  0.12320038313E+03 -0.25588318440E+03  0.28409024881E+03  0.41800000000E+01 0. -1.
         -5    1    1    2    0  502 -0.35644409648E+02 -0.39993425436E+01 -0.13406683838E+02  0.38519219248E+02  0.41800000000E+01 0. -1.
        -11    1    1    2    0    0  0.19545783457E+02 -0.58459861092E+02 -0.18415625851E+03  0.19419866260E+03  0.00000000000E+00 0. -1.
         11    1    1    2    0    0  0.22036522249E+02 -0.60741179494E+02 -0.32923792234E+02  0.72519482171E+02  0.00000000000E+00 0.  1.
</event>
<event>
 7    1  0.2522928E-009  0.1255870E+03  0.7561462E-02  0.1234155E+00
         -2   -1    0    0    0  501 -0.00000000000E+00  0.00000000000E+00  0.28718517094E+03  0.28718517094E+03  0.00000000000E+00 0.  1.
          2   -1    0    0  501    0  0.00000000000E+00 -0.00000000000E+00 -0.67904685867E+02  0.67904685867E+02  0.00000000000E+00 0. -1.
         25    2    1    2    0    0  0.57157350825E+02 -0.54483220440E+02  0.16607414252E+03  0.22240383939E+03  0.12508981933E+03 0.  0.
          5    1    3    3  502    0  0.96286215865E+02 -0.45163692627E+02  0.13167806989E+03  0.16931444412E+03  0.41800000000E+01 0.  1.
         -5    1    3    3    0  502 -0.39128865040E+02 -0.93195278132E+01  0.34396072634E+02  0.53089395274E+02  0.41800000000E+01 0.  1.
        -11    1    1    2    0    0 -0.16262118127E+02  0.60784052961E+02 -0.28804663036E+01  0.62987734254E+02  0.00000000000E+00 0. -1.
         11    1    1    2    0    0 -0.40895232699E+02 -0.63008325215E+01  0.56086808855E+02  0.69698283160E+02  0.00000000000E+00 0.  1.
</event>
<event>
 7    1  0.2522928E-009  0.1255885E+03  0.7561462E-02  0.1234152E+00
          4   -1    0    0  501    0  0.00000000000E+00  0.00000000000E+00  0.29157883067E+02  0.29157883067E+02  0.00000000000E+00 0. -1.
         -4   -1    0    0    0  501 -0.00000000000E+00 -0.00000000000E+00 -0.91502802375E+03  0.91502802375E+03  0.00000000000E+00 0.  1.
         25    2    1    2    0    0  0.99564828325E+02  0.16681906760E+01 -0.68376032993E+03  0.70220437195E+03  0.12508738266E+03 0.  0.
          5    1    3    3  502    0  0.48908405213E+02 -0.54288879563E+02 -0.20858079790E+03  0.22104917145E+03  0.41800000000E+01 0. -1.
         -5    1    3    3    0  502  0.50656423113E+02  0.55957070239E+02 -0.47517953202E+03  0.48115520050E+03  0.41800000000E+01 0. -1.
        -11    1    1    2    0    0 -0.45000263289E+02 -0.12624021046E+02 -0.17294531479E+03  0.17914929950E+03  0.00000000000E+00 0.  1.
         11    1    1    2    0    0 -0.54564565036E+02  0.10955830370E+02 -0.29164495969E+02  0.62832235372E+02  0.00000000000E+00 0. -1.
</event>
<event>
 7    1  0.2522928E-009  0.1188339E+03  0.7561462E-02  0.1245033E+00
          1   -1    0    0  501    0  0.00000000000E+00  0.00000000000E+00  0.27659348816E+03  0.27659348816E+03  0.00000000000E+00 0. -1.
         -1   -1    0    0    0  501 -0.00000000000E+00 -0.00000000000E+00 -0.55602573076E+02  0.55602573076E+02  0.00000000000E+00 0.  1.
         25    2    1    2    0    0  0.61229390439E+02  0.44892935999E+01  0.10518671383E+03  0.17457810269E+03  0.12507628536E+03 0.  0.
          5    1    3    3  502    0 -0.13328556458E+02  0.46499970919E+02  0.16542124726E+02  0.51293391418E+02  0.41800000000E+01 0. -1.
         -5    1    3    3    0  502  0.74557946897E+02 -0.42010677319E+02  0.88644589107E+02  0.12328471127E+03  0.41800000000E+01 0. -1.
        -11    1    1    2    0    0 -0.72510543821E+02  0.21058248939E+02  0.64940704368E+02  0.99591786295E+02  0.00000000000E+00 0.  1.
         11    1    1    2    0    0  0.11281153383E+02 -0.25547542539E+02  0.50863496886E+02  0.58026172258E+02  0.00000000000E+00 0. -1.
</event>
<event>
 7    1  0.2522928E-009  0.9874867E+02  0.7561462E-02  0.1282950E+00
          2   -1    0    0  501    0  0.00000000000E+00  0.00000000000E+00  0.19611973794E+02  0.19611973794E+02  0.00000000000E+00 0. -1.
         -2   -1    0    0    0  501 -0.00000000000E+00 -0.00000000000E+00 -0.71757544879E+03  0.71757544879E+03  0.00000000000E+00 0.  1.
         25    2    1    2    0    0 -0.35414022710E+02  0.30429936996E+02 -0.43145887432E+03  0.45164647541E+03  0.12509054502E+03 0.  0.
          5    1    3    3  502    0 -0.17926150317E+02 -0.36191722735E+02 -0.30406418124E+03  0.30676324156E+03  0.41800000000E+01 0.  1.
         -5    1    3    3    0  502 -0.17487872393E+02  0.66621659731E+02 -0.12739469308E+03  0.14488323385E+03  0.41800000000E+01 0.  1.
        -11    1    1    2    0    0  0.40484465513E+02  0.14251790102E+02 -0.57491947571E+02  0.71745588746E+02  0.00000000000E+00 0. -1.
         11    1    1    2    0    0 -0.50704428027E+01 -0.44681727098E+02 -0.20901265310E+03  0.21379535842E+03  0.00000000000E+00 0.  1.
</event>
<event>
 7    1  0.2522928E-009  0.9600150E+02  0.7561462E-02  0.1288936E+00
         -1   -1    0    0    0  501 -0.00000000000E+00  0.00000000000E+00  0.49733299649E+02  0.49733299649E+02  0.00000000000E+00 0.  1.
          1   -1    0    0  501    0  0.00000000000E+00 -0.00000000000E+00 -0.32643693521E+03  0.32643693521E+03  0.00000000000E+00 0. -1.
         25    2    1    2    0    0  0.60872262798E+02 -0.26776623008E+02 -0.13446435536E+03  0.19531186714E+03  0.12507454844E+03 0.  0.
          5    1    3    3  502    0  0.17195028647E+01  0.19860201709E+02  0.16718635093E+02  0.26350891093E+02  0.41800000000E+01 0.  1.
         -5    1    3    3    0  502  0.59152759934E+02 -0.46636824717E+02 -0.15118299045E+03  0.16896097605E+03  0.41800000000E+01 0.  1.
        -11    1    1    2    0    0 -0.76138167106E+02  0.16841040259E+02 -0.65048659342E+02  0.10154786659E+03  0.00000000000E+00 0.  1.
         11    1    1    2    0    0  0.15265904308E+02  0.99355827490E+01 -0.77190620861E+02  0.79310501119E+02  0.00000000000E+00 0. -1.
</event>
<event>
 7    1  0.2522928E-009  0.9799603E+02  0.7561462E-02  0.1284567E+00
         -2   -1    0    0    0  501 -0.00000000000E+00  0.00000000000E+00  0.38934773165E+02  0.38934773165E+02  0.00000000000E+00 0.  1.
          2   -1    0    0  501    0  0.00000000000E+00 -0.00000000000E+00 -0.41653907472E+03  0.41653907472E+03  0.00000000000E+00 0. -1.
         25    2    1    2    0    0 -0.20434324999E+01  0.55742527490E+02 -0.15282963676E+03  0.20520568816E+03  0.12506426985E+03 0.  0.
          5    1    3    3  502    0  0.58879710980E+02  0.15769924024E+02 -0.90685967399E+02  0.10934773867E+03  0.41800000000E+01 0.  1.
         -5    1    3    3    0  502 -0.60923143479E+02  0.39972603466E+02 -0.62143669364E+02  0.95857949494E+02  0.41800000000E+01 0.  1.
        -11    1    1    2    0    0  0.14364909602E+02 -0.34135723120E+02 -0.22219645072E+03  0.22526176092E+03  0.00000000000E+00 0. -1.
         11    1    1    2    0    0 -0.12321477102E+02 -0.21606804371E+02 -0.25782140695E+01  0.25006398799E+02  0.00000000000E+00 0.  1.
</event>
<event>
 7    1  0.2522928E-009  0.7441461E+02  0.7561462E-02  0.1345693E+00
         -2   -1    0    0    0  501 -0.00000000000E+00  0.00000000000E+00  0.53917298455E+02  0.53917298455E+02  0.00000000000E+00 0.  1.
          2   -1    0    0  501    0  0.00000000000E+00 -0.00000000000E+00 -0.27172355960E+03  0.27172355960E+03  0.00000000000E+00 0. -1.
         25    2    1    2    0    0  0.70491586171E+01  0.10541457131E+02 -0.96680631864E+02  0.15860204456E+03  0.12508657404E+03 0.  0.
          5    1    3    3  502    0  0.80941960047E+01  0.33866221229E+02  0.19430427125E+02  0.40093027418E+02  0.41800000000E+01 0.  1.
         -5    1    3    3    0  502 -0.10450373877E+01 -0.23324764098E+02 -0.11611105899E+03  0.11850901714E+03  0.41800000000E+01 0.  1.
        -11    1    1    2    0    0  0.39331865804E+02 -0.17661808764E+02 -0.70484837864E+01  0.43687713149E+02  0.00000000000E+00 0.  1.
         11    1    1    2    0    0 -0.46381024421E+02  0.71203516336E+01 -0.11407714550E+03  0.12335110035E+03  0.00000000000E+00 0. -1.
</event>
<event>
 7    1  0.2522928E-009  0.1179213E+03  0.7561462E-02  0.1246566E+00
         -1   -1    0    0    0  501 -0.00000000000E+00  0.00000000000E+00  0.23399339884E+02  0.23399339884E+02  0.00000000000E+00 0.  1.
          1   -1    0    0  501    0  0.00000000000E+00 -0.00000000000E+00 -0.96722979819E+03  0.96722979819E+03  0.00000000000E+00 0. -1.
         25    2    1    2    0    0  0.75735872580E+02 -0.61465133707E+02 -0.63300456382E+03  0.65257711522E+03  0.12509287924E+03 0.  0.
          5    1    3    3  502    0  0.40560891887E+02  0.12693776387E+02 -0.59645348015E+02  0.73357738852E+02  0.41800000000E+01 0. -1.
         -5    1    3    3    0  502  0.35174980693E+02 -0.74158910095E+02 -0.57335921581E+03  0.57921937637E+03  0.41800000000E+01 0. -1.
        -11    1    1    2    0    0 -0.39116572534E+01  0.33734659794E+02 -0.25356657842E+02  0.42382643038E+02  0.00000000000E+00 0.  1.
         11    1    1    2    0    0 -0.71824215326E+02  0.27730473913E+02 -0.28546923664E+03  0.29566937981E+03  0.00000000000E+00 0. -1.
</event>
<event>
 7    1  0.2522928E-009  0.1946411E+03  0.7561462E-02  0.1154341E+00
          1   -1    0    0  501    0  0.00000000000E+00  0.00000000000E+00  0.64383802865E+03  0.64383802865E+03  0.00000000000E+00 0. -1.
         -1   -1    0    0    0  501 -0.00000000000E+00 -0.00000000000E+00 -0.72820345512E+02  0.72820345512E+02  0.00000000000E+00 0.  1.
         25    2    1    2    0    0 -0.13010527209E+03  0.12218343204E+03  0.21114796975E+03  0.30345600187E+03  0.12508360024E+03 0.  0.
          5    1    3    3  502    0 -0.14429750745E+03  0.80610996544E+02  0.19684180989E+03  0.25706822818E+03  0.41800000000E+01 0. -1.
         -5    1    3    3    0  502  0.14192235361E+02  0.41572435499E+02  0.14306159867E+02  0.46387773691E+02  0.41800000000E+01 0. -1.
        -11    1    1    2    0    0  0.46841940827E+02 -0.58770578584E+02  0.25173020763E+03  0.26270943219E+03  0.00000000000E+00 0. -1.
         11    1    1    2    0    0  0.83263331261E+02 -0.63412853458E+02  0.10813950576E+03  0.15049294011E+03  0.00000000000E+00 0.  1.
</event>
<event>
 7    1  0.2522928E-009  0.7467802E+02  0.7561462E-02  0.1344871E+00
         -2   -1    0    0    0  501 -0.00000000000E+00  0.00000000000E+00  0.12781995572E+02  0.12781995572E+02  0.00000000000E+00 0. -1.
          2   -1    0    0  501    0  0.00000000000E+00 -0.00000000000E+00 -0.10935960243E+04  0.10935960243E+04  0.00000000000E+00 0.  1.
         25    2    1    2    0    0  0.31077260429E+02 -0.34749658977E+02 -0.62735991886E+03  0.64140522022E+03  0.12508738471E+03 0.  0.
          5    1    3    3  502    0  0.18806610338E+02 -0.23600197137E+02 -0.26722086652E+02  0.40524069543E+02  0.41800000000E+01 0. -1.
         -5    1    3    3    0  502  0.12270650091E+02 -0.11149461840E+02 -0.60063783221E+03  0.60088115068E+03  0.41800000000E+01 0. -1.
        -11    1    1    2    0    0 -0.27994170406E+02 -0.27632136083E+02 -0.14381011972E+03  0.14909245137E+03  0.00000000000E+00 0. -1.
         11    1    1    2    0    0 -0.30830900235E+01  0.62381795060E+02 -0.30964399011E+03  0.31588034825E+03  0.00000000000E+00 0.  1.
</event>
<event>
 7    1  0.2522928E-009  0.7944640E+02  0.7561462E-02  0.1330630E+00
         -1   -1    0    0    0  501 -0.00000000000E+00  0.00000000000E+00  0.22224768969E+02  0.22224768969E+02  0.00000000000E+00 0.  1.
          1   -1    0    0  501    0  0.00000000000E+00 -0.00000000000E+00 -0.72265652378E+03  0.72265652378E+03  0.00000000000E+00 0. -1.
         25    2    1    2    0    0  0.47732917313E+02 -0.51447033904E+01 -0.26236169785E+03  0.29459518247E+03  0.12509101352E+03 0.  0.
          5    1    3    3  502    0  0.43509318785E+02  0.69621532836E+01 -0.14804590864E+02  0.46670983600E+02  0.41800000000E+01 0.  1.
         -5    1    3    3    0  502  0.42235985274E+01 -0.12106856674E+02 -0.24755710699E+03  0.24792419887E+03  0.41800000000E+01 0.  1.
        -11    1    1    2    0    0 -0.52429742164E+02  0.40018309354E+02 -0.23036158683E+03  0.23961803695E+03  0.00000000000E+00 0.  1.
         11    1    1    2    0    0  0.46968248512E+01 -0.34873605964E+02 -0.20770847013E+03  0.21066807333E+03  0.00000000000E+00 0. -1.
</event>
<event>
 7    1  0.2522928E-009  0.1499488E+03  0.7561462E-02  0.1200536E+00
         -1   -1    0    0    0  501 -0.00000000000E+00  0.00000000000E+00  0.63010865811E+02  0.63010865811E+02  0.00000000000E+00 0.  1.
          1   -1    0    0  501    0  0.00000000000E+00 -0.00000000000E+00 -0.39186528036E+03  0.39186528036E+03  0.00000000000E+00 0. -1.
         25    2    1    2    0    0 -0.78942725505E+01  0.10302523476E+03 -0.24441522064E+03  0.29336332130E+03  0.12508684849E+03 0.  0.
          5    1    3    3  502    0  0.14994358222E+02 -0.26448937515E+02 -0.47279808917E+02  0.56366921199E+02  0.41800000000E+01 0. -1.
         -5    1    3    3    0  502 -0.22888630773E+02  0.12947417227E+03 -0.19713541172E+03  0.23699640010E+03  0.41800000000E+01 0. -1.
        -11    1    1    2    0    0 -0.41702717888E+02 -0.47520435408E+02 -0.37326484383E+02  0.73420534573E+02  0.00000000000E+00 0.  1.
         11    1    1    2    0    0  0.49596990439E+02 -0.55504799351E+02 -0.47112709527E+02  0.88092290301E+02  0.00000000000E+00 0. -1.
</event>
<event>
 7    1  0.2522928E-009  0.1968945E+03  0.7561462E-02  0.1152386E+00
          1   -1    0    0  501    0  0.00000000000E+00  0.00000000000E+00  0.59011086935E+03  0.59011086935E+03  0.00000000000E+00 0. -1.
         -1   -1    0    0    0  501 -0.00000000000E+00 -0.00000000000E+00 -0.90916055911E+02  0.90916055911E+02  0.00000000000E+00 0.  1.
         25    2    1    2    0    0 -0.82060726984E+02  0.15623855788E+03  0.41159894731E+03  0.46497877302E+03  0.12508843294E+03 0.  0.
          5    1    3    3  502    0  0.17433683486E+02  0.92253501121E+02  0.13898223416E+03  0.16777418038E+03  0.41800000000E+01 0.  1.
         -5    1    3    3    0  502 -0.99494410470E+02  0.63985056761E+02  0.27261671315E+03  0.29720459265E+03  0.41800000000E+01 0.  1.
        -11    1    1    2    0    0  0.52320434181E+02 -0.54932734535E+02 -0.44292170872E+01  0.75991125274E+02  0.00000000000E+00 0. -1.
         11    1    1    2    0    0  0.29740292803E+02 -0.10130582335E+03  0.92025083217E+02  0.14005702696E+03  0.00000000000E+00 0.  1.
</event>
<event>
 7    1  0.2522928E-009  0.1416391E+03  0.7561462E-02  0.1211140E+00
         -4   -1    0    0    0  501 -0.00000000000E+00  0.00000000000E+00  0.87956547639E+02  0.87956547639E+02  0.00000000000E+00 0.  1.
          4   -1    0    0  501    0  0.00000000000E+00 -0.00000000000E+00 -0.44472263660E+03  0.44472263660E+03  0.00000000000E+00 0. -1.
         25    2    1    2    0    0  0.12720934722E+03 -0.19431895508E+02 -0.35296738837E+02  0.18290836555E+03  0.12509913602E+03 0.  0.
          5    1    3    3  502    0  0.12990615250E+03 -0.30659356241E+01  0.13968763552E+02  0.13075781879E+03  0.41800000000E+01 0. -1.
         -5    1    3    3    0  502 -0.26968052833E+01 -0.16365959884E+02 -0.49265502389E+02  0.52150546760E+02  0.41800000000E+01 0. -1.
        -11    1    1    2    0    0 -0.88481939697E+02  0.33995959527E+02 -0.24726454690E+03  0.26481037569E+03  0.00000000000E+00 0. -1.
         11    1    1    2    0    0 -0.38727407524E+02 -0.14564064019E+02 -0.74204803222E+02  0.84960443004E+02  0.00000000000E+00 0.  1.
</event>
<event>
 7    1  0.2522928E-009  0.1299845E+03  0.7561462E-02  0.1227479E+00
          2   -1    0    0  501    0  0.00000000000E+00  0.00000000000E+00  0.18703100712E+03  0.18703100712E+03  0.00000000000E+00 0.  1.
         -2   -1    0    0    0  501 -0.00000000000E+00 -0.00000000000E+00 -0.10079189825E+03  0.10079189825E+03  0.00000000000E+00 0. -1.
         25    2    1    2    0    0  0.26717673326E+02 -0.72464939175E+02  0.12510779300E+02  0.14754117688E+03  0.12508748059E+03 0.  0.
          5    1    3    3  502    0 -0.22147407596E+02 -0.91307266236E+02  0.13383578470E+02  0.94995353062E+02  0.41800000000E+01 0. -1.
         -5    1    3    3    0  502  0.48865080922E+02  0.18842327061E+02 -0.87279917034E+00  0.52545823820E+02  0.41800000000E+01 0. -1.
        -11    1    1    2    0    0 -0.43088280247E+02  0.83277020384E+02  0.75776949600E+02  0.12055624459E+03  0.00000000000E+00 0. -1.
         11    1    1    2    0    0  0.16370606920E+02 -0.10812081208E+02 -0.20486200395E+01  0.19725483899E+02  0.00000000000E+00 0.  1.
</event>
<event>
 7    1  0.2522928E-009  0.1099628E+03  0.7561462E-02  0.1260639E+00
          3   -1    0    0  501    0  0.00000000000E+00  0.00000000000E+00  0.25763923001E+03  0.25763923001E+03  0.00000000000E+00 0. -1.
         -3   -1    0    0    0  501 -0.00000000000E+00 -0.00000000000E+00 -0.99712071512E+02  0.99712071512E+02  0.00000000000E+00 0.  1.
         25    2    1    2    0    0 -0.10255949441E+03 -0.82572723044E+01  0.23372979725E+02  0.16364428922E+03  0.12508606947E+03 0.  0.
          5    1    3    3  502    0 -0.59346246914E+02  0.11148527313E+02  0.73054159752E+02  0.94871752071E+02  0.41800000000E+01 0.  1.
         -5    1    3    3    0  502 -0.43213247493E+02 -0.19405799617E+02 -0.49681180027E+02  0.68772537153E+02  0.41800000000E+01 0.  1.
        -11    1    1    2    0    0  0.59317293099E+02  0.26426816263E+02  0.13155198644E+03  0.14670665634E+03  0.00000000000E+00 0. -1.
         11    1    1    2    0    0  0.43242201307E+02 -0.18169543959E+02  0.30021923367E+01  0.47000355960E+02  0.00000000000E+00 0.  1.
</event>
<event>
 7    1  0.2522928E-009  0.1262800E+03  0.7561462E-02  0.1233082E+00
          2   -1    0    0  501    0  0.00000000000E+00  0.00000000000E+00  0.11881832155E+04  0.11881832155E+04  0.00000000000E+00 0. -1.
         -2   -1    0    0    0  501 -0.00000000000E+00 -0.00000000000E+00 -0.15458807512E+02  0.15458807512E+02  0.00000000000E+00 0.  1.
         25    2    1    2    0    0 -0.43867139852E+02  0.67969658985E+02  0.78551673902E+03  0.79951713047E+03  0.12508754585E+03 0.  0.
          5    1    3    3  502    0 -0.76478265475E+02  0.70772278899E+02  0.42968430930E+03  0.44215802447E+03  0.41800000000E+01 0. -1.
         -5    1    3    3    0  502  0.32611125624E+02 -0.28026199133E+01  0.35583242973E+03  0.35735910599E+03  0.41800000000E+01 0. -1.
        -11    1    1    2    0    0  0.58160637914E+02 -0.78376080173E+02  0.31434341296E+03  0.32914624564E+03  0.00000000000E+00 0.  1.
         11    1    1    2    0    0 -0.14293498062E+02  0.10406421188E+02  0.72864256037E+02  0.74978646938E+02  0.00000000000E+00 0. -1.
</event>
<event>
 7    1  0.2522928E-009  0.1259069E+03  0.7561462E-02  0.1233659E+00
          3   -1    0    0  501    0  0.00000000000E+00  0.00000000000E+00  0.19504785092E+04  0.19504785092E+04  0.00000000000E+00 0. -1.
         -3   -1    0    0    0  501 -0.00000000000E+00 -0.00000000000E+00 -0.31604692059E+02  0.31604692059E+02  0.00000000000E+00 0.  1.
         25    2    1    2    0    0  0.51785001344E+02 -0.91859416567E+02  0.17712582751E+04  0.17787983255E+04  0.12509103484E+03 0.  0.
          5    1    3    3  502    0 -0.14304421979E+02  0.21264503722E+01  0.28321709059E+02  0.32073819283E+02  0.41800000000E+01 0. -1.
         -5    1    3    3    0  502  0.66089423323E+02 -0.93985866939E+02  0.17429365660E+04  0.17467245062E+04  0.41800000000E+01 0. -1.
        -11    1    1    2    0    0 -0.57236113150E+00  0.63001825332E+02  0.12559524834E+03  0.14051236244E+03  0.00000000000E+00 0. -1.
         11    1    1    2    0    0 -0.51212640212E+02  0.28857591236E+02  0.22020293683E+02  0.62772513279E+02  0.00000000000E+00 0.  1.
</event>
<event>
 7    1  0.2671075E-009  0.1364870E+03  0.7561462E-02  0.1218136E+00
         -2   -1    0    0    0  501 -0.00000000000E+00  0.00000000000E+00  0.23975641821E+02  0.23975641821E+02  0.00000000000E+00 0.  1.
          2   -1    0    0  501    0  0.00000000000E+00 -0.00000000000E+00 -0.91277472075E+03  0.91277472075E+03  0.00000000000E+00 0. -1.
         25    2    1    2    0    0 -0.21622002262E+02  0.96686280866E+02 -0.52504342781E+03  0.54875623319E+03  0.12508818685E+03 0.  0.
          5    1    3    3  502    0 -0.73870334806E+02  0.63636835688E+02 -0.31742870595E+03  0.33209174784E+03  0.41800000000E+01 0. -1.
         -5    1    3    3    0  502  0.52248332544E+02  0.33049445178E+02 -0.20761472186E+03  0.21666448536E+03  0.41800000000E+01 0. -1.
        -11    1    1    2    0    0 -0.10253640027E+02 -0.72972714671E+02 -0.32213422597E+03  0.33045516150E+03  0.00000000000E+00 0. -1.
         11    1    1    2    0    0  0.31875642289E+02 -0.23713566195E+02 -0.41621425136E+02  0.57538967869E+02  0.00000000000E+00 0.  1.
</event>
<event>
 7    1  0.2522928E-009  0.9680543E+02  0.7561462E-02  0.1287161E+00
          1   -1    0    0  501    0  0.00000000000E+00  0.00000000000E+00  0.38778513938E+03  0.38778513938E+03  0.00000000000E+00 0. -1.
         -1   -1    0    0    0  501 -0.00000000000E+00 -0.00000000000E+00 -0.55621473502E+02  0.55621473502E+02  0.00000000000E+00 0.  1.
         25    2    1    2    0    0 -0.89026798340E+02  0.10325473425E+02  0.23058243072E+03  0.27721559906E+03  0.12509134574E+03 0.  0.
          5    1    3    3  502    0 -0.41241313244E+02  0.12412473702E+02  0.16500479302E+01  0.43302545879E+02  0.41800000000E+01 0.  1.
         -5    1    3    3    0  502 -0.47785485096E+02 -0.20870002770E+01  0.22893238279E+03  0.23391305318E+03  0.41800000000E+01 0.  1.
        -11    1    1    2    0    0  0.47738776871E+02 -0.30215232158E+02  0.19571310367E+01  0.56531242985E+02  0.00000000000E+00 0.  1.
         11    1    1    2    0    0  0.41288021469E+02  0.19889758733E+02  0.99624104118E+02  0.10965977084E+03  0.00000000000E+00 0. -1.
</event>
<event>
 7    1  0.2522928E-009  0.1094550E+03  0.7561462E-02  0.1261583E+00
          2   -1    0    0  501    0  0.00000000000E+00  0.00000000000E+00  0.12487290132E+04  0.12487290132E+04  0.00000000000E+00 0. -1.
         -2   -1    0    0    0  501 -0.00000000000E+00 -0.00000000000E+00 -0.13321181602E+02  0.13321181602E+02  0.00000000000E+00 0.  1.
         25    2    1    2    0    0  0.38254602035E+02 -0.36449350118E+02  0.89736795642E+03  0.90758093279E+03  0.12506770431E+03 0.  0.
          5    1    3    3  502    0 -0.26864268289E+02 -0.52294596206E+02  0.59147880606E+03  0.59440816290E+03  0.41800000000E+01 0.  1.
         -5    1    3    3    0  502  0.65118870324E+02  0.15845246088E+02  0.30588915036E+03  0.31317276990E+03  0.41800000000E+01 0.  1.
        -11    1    1    2    0    0 -0.13567274486E+02 -0.23975236541E+02  0.35322904203E+02  0.44794982593E+02  0.00000000000E+00 0.  1.
         11    1    1    2    0    0 -0.24687327549E+02  0.60424586660E+02  0.30271697098E+03  0.30967427942E+03  0.00000000000E+00 0. -1.
</event>
<event>
 6    1  0.2522928E-009  0.5317696E+02  0.7561462E-02  0.1428922E+00
         -1   -1    0    0    0  501 -0.00000000000E+00  0.00000000000E+00  0.67385023777E+02  0.67385023777E+02  0.00000000000E+00 0.  1.
          1   -1    0    0  501    0  0.00000000000E+00 -0.00000000000E+00 -0.19095127782E+03  0.19095127782E+03  0.00000000000E+00 0. -1.
          5    1    1    2  502    0 -0.39428458896E+01  0.13490898123E+02 -0.10702586048E+03  0.10802572646E+03  0.41800000000E+01 0.  1.
         -5    1    1    2    0  502 -0.23345240427E+02  0.19289474540E+01  0.33050329703E+02  0.40724903712E+02  0.41800000000E+01 0.  1.
        -11    1    1    2    0    0  0.40585274338E+02  0.76193788530E+01  0.11574957710E+02  0.42885884312E+02  0.00000000000E+00 0.  1.
         11    1    1    2    0    0 -0.13297188021E+02 -0.23039224430E+02 -0.61165680982E+02  0.66699787118E+02  0.00000000000E+00 0. -1.
</event>
<event>
 7    1  0.2522928E-009  0.1254255E+03  0.7561462E-02  0.1234406E+00
         -1   -1    0    0    0  501 -0.00000000000E+00  0.00000000000E+00  0.52508497358E+03  0.52508497358E+03  0.00000000000E+00 0.  1.
          1   -1    0    0  501    0  0.00000000000E+00 -0.00000000000E+00 -0.39006603426E+02  0.39006603426E+02  0.00000000000E+00 0. -1.
         25    2    1    2    0    0  0.60995698578E+02 -0.21845168668E+02  0.39754915241E+03  0.42177111830E+03  0.12509141060E+03 0.  0.
          5    1    3    3  502    0 -0.39780491704E+01 -0.63342265342E+02  0.17337651571E+03  0.18467527191E+03  0.41800000000E+01 0.  1.
         -5    1    3    3    0  502  0.64973747749E+02  0.41497096674E+02  0.22417263670E+03  0.23709584639E+03  0.41800000000E+01 0.  1.
        -11    1    1    2    0    0 -0.73879096877E+02  0.42843423684E+02  0.58688090519E+02  0.10362418577E+03  0.00000000000E+00 0.  1.
         11    1    1    2    0    0  0.12883398298E+02 -0.20998255016E+02  0.29841127226E+02  0.38696272941E+02  0.00000000000E+00 0. -1.
</event>
<event>
 7    1  0.2522928E-009  0.9182387E+02  0.7561462E-02  0.1298494E+00
         -2   -1    0    0    0  501 -0.00000000000E+00  0.00000000000E+00  0.39185283193E+02  0.39185283193E+02  0.00000000000E+00 0.  1.
          2   -1    0    0  501    0  0.00000000000E+00 -0.00000000000E+00 -0.37162264361E+03  0.37162264361E+03  0.00000000000E+00 0. -1.
         25    2    1    2    0    0 -0.26591641931E+02 -0.45199063587E+02 -0.20164482097E+03  0.24301851840E+03  0.12508915098E+03 0.  0.
          5    1    3    3  502    0  0.10106438057E+02 -0.69491907091E+02 -0.53391232651E+02  0.88313993033E+02  0.41800000000E+01 0.  1.
         -5    1    3    3    0  502 -0.36698079988E+02  0.24292843505E+02 -0.14825358832E+03  0.15470452537E+03  0.41800000000E+01 0.  1.
        -11    1    1    2    0    0  0.48226339551E+01  0.47001979242E+02 -0.13713281584E+03  0.14504431402E+03  0.00000000000E+00 0. -1.
         11    1    1    2    0    0  0.21769007976E+02 -0.18029156549E+01  0.63402763977E+01  0.22745094370E+02  0.00000000000E+00 0.  1.
</event>
<event>
 7    1  0.2522928E-009  0.1283055E+03  0.7561462E-02  0.1229992E+00
          2   -1    0    0  501    0  0.00000000000E+00  0.00000000000E+00  0.26776336403E+03  0.26776336403E+03  0.00000000000E+00 0. -1.
         -2   -1    0    0    0  501 -0.00000000000E+00 -0.00000000000E+00 -0.89930835490E+02  0.89930835490E+02  0.00000000000E+00 0.  1.
         25    2    1    2    0    0  0.21341530818E+02 -0.10379513163E+03  0.12995087378E+03  0.20919806493E+03  0.12509080897E+03 0.  0.
          5    1    3    3  502    0 -0.20113448490E+02 -0.33056265513E+02  0.12041536039E+03  0.12654880054E+03  0.41800000000E+01 0. -1.
         -5    1    3    3    0  502  0.41454979308E+02 -0.70738866120E+02  0.95355133846E+01  0.82649264394E+02  0.41800000000E+01 0. -1.
        -11    1    1    2    0    0 -0.46079236066E+02  0.23802886498E+02 -0.35549555535E+00  0.51865207790E+02  0.00000000000E+00 0. -1.
         11    1    1    2    0    0  0.24737705248E+02  0.79992245135E+02  0.48237150320E+02  0.96630926797E+02  0.00000000000E+00 0.  1.
</event>
<event>
 7    1  0.2522928E-009  0.1878778E+03  0.7561462E-02  0.1160389E+00
         -2   -1    0    0    0  501 -0.00000000000E+00  0.00000000000E+00  0.60152649523E+02  0.60152649523E+02  0.00000000000E+00 0.  1.
          2   -1    0    0  501    0  0.00000000000E+00 -0.00000000000E+00 -0.67689589477E+03  0.67689589477E+03  0.00000000000E+00 0. -1.
         25    2    1    2    0    0 -0.15277081928E+03  0.92165790656E+01 -0.45142874541E+03  0.49280691971E+03  0.12508748690E+03 0.  0.
          5    1    3    3  502    0 -0.17359673108E+03 -0.18898491874E+00 -0.41103297326E+03  0.44620784200E+03  0.41800000000E+01 0.  1.
         -5    1    3    3    0  502  0.20825911794E+02  0.94055639843E+01 -0.40395772154E+02  0.46599077715E+02  0.41800000000E+01 0.  1.
        -11    1    1    2    0    0  0.37000295520E+02  0.38737438910E+02 -0.61118560824E+02  0.81271701835E+02  0.00000000000E+00 0. -1.
         11    1    1    2    0    0  0.11577052376E+03 -0.47954017976E+02 -0.10419593901E+03  0.16296992274E+03  0.00000000000E+00 0.  1.
</event>
<event>
 7    1  0.2522928E-009  0.1066264E+03  0.7561462E-02  0.1266948E+00
          1   -1    0    0  501    0  0.00000000000E+00  0.00000000000E+00  0.21500175534E+03  0.21500175534E+03  0.00000000000E+00 0. -1.
         -1   -1    0    0    0  501 -0.00000000000E+00 -0.00000000000E+00 -0.10635847643E+03  0.10635847643E+03  0.00000000000E+00 0.  1.
         25    2    1    2    0    0 -0.76371595349E+02  0.27301827834E+02  0.13277074082E+03  0.19963472898E+03  0.12509174640E+03 0.  0.
          5    1    3    3  502    0 -0.32397998505E+02  0.48275584710E+02  0.13863068779E+03  0.15038650997E+03  0.41800000000E+01 0.  1.
         -5    1    3    3    0  502 -0.43973596843E+02 -0.20973756875E+02 -0.58599469646E+01  0.49248219006E+02  0.41800000000E+01 0.  1.
        -11    1    1    2    0    0  0.81406280498E+02 -0.41232329492E+02  0.24647699910E+01  0.91286157718E+02  0.00000000000E+00 0. -1.
         11    1    1    2    0    0 -0.50346851489E+01  0.13930501658E+02 -0.26592231902E+02  0.30439345074E+02  0.00000000000E+00 0.  1.
</event>
<event>
 7    1  0.2522928E-009  0.1132877E+03  0.7561462E-02  0.1254600E+00
         -2   -1    0    0    0  501 -0.00000000000E+00  0.00000000000E+00  0.31632820674E+02  0.31632820674E+02  0.00000000000E+00 0.  1.
          2   -1    0    0  501    0  0.00000000000E+00 -0.00000000000E+00 -0.98588166187E+03  0.98588166187E+03  0.00000000000E+00 0. -1.
         25    2    1    2    0    0  0.89681428814E+02  0.10042924692E+02 -0.81302651918E+03  0.82752835660E+03  0.12508973208E+03 0.  0.
          5    1    3    3  502    0  0.53279752920E+02  0.27399025252E+02 -0.75118091564E+03  0.75357791839E+03  0.41800000000E+01 0. -1.
         -5    1    3    3    0  502  0.36401675894E+02 -0.17356100560E+02 -0.61845603545E+02  0.73950438216E+02  0.41800000000E+01 0. -1.
        -11    1    1    2    0    0 -0.24491230307E+02 -0.45568107519E+02 -0.70556740436E+02  0.87490150336E+02  0.00000000000E+00 0.  1.
         11    1    1    2    0    0 -0.65190198507E+02  0.35525182827E+02 -0.70665581575E+02  0.10249597561E+03  0.00000000000E+00 0. -1.
</event>
<event>
 7    1  0.2522928E-009  0.2254812E+03  0.7561462E-02  0.1129861E+00
         -1   -1    0    0    0  501 -0.00000000000E+00  0.00000000000E+00  0.27302400733E+03  0.27302400733E+03  0.00000000000E+00 0.  1.
          1   -1    0    0  501    0  0.00000000000E+00 -0.00000000000E+00 -0.47587213589E+03  0.47587213589E+03  0.00000000000E+00 0. -1.
         25    2    1    2    0    0  0.90957803143E+02  0.19609842584E+03  0.17464005096E+03  0.30475363175E+03  0.12509082340E+03 0.  0.
          5    1    3    3  502    0  0.55581962881E+01  0.82634258864E+01  0.74650073562E+02  0.75427340111E+02  0.41800000000E+01 0. -1.
         -5    1    3    3    0  502  0.85399606855E+02  0.18783499995E+03  0.99989977397E+02  0.22932629164E+03  0.41800000000E+01 0. -1.
        -11    1    1    2    0    0  0.45055538685E+01 -0.93620291866E+02 -0.14161561083E+03  0.16982355636E+03  0.00000000000E+00 0.  1.
         11    1    1    2    0    0 -0.95463357011E+02 -0.10247813397E+03 -0.23587256868E+03  0.27431895511E+03  0.00000000000E+00 0. -1.
</event>
<event>
 7    1  0.2522928E-009  0.1209099E+03  0.7561462E-02  0.1241604E+00
         -1   -1    0    0    0  501 -0.00000000000E+00  0.00000000000E+00  0.63724046511E+02  0.63724046511E+02  0.00000000000E+00 0.  1.
          1   -1    0    0  501    0  0.00000000000E+00 -0.00000000000E+00 -0.27817379588E+03  0.27817379588E+03  0.00000000000E+00 0. -1.
         25    2    1    2    0    0  0.20866540639E+02 -0.46193473993E+02 -0.18228396502E+03  0.22682472833E+03  0.12511100639E+03 0.  0.
          5    1    3    3  502    0  0.31859144585E+02 -0.85027637940E+02 -0.10036815986E+03  0.13541028108E+03  0.41800000000E+01 0. -1.
         -5    1    3    3    0  502 -0.10992603946E+02  0.38834163947E+02 -0.81915805161E+02  0.91414447251E+02  0.41800000000E+01 0. -1.
        -11    1    1    2    0    0 -0.51663260672E+02  0.57720098060E+02 -0.25202020348E+02  0.81460690231E+02  0.00000000000E+00 0. -1.
         11    1    1    2    0    0  0.30796720032E+02 -0.11526624067E+02 -0.69637640039E+01  0.33612423837E+02  0.00000000000E+00 0.  1.
</event>
<event>
 7    1  0.2522928E-009  0.1003324E+03  0.7561462E-02  0.1279599E+00
         -1   -1    0    0    0  501 -0.00000000000E+00  0.00000000000E+00  0.24664788533E+03  0.24664788533E+03  0.00000000000E+00 0.  1.
          1   -1    0    0  501    0  0.00000000000E+00 -0.00000000000E+00 -0.56543005038E+02  0.56543005038E+02  0.00000000000E+00 0. -1.
         25    2    1    2    0    0  0.43833119975E+02 -0.37015277671E+01  0.12800199363E+03  0.18430238794E+03  0.12509123116E+03 0.  0.
          5    1    3    3  502    0  0.72891981228E+02  0.34596943321E+02  0.58751897110E+02  0.99897183286E+02  0.41800000000E+01 0. -1.
         -5    1    3    3    0  502 -0.29058861253E+02 -0.38298471088E+02  0.69250096519E+02  0.84405204655E+02  0.41800000000E+01 0. -1.
        -11    1    1    2    0    0 -0.54585551659E+02  0.14393213403E+02  0.15570420479E+01  0.56472749375E+02  0.00000000000E+00 0. -1.
         11    1    1    2    0    0  0.10752431685E+02 -0.10691685636E+02  0.60545844620E+02  0.62415753056E+02  0.00000000000E+00 0.  1.
</event>
<event>
 7    1  0.2522928E-009  0.8657571E+02  0.7561462E-02  0.1311363E+00
          2   -1    0    0  501    0  0.00000000000E+00  0.00000000000E+00  0.19945696810E+03  0.19945696810E+03  0.00000000000E+00 0. -1.
         -2   -1    0    0    0  501 -0.00000000000E+00 -0.00000000000E+00 -0.58555467531E+02  0.58555467531E+02  0.00000000000E+00 0.  1.
         25    2    1    2    0    0  0.12502428673E+02  0.50838432871E+01  0.78531676080E+02  0.14833087304E+03  0.12511062131E+03 0.  0.
          5    1    3    3  502    0  0.25346314035E+02 -0.37380933974E+02  0.91326292937E+02  0.10196927989E+03  0.41800000000E+01 0. -1.
         -5    1    3    3    0  502 -0.12843885362E+02  0.42464777261E+02 -0.12794616857E+02  0.46361593151E+02  0.41800000000E+01 0. -1.
        -11    1    1    2    0    0 -0.46192385844E+02  0.83916437904E+01  0.55600210006E+02  0.72770457935E+02  0.00000000000E+00 0.  1.
         11    1    1    2    0    0  0.33689957171E+02 -0.13475487078E+02  0.67696144788E+01  0.36911104648E+02  0.00000000000E+00 0. -1.
</event>
<event>
 7    1  0.2522928E-009  0.1016519E+03  0.7561462E-02  0.1276860E+00
         -2   -1    0    0    0  501 -0.00000000000E+00  0.00000000000E+00  0.36904491625E+02  0.36904491625E+02  0.00000000000E+00 0.  1.
          2   -1    0    0  501    0  0.00000000000E+00 -0.00000000000E+00 -0.48527248301E+03  0.48527248301E+03  0.00000000000E+00 0. -1.
         25    2    1    2    0    0 -0.57747308815E+02 -0.51520824412E+02 -0.23946614746E+03  0.28103576024E+03  0.12509162933E+03 0.  0.
          5    1    3    3  502    0 -0.52936510655E+02 -0.67891465308E+02 -0.71036261135E+02  0.11169220214E+03  0.41800000000E+01 0.  1.
         -5    1    3    3    0  502 -0.48107981594E+01  0.16370640896E+02 -0.16842988632E+03  0.16934355810E+03  0.41800000000E+01 0.  1.
        -11    1    1    2    0    0  0.65572330548E+02  0.22247571796E+02 -0.68115126152E+02  0.97130609980E+02  0.00000000000E+00 0.  1.
         11    1    1    2    0    0 -0.78250217336E+01  0.29273252616E+02 -0.14078671777E+03  0.14401060442E+03  0.00000000000E+00 0. -1.
</event>
<event>
 7    1  0.2522928E-009  0.9574867E+02  0.7561462E-02  0.1289499E+00
          2   -1    0    0  501    0  0.00000000000E+00  0.00000000000E+00  0.59204302881E+02  0.59204302881E+02  0.00000000000E+00 0.  1.
         -2   -1    0    0    0  501 -0.00000000000E+00 -0.00000000000E+00 -0.23277775357E+03  0.23277775357E+03  0.00000000000E+00 0. -1.
         25    2    1    2    0    0 -0.42990226383E+01  0.20433157991E+01 -0.42062748803E+02  0.13205724563E+03  0.12508870673E+03 0.  0.
          5    1    3    3  502    0  0.22754837257E+02  0.55592040218E+02 -0.28880620724E+01  0.60283255193E+02  0.41800000000E+01 0. -1.
         -5    1    3    3    0  502 -0.27053859895E+02 -0.53548724419E+02 -0.39174686731E+02  0.71773990432E+02  0.41800000000E+01 0. -1.
        -11    1    1    2    0    0 -0.28194879920E+02 -0.19476650460E+02 -0.11412118007E+03  0.11915508763E+03  0.00000000000E+00 0.  1.
         11    1    1    2    0    0  0.32493902559E+02  0.17433334661E+02 -0.17389521822E+02  0.40769723204E+02  0.00000000000E+00 0. -1.
</event>
<event>
 7    1  0.2522928E-009  0.1098006E+03  0.7561462E-02  0.1260940E+00
          1   -1    0    0  501    0  0.00000000000E+00  0.00000000000E+00  0.57668158318E+03  0.57668158318E+03  0.00000000000E+00 0. -1.
         -1   -1    0    0    0  501 -0.00000000000E+00 -0.00000000000E+00 -0.36195645568E+02  0.36195645568E+02  0.00000000000E+00 0.  1.
         25    2    1    2    0    0 -0.17384009908E+02 -0.41312516752E+02  0.11640928540E+03  0.17666056890E+03  0.12509559160E+03 0.  0.
          5    1    3    3  502    0  0.15893200310E+02 -0.71579411097E+02  0.10815929516E+03  0.13073680216E+03  0.41800000000E+01 0.  1.
         -5    1    3    3    0  502 -0.33277210218E+02  0.30266894345E+02  0.82499902417E+01  0.45923766747E+02  0.41800000000E+01 0.  1.
        -11    1    1    2    0    0 -0.28089352687E+02 -0.12315624662E+02  0.99884483835E+02  0.10448730285E+03  0.00000000000E+00 0. -1.
         11    1    1    2    0    0  0.45473362595E+02  0.53628141414E+02  0.32419216838E+03  0.33172935700E+03  0.00000000000E+00 0.  1.
</event>
<event>
 7    1  0.2522928E-009  0.1134109E+03  0.7561462E-02  0.1254381E+00
          1   -1    0    0  501    0  0.00000000000E+00  0.00000000000E+00  0.13878006245E+03  0.13878006245E+03  0.00000000000E+00 0. -1.
         -1   -1    0    0    0  501 -0.00000000000E+00 -0.00000000000E+00 -0.96333715224E+02  0.96333715224E+02  0.00000000000E+00 0.  1.
         25    2    1    2    0    0  0.39332303600E+02  0.47842450714E+01  0.26121859632E+02  0.13379025666E+03  0.12509021593E+03 0.  0.
          5    1    3    3  502    0  0.23294585042E+01 -0.56032491824E+02  0.27203072315E+02  0.62470361455E+02  0.41800000000E+01 0. -1.
         -5    1    3    3    0  502  0.37002845096E+02  0.60816736895E+02 -0.10812126823E+01  0.71319895209E+02  0.41800000000E+01 0. -1.
        -11    1    1    2    0    0 -0.57306106978E+02  0.26544304354E+02  0.44856003210E+01  0.63314379100E+02  0.00000000000E+00 0. -1.
         11    1    1    2    0    0  0.17973803378E+02 -0.31328549425E+02  0.11838887274E+02  0.38009141912E+02  0.00000000000E+00 0.  1.
</event>
<event>
 7    1  0.2522928E-009  0.1070275E+03  0.7561462E-02  0.1266176E+00
         -2   -1    0    0    0  501 -0.00000000000E+00  0.00000000000E+00  0.25198078526E+02  0.25198078526E+02  0.00000000000E+00 0. -1.
          2   -1    0    0  501    0  0.00000000000E+00 -0.00000000000E+00 -0.69247928850E+03  0.69247928850E+03  0.00000000000E+00 0.  1.
         25    2    1    2    0    0  0.49749710778E+02  0.35229667230E+02 -0.47694876747E+03  0.49683400875E+03  0.12509093606E+03 0.  0.
          5    1    3    3  502    0 -0.21097259999E+02  0.20218678421E+02 -0.23807041467E+02  0.37922776269E+02  0.41800000000E+01 0. -1.
         -5    1    3    3    0  502  0.70846970777E+02  0.15010988809E+02 -0.45314172600E+03  0.45891123248E+03  0.41800000000E+01 0. -1.
        -11    1    1    2    0    0 -0.53493217697E+02  0.19650468817E+02 -0.98329507815E+02  0.11365015342E+03  0.00000000000E+00 0.  1.
         11    1    1    2    0    0  0.37435069187E+01 -0.54880136047E+02 -0.92002934686E+02  0.10719320486E+03  0.00000000000E+00 0. -1.
</event>
<event>
 7    1  0.2522928E-009  0.1165848E+03  0.7561462E-02  0.1248840E+00
          2   -1    0    0  501    0  0.00000000000E+00  0.00000000000E+00  0.13824903049E+03  0.13824903049E+03  0.00000000000E+00 0. -1.
         -2   -1    0    0    0  501 -0.00000000000E+00 -0.00000000000E+00 -0.14889277348E+03  0.14889277348E+03  0.00000000000E+00 0.  1.
         25    2    1    2    0    0 -0.45935678624E+02  0.54620116498E+02  0.55954046426E+02  0.15450071784E+03  0.12508466254E+03 0.  0.
          5    1    3    3  502    0 -0.55543899474E+02 -0.97945430560E+01 -0.14581894275E+02  0.58405152882E+02  0.41800000000E+01 0. -1.
         -5    1    3    3    0  502  0.96082208499E+01  0.64414659554E+02  0.70535940701E+02  0.96095564954E+02  0.41800000000E+01 0. -1.
        -11    1    1    2    0    0  0.62266140812E+02 -0.90191697975E+01 -0.53179192673E+02  0.82379877694E+02  0.00000000000E+00 0.  1.
         11    1    1    2    0    0 -0.16330462188E+02 -0.45600946700E+02 -0.13418596742E+02  0.50261208439E+02  0.00000000000E+00 0. -1.
</event>
<event>
 7    1  0.2522928E-009  0.1057180E+03  0.7561462E-02  0.1268711E+00
          2   -1    0    0  501    0  0.00000000000E+00  0.00000000000E+00  0.57764188416E+02  0.57764188416E+02  0.00000000000E+00 0. -1.
         -2   -1    0    0    0  501 -0.00000000000E+00 -0.00000000000E+00 -0.29837884691E+03  0.29837884691E+03  0.00000000000E+00 0.  1.
         25    2    1    2    0    0 -0.55077173687E+02  0.29896269189E+02 -0.18782702205E+03  0.23421031974E+03  0.12509277232E+03 0.  0.
          5    1    3    3  502    0 -0.78476608093E+02  0.31621517851E+02 -0.59085543197E+02  0.10328151928E+03  0.41800000000E+01 0.  1.
         -5    1    3    3    0  502  0.23399434406E+02 -0.17252486622E+01 -0.12874147885E+03  0.13092880046E+03  0.41800000000E+01 0.  1.
        -11    1    1    2    0    0 -0.21386704823E+02 -0.11348904633E+02  0.44733250741E+01  0.24621117293E+02  0.00000000000E+00 0. -1.
         11    1    1    2    0    0  0.76463878510E+02 -0.18547364556E+02 -0.57260961523E+02  0.97311598298E+02  0.00000000000E+00 0.  1.
</event>
<event>
 7    1  0.2522928E-009  0.1479889E+03  0.7561462E-02  0.1202966E+00
          1   -1    0    0  501    0  0.00000000000E+00  0.00000000000E+00  0.37682026052E+02  0.37682026052E+02  0.00000000000E+00 0. -1.
         -1   -1    0    0    0  501 -0.00000000000E+00 -0.00000000000E+00 -0.67891692419E+03  0.67891692419E+03  0.00000000000E+00 0.  1.
         25    2    1    2    0    0 -0.11656264773E+03  0.97916043704E+01 -0.34370496809E+03  0.38400921533E+03  0.12508895239E+03 0.  0.
          5    1    3    3  502    0  0.16737012324E+02 -0.27365168797E+02 -0.54562842934E+02  0.63431508526E+02  0.41800000000E+01 0.  1.
         -5    1    3    3    0  502 -0.13329966006E+03  0.37156773168E+02 -0.28914212516E+03  0.32057770681E+03  0.41800000000E+01 0.  1.
        -11    1    1    2    0    0  0.14119769510E+02 -0.17460008404E+02 -0.56435985383E+01  0.23153185287E+02  0.00000000000E+00 0. -1.
         11    1    1    2    0    0  0.10244287822E+03  0.76684040334E+01 -0.29188633151E+03  0.30943654962E+03  0.00000000000E+00 0.  1.
</event>
<event>
 7    1  0.2522928E-009  0.2806063E+03  0.7561462E-02  0.1095358E+00
         -3   -1    0    0    0  501 -0.00000000000E+00  0.00000000000E+00  0.23134244896E+03  0.23134244896E+03  0.00000000000E+00 0.  1.
          3   -1    0    0  501    0  0.00000000000E+00 -0.00000000000E+00 -0.42663949601E+03  0.42663949601E+03  0.00000000000E+00 0. -1.
         25    2    1    2    0    0 -0.57501569503E+02  0.17343719544E+03 -0.14366284579E+03  0.26395817312E+03  0.12509201670E+03 0.  0.
          5    1    3    3  502    0 -0.81587855710E+02  0.14347192503E+03 -0.67162717028E+02  0.17823881292E+03  0.41800000000E+01 0. -1.
         -5    1    3    3    0  502  0.24086286207E+02  0.29965270402E+02 -0.76500128760E+02  0.85719360205E+02  0.41800000000E+01 0. -1.
        -11    1    1    2    0    0 -0.46408469650E+02  0.74971913543E+02  0.55545194045E+02  0.10421037596E+03  0.00000000000E+00 0.  1.
         11    1    1    2    0    0  0.10391003915E+03 -0.24840910898E+03 -0.10717939530E+03  0.28981339589E+03  0.00000000000E+00 0. -1.
</event>
<event>
 7    1  0.2546821E-009  0.1376821E+03  0.7561462E-02  0.1216482E+00
         -2   -1    0    0    0  501 -0.00000000000E+00  0.00000000000E+00  0.83142082700E+02  0.83142082700E+02  0.00000000000E+00 0.  1.
          2   -1    0    0  501    0  0.00000000000E+00 -0.00000000000E+00 -0.39708167665E+03  0.39708167665E+03  0.00000000000E+00 0. -1.
         25    2    1    2    0    0  0.98561875607E+02  0.44017225142E+02 -0.36962022599E+02  0.16930608992E+03  0.12508557685E+03 0.  0.
          5    1    3    3  502    0  0.11429171982E+03 -0.39549869311E+01 -0.22540303814E+02  0.11663522983E+03  0.41800000000E+01 0.  1.
         -5    1    3    3    0  502 -0.15729844212E+02  0.47972212073E+02 -0.14421718785E+02  0.52670860092E+02  0.41800000000E+01 0.  1.
        -11    1    1    2    0    0 -0.46661066458E+02 -0.86285361705E+01 -0.22331145529E+03  0.22829742185E+03  0.00000000000E+00 0. -1.
         11    1    1    2    0    0 -0.51900809149E+02 -0.35388688972E+02 -0.53666116061E+02  0.82620247582E+02  0.00000000000E+00 0.  1.
</event>
<event>
 7    1  0.2522928E-009  0.1794594E+03  0.7561462E-02  0.1168327E+00
         -2   -1    0    0    0  501 -0.00000000000E+00  0.00000000000E+00  0.23886300598E+03  0.23886300598E+03  0.00000000000E+00 0.  1.
          2   -1    0    0  501    0  0.00000000000E+00 -0.00000000000E+00 -0.16689389218E+03  0.16689389218E+03  0.00000000000E+00 0. -1.
         25    2    1    2    0    0 -0.37154393529E+02 -0.14675013103E+03  0.11590998563E+03  0.22803226468E+03  0.12509012370E+03 0.  0.
          5    1    3    3  502    0  0.62052557343E+01 -0.14513186282E+03  0.11346439221E+03  0.18437300102E+03  0.41800000000E+01 0. -1.
         -5    1    3    3    0  502 -0.43359649263E+02 -0.16182682134E+01  0.24455934213E+01  0.43659263661E+02  0.41800000000E+01 0. -1.
        -11    1    1    2    0    0 -0.23954653265E+02  0.31721088658E+02 -0.22626931047E+02  0.45738724155E+02  0.00000000000E+00 0. -1.
         11    1    1    2    0    0  0.61109046794E+02  0.11502904238E+03 -0.21313940775E+02  0.13198590933E+03  0.00000000000E+00 0.  1.
</event>
<event>
 7    1  0.2522928E-009  0.3129940E+03  0.7561462E-02  0.1078920E+00
          3   -1    0    0  501    0  0.00000000000E+00  0.00000000000E+00  0.17322843111E+04  0.17322843111E+04  0.00000000000E+00 0.  1.
         -3   -1    0    0    0  501 -0.00000000000E+00 -0.00000000000E+00 -0.60757557367E+02  0.60757557367E+02  0.00000000000E+00 0. -1.
         25    2    1    2    0    0 -0.74741660031E+02 -0.29023342426E+03  0.10242992930E+04  0.10745500368E+04  0.12508790352E+03 0.  0.
          5    1    3    3  502    0 -0.92083465681E+02 -0.17741126263E+03  0.51153059312E+03  0.54921320165E+03  0.41800000000E+01 0.  1.
         -5    1    3    3    0  502  0.17341805650E+02 -0.11282216162E+03  0.51276869992E+03  0.52533683518E+03  0.41800000000E+01 0.  1.
        -11    1    1    2    0    0 -0.18370876246E+02  0.76956662845E+02  0.15507084650E+03  0.17408843869E+03  0.00000000000E+00 0. -1.
         11    1    1    2    0    0  0.93112536278E+02  0.21327676141E+03  0.49215661417E+03  0.54440339294E+03  0.00000000000E+00 0.  1.
</event>
<event>
 7    1  0.2522928E-009  0.1708312E+03  0.7561462E-02  0.1176984E+00
          1   -1    0    0  501    0  0.00000000000E+00  0.00000000000E+00  0.17306373769E+03  0.17306373769E+03  0.00000000000E+00 0. -1.
         -1   -1    0    0    0  501 -0.00000000000E+00 -0.00000000000E+00 -0.25639535321E+03  0.25639535321E+03  0.00000000000E+00 0.  1.
         25    2    1    2    0    0  0.15503705072E+03 -0.37592360099E+02  0.41659923484E+02  0.20695790300E+03  0.12508537787E+03 0.  0.
          5    1    3    3  502    0  0.16116536775E+03 -0.47478785122E+02  0.65280880934E+02  0.18029857630E+03  0.41800000000E+01 0. -1.
         -5    1    3    3    0  502 -0.61283170361E+01  0.98864250230E+01 -0.23620957450E+02  0.26659326703E+02  0.41800000000E+01 0. -1.
        -11    1    1    2    0    0 -0.76411653120E+02  0.30565304988E+02 -0.11715804652E+03  0.14317467118E+03  0.00000000000E+00 0.  1.
         11    1    1    2    0    0 -0.78625397597E+02  0.70270551102E+01 -0.78334924813E+01  0.79326516722E+02  0.00000000000E+00 0. -1.
</event>
<event>
 7    1  0.2522928E-009  0.1432339E+03  0.7561462E-02  0.1209043E+00
         -3   -1    0    0    0  501 -0.00000000000E+00  0.00000000000E+00  0.73343993610E+03  0.73343993610E+03  0.00000000000E+00 0.  1.
          3   -1    0    0  501    0  0.00000000000E+00 -0.00000000000E+00 -0.36352813468E+02  0.36352813468E+02  0.00000000000E+00 0. -1.
         25    2    1    2    0    0  0.10244869263E+03  0.25132212434E+02  0.51849521612E+03  0.54370192940E+03  0.12508851336E+03 0.  0.
          5    1    3    3  502    0  0.84014722349E+02 -0.30213227489E+02  0.18915219465E+03  0.20920644787E+03  0.41800000000E+01 0. -1.
         -5    1    3    3    0  502  0.18433970283E+02  0.55345439923E+02  0.32934302146E+03  0.33449548153E+03  0.41800000000E+01 0. -1.
        -11    1    1    2    0    0 -0.11936390604E+03 -0.22917207023E+02  0.15835177728E+03  0.19962020391E+03  0.00000000000E+00 0.  1.
         11    1    1    2    0    0  0.16915213404E+02 -0.22150054106E+01  0.20240129229E+02  0.26470616251E+02  0.00000000000E+00 0. -1.
</event>
<event>
 7    1  0.2522928E-009  0.1293704E+03  0.7561462E-02  0.1228393E+00
          1   -1    0    0  501    0  0.00000000000E+00  0.00000000000E+00  0.30621814660E+03  0.30621814660E+03  0.00000000000E+00 0. -1.
         -1   -1    0    0    0  501 -0.00000000000E+00 -0.00000000000E+00 -0.10386773844E+03  0.10386773844E+03  0.00000000000E+00 0.  1.
         25    2    1    2    0    0 -0.90380723011E+02  0.67506751230E+02  0.20480062005E+03  0.26518463747E+03  0.12511499281E+03 0.  0.
          5    1    3    3  502    0 -0.60756581647E+02  0.31675057527E+02  0.15713063860E+02  0.70420481811E+02  0.41800000000E+01 0.  1.
         -5    1    3    3    0  502 -0.29624141364E+02  0.35831693704E+02  0.18908755619E+03  0.19476415566E+03  0.41800000000E+01 0.  1.
        -11    1    1    2    0    0  0.44063526772E+02  0.16854139963E+02  0.88526894728E+01  0.48000276420E+02  0.00000000000E+00 0.  1.
         11    1    1    2    0    0  0.46317196239E+02 -0.84360891194E+02 -0.11302901367E+02  0.96900971150E+02  0.00000000000E+00 0. -1.
</event>
<event>
 7    1  0.2522928E-009  0.1022118E+03  0.7561462E-02  0.1275712E+00
         -1   -1    0    0    0  501 -0.00000000000E+00  0.00000000000E+00  0.36376121122E+02  0.36376121122E+02  0.00000000000E+00 0.  1.
          1   -1    0    0  501    0  0.00000000000E+00 -0.00000000000E+00 -0.46543925075E+03  0.46543925075E+03  0.00000000000E+00 0. -1.
         25    2    1    2    0    0 -0.22290330488E+02 -0.61146915402E+02 -0.30636971016E+03  0.33725928360E+03  0.12508245670E+03 0.  0.
          5    1    3    3  502    0  0.50063327582E+02 -0.32965675405E+02 -0.16959699650E+03  0.17992689111E+03  0.41800000000E+01 0. -1.
         -5    1    3    3    0  502 -0.72353658070E+02 -0.28181239997E+02 -0.13677271366E+03  0.15733239249E+03  0.41800000000E+01 0. -1.
        -11    1    1    2    0    0 -0.10772305275E+01  0.13130912799E+02  0.13137234568E+02  0.18605596702E+02  0.00000000000E+00 0.  1.
         11    1    1    2    0    0  0.23367561015E+02  0.48016002603E+02 -0.13583065403E+03  0.14595049157E+03  0.00000000000E+00 0. -1.
</event>
<event>
 7    1  0.2522928E-009  0.1533062E+03  0.7561462E-02  0.1196468E+00
          4   -1    0    0  501    0  0.00000000000E+00  0.00000000000E+00  0.27789003858E+03  0.27789003858E+03  0.00000000000E+00 0. -1.
         -4   -1    0    0    0  501 -0.00000000000E+00 -0.00000000000E+00 -0.11728373596E+03  0.11728373596E+03  0.00000000000E+00 0.  1.
         25    2    1    2    0    0  0.66676536199E+02 -0.11034081100E+03  0.10261865602E+02  0.17993784520E+03  0.12510582400E+03 0.  0.
          5    1    3    3  502    0 -0.20703312013E+00 -0.80077229802E+02 -0.41234967940E+02  0.90167624880E+02  0.41800000000E+01 0.  1.
         -5    1    3    3    0  502  0.66883569319E+02 -0.30263581201E+02  0.51496833542E+02  0.89770220323E+02  0.41800000000E+01 0.  1.
        -11    1    1    2    0    0 -0.58409213650E+02  0.19352081864E+02  0.73472136860E+02  0.95834723387E+02  0.00000000000E+00 0.  1.
         11    1    1    2    0    0 -0.82673225481E+01  0.90988729139E+02  0.76872300156E+02  0.11940120596E+03  0.00000000000E+00 0. -1.
</event>
<event>
 7    1  0.2522928E-009  0.1360768E+03  0.7561462E-02  0.1218708E+00
          1   -1    0    0  501    0  0.00000000000E+00  0.00000000000E+00  0.15147209353E+03  0.15147209353E+03  0.00000000000E+00 0. -1.
         -1   -1    0    0    0  501 -0.00000000000E+00 -0.00000000000E+00 -0.23621978751E+03  0.23621978751E+03  0.00000000000E+00 0.  1.
         25    2    1    2    0    0 -0.72576941908E+02  0.96280978563E+02 -0.14316094323E+03  0.22512194934E+03  0.12508955622E+03 0.  0.
          5    1    3    3  502    0 -0.37026299262E+02  0.30492371066E+02 -0.14229556676E+03  0.15022061193E+03  0.41800000000E+01 0.  1.
         -5    1    3    3    0  502 -0.35550642645E+02  0.65788607497E+02 -0.86537647693E+00  0.74901337407E+02  0.41800000000E+01 0.  1.
        -11    1    1    2    0    0  0.15005479497E+02  0.16611025864E+02 -0.14206673539E+01  0.22430088963E+02  0.00000000000E+00 0. -1.
         11    1    1    2    0    0  0.57571462411E+02 -0.11289200443E+03  0.59833916609E+02  0.14013984274E+03  0.00000000000E+00 0.  1.
</event>
<event>
 7    1  0.2522928E-009  0.1328671E+03  0.7561462E-02  0.1223262E+00
         -2   -1    0    0    0  501 -0.00000000000E+00  0.00000000000E+00  0.12516107379E+03  0.12516107379E+03  0.00000000000E+00 0.  1.
          2   -1    0    0  501    0  0.00000000000E+00 -0.00000000000E+00 -0.20392091525E+03  0.20392091525E+03  0.00000000000E+00 0. -1.
         25    2    1    2    0    0  0.95586328509E+02  0.35593276947E+02  0.16729999820E+02  0.16226899600E+03  0.12509079345E+03 0.  0.
          5    1    3    3  502    0  0.65518837389E+01  0.48800757403E+02  0.46016262309E+02  0.67523402613E+02  0.41800000000E+01 0. -1.
         -5    1    3    3    0  502  0.89034444770E+02 -0.13207480456E+02 -0.29286262489E+02  0.94745593386E+02  0.41800000000E+01 0. -1.
        -11    1    1    2    0    0  0.54776087705E+01 -0.23847472146E+02  0.36681743063E+01  0.24741900257E+02  0.00000000000E+00 0. -1.
         11    1    1    2    0    0 -0.10106393728E+03 -0.11745804801E+02 -0.99158015588E+02  0.14207109278E+03  0.00000000000E+00 0.  1.
</event>
<event>
 7    1  0.2522928E-009  0.8067805E+02  0.7561462E-02  0.1327138E+00
         -1   -1    0    0    0  501 -0.00000000000E+00  0.00000000000E+00  0.23159549281E+02  0.23159549281E+02  0.00000000000E+00 0.  1.
          1   -1    0    0  501    0  0.00000000000E+00 -0.00000000000E+00 -0.58563116282E+03  0.58563116282E+03  0.00000000000E+00 0. -1.
         25    2    1    2    0    0  0.11438318268E+02  0.33091292336E+02 -0.24509121381E+03  0.27738547032E+03  0.12508847791E+03 0.  0.
          5    1    3    3  502    0 -0.16989220866E+02 -0.97834220404E+01 -0.21832889652E+03  0.21924718568E+03  0.41800000000E+01 0.  1.
         -5    1    3    3    0  502  0.28427539133E+02  0.42874714377E+02 -0.26762317283E+02  0.58138284636E+02  0.41800000000E+01 0.  1.
        -11    1    1    2    0    0  0.31815854476E+01 -0.59461449245E+02 -0.15103898779E+03  0.16235320220E+03  0.00000000000E+00 0.  1.
         11    1    1    2    0    0 -0.14619903715E+02  0.26370156909E+02 -0.16634141194E+03  0.16905203958E+03  0.00000000000E+00 0. -1.
</event>
<event>
 7    1  0.2522928E-009  0.7755354E+02  0.7561462E-02  0.1336141E+00
          3   -1    0    0  501    0  0.00000000000E+00  0.00000000000E+00  0.13734925439E+03  0.13734925439E+03  0.00000000000E+00 0.  1.
         -3   -1    0    0    0  501 -0.00000000000E+00 -0.00000000000E+00 -0.10617452069E+03  0.10617452069E+03  0.00000000000E+00 0. -1.
         25    2    1    2    0    0  0.48772705050E+02 -0.16782812345E+02  0.58666842001E+00  0.13530665468E+03  0.12508839704E+03 0.  0.
          5    1    3    3  502    0 -0.80364059294E+01 -0.24033876871E+02 -0.51647258757E+02  0.57681217001E+02  0.41800000000E+01 0.  1.
         -5    1    3    3    0  502  0.56809110979E+02  0.72510645254E+01  0.52233927177E+02  0.77625437682E+02  0.41800000000E+01 0.  1.
        -11    1    1    2    0    0 -0.86875670175E+01  0.28856962701E+02  0.52822706560E+02  0.60814771604E+02  0.00000000000E+00 0.  1.
         11    1    1    2    0    0 -0.40085138032E+02 -0.12074150356E+02 -0.22234641280E+02  0.47402348789E+02  0.00000000000E+00 0. -1.
</event>
<event>
 7    1  0.2522928E-009  0.1365437E+03  0.7561462E-02  0.1218057E+00
          4   -1    0    0  501    0  0.00000000000E+00  0.00000000000E+00  0.37616103613E+02  0.37616103613E+02  0.00000000000E+00 0. -1.
         -4   -1    0    0    0  501 -0.00000000000E+00 -0.00000000000E+00 -0.60000475256E+03  0.60000475256E+03  0.00000000000E+00 0.  1.
         25    2    1    2    0    0  0.87678036451E+02 -0.32485458126E+01 -0.41867454343E+03  0.44568832586E+03  0.12510683181E+03 0.  0.
          5    1    3    3  502    0  0.41955549659E+02 -0.60706075175E+02 -0.15139046191E+03  0.16846970074E+03  0.41800000000E+01 0.  1.
         -5    1    3    3    0  502  0.45722486793E+02  0.57457529362E+02 -0.26728408153E+03  0.27721862512E+03  0.41800000000E+01 0.  1.
        -11    1    1    2    0    0 -0.99128395246E+02 -0.18694682419E+02 -0.12643884826E+03  0.16174891729E+03  0.00000000000E+00 0.  1.
         11    1    1    2    0    0  0.11450358795E+02  0.21943228232E+02 -0.17275257254E+02  0.30183613020E+02  0.00000000000E+00 0. -1.
</event>
<event>
 7    1  0.2522928E-009  0.9517094E+02  0.7561462E-02  0.1290792E+00
         -1   -1    0    0    0  501 -0.00000000000E+00  0.00000000000E+00  0.96645570518E+02  0.96645570518E+02  0.00000000000E+00 0.  1.
          1   -1    0    0  501    0  0.00000000000E+00 -0.00000000000E+00 -0.15362979209E+03  0.15362979209E+03  0.00000000000E+00 0. -1.
         25    2    1    2    0    0  0.10237525953E+02  0.47266871671E+02 -0.44400259100E+01  0.13418671436E+03  0.12508955346E+03 0.  0.
          5    1    3    3  502    0 -0.20961349616E+02  0.58092490589E+02 -0.48732083913E+02  0.78780733958E+02  0.41800000000E+01 0.  1.
         -5    1    3    3    0  502  0.31198875570E+02 -0.10825618918E+02  0.44292058003E+02  0.55405980398E+02  0.41800000000E+01 0.  1.
        -11    1    1    2    0    0 -0.32317310350E+02  0.99591168224E+01  0.21800289981E+01  0.33887240705E+02  0.00000000000E+00 0.  1.
         11    1    1    2    0    0  0.22079784397E+02 -0.57225988493E+02 -0.54724224659E+02  0.82201407546E+02  0.00000000000E+00 0. -1.
</event>
<event>
 7    1  0.3260000E-009  0.1205914E+03  0.7561462E-02  0.1242125E+00
          2   -1    0    0  501    0  0.00000000000E+00  0.00000000000E+00  0.99406512655E+03  0.99406512655E+03  0.00000000000E+00 0. -1.
         -2   -1    0    0    0  501 -0.00000000000E+00 -0.00000000000E+00 -0.18573957267E+02  0.18573957267E+02  0.00000000000E+00 0.  1.
         25    2    1    2    0    0 -0.28903093765E+02  0.59939573478E+02  0.71103974973E+03  0.72501954602E+03  0.12509066758E+03 0.  0.
          5    1    3    3  502    0  0.22832316475E+02  0.73019188878E+02  0.26734524668E+03  0.27810801848E+03  0.41800000000E+01 0.  1.
         -5    1    3    3    0  502 -0.51735410239E+02 -0.13079615400E+02  0.44369450305E+03  0.44691152754E+03  0.41800000000E+01 0.  1.
        -11    1    1    2    0    0  0.54002954234E+02 -0.65937830047E+02  0.22367496971E+03  0.23936292230E+03  0.00000000000E+00 0.  1.
         11    1    1    2    0    0 -0.25099860469E+02  0.59982565696E+01  0.40776449845E+02  0.48256615499E+02  0.00000000000E+00 0. -1.
</event>
<event>
 7    1  0.2522928E-009  0.7712338E+02  0.7561462E-02  0.1337419E+00
         -2   -1    0    0    0  501 -0.00000000000E+00  0.00000000000E+00  0.13094944589E+03  0.13094944589E+03  0.00000000000E+00 0. -1.
          2   -1    0    0  501    0  0.00000000000E+00 -0.00000000000E+00 -0.92121980988E+02  0.92121980988E+02  0.00000000000E+00 0.  1.
         25    2    1    2    0    0  0.16362131873E+02 -0.23078693435E+01  0.28312999476E+02  0.12932109501E+03  0.12509705854E+03 0.  0.
          5    1    3    3  502    0  0.48020044006E+02 -0.27997960616E+02  0.56664301656E+02  0.79486639803E+02  0.41800000000E+01 0.  1.
         -5    1    3    3    0  502 -0.31657912133E+02  0.25690091273E+02 -0.28351302180E+02  0.49834455204E+02  0.41800000000E+01 0.  1.
        -11    1    1    2    0    0 -0.36665924373E+02  0.51222307931E+01  0.42121200913E+02  0.56078719893E+02  0.00000000000E+00 0. -1.
         11    1    1    2    0    0  0.20303792499E+02 -0.28143614497E+01 -0.31606735492E+02  0.37671611974E+02  0.00000000000E+00 0.  1.
</event>
<event>
 7    1  0.2522928E-009  0.8779485E+02  0.7561462E-02  0.1308281E+00
         -1   -1    0    0    0  501 -0.00000000000E+00  0.00000000000E+00  0.24365370122E+03  0.24365370122E+03  0.00000000000E+00 0.  1.
          1   -1    0    0  501    0  0.00000000000E+00 -0.00000000000E+00 -0.67289119082E+02  0.67289119082E+02  0.00000000000E+00 0. -1.
         25    2    1    2    0    0 -0.25156432750E+02  0.75707688399E+02  0.11583509589E+03  0.18822902340E+03  0.12509154894E+03 0.  0.
          5    1    3    3  502    0  0.24309249617E+00  0.15567452007E+02  0.12150172745E+03  0.12256649962E+03  0.41800000000E+01 0.  1.
         -5    1    3    3    0  502 -0.25399525246E+02  0.60140236393E+02 -0.56666315539E+01  0.65662523781E+02  0.41800000000E+01 0.  1.
        -11    1    1    2    0    0  0.20167111901E+02 -0.21014588440E+01  0.42013735378E+02  0.46650642998E+02  0.00000000000E+00 0.  1.
         11    1    1    2    0    0  0.49893208486E+01 -0.73606229555E+02  0.18515750867E+02  0.76063153906E+02  0.00000000000E+00 0. -1.
</event>
<event>
 7    1  0.2522928E-009  0.1118957E+03  0.7561462E-02  0.1257099E+00
         -2   -1    0    0    0  501 -0.00000000000E+00  0.00000000000E+00  0.67382775168E+02  0.67382775168E+02  0.00000000000E+00 0.  1.
          2   -1    0    0  501    0  0.00000000000E+00 -0.00000000000E+00 -0.28873239887E+03  0.28873239887E+03  0.00000000000E+00 0. -1.
         25    2    1    2    0    0 -0.19582681629E+02  0.85717171484E+02 -0.11839277142E+03  0.19337823189E+03  0.12508947732E+03 0.  0.
          5    1    3    3  502    0  0.31688555892E+02  0.45490157855E+02 -0.11529794607E+03  0.12800237421E+03  0.41800000000E+01 0. -1.
         -5    1    3    3    0  502 -0.51271237521E+02  0.40227013629E+02 -0.30948253450E+01  0.65375857671E+02  0.41800000000E+01 0. -1.
        -11    1    1    2    0    0  0.35625015155E+02 -0.35985255714E+02 -0.97921849389E+02  0.11023959779E+03  0.00000000000E+00 0. -1.
         11    1    1    2    0    0 -0.16042333527E+02 -0.49731915770E+02 -0.50350029007E+01  0.52497344365E+02  0.00000000000E+00 0.  1.
</event>
<event>
 7    1  0.2522928E-009  0.1102186E+03  0.7561462E-02  0.1260166E+00
          2   -1    0    0  501    0  0.00000000000E+00  0.00000000000E+00  0.41452764535E+03  0.41452764535E+03  0.00000000000E+00 0.  1.
         -2   -1    0    0    0  501 -0.00000000000E+00 -0.00000000000E+00 -0.46374612084E+02  0.46374612084E+02  0.00000000000E+00 0. -1.
         25    2    1    2    0    0 -0.55413795365E+02 -0.64877036076E+02  0.19151099510E+03  0.24412799973E+03  0.12506918277E+03 0.  0.
          5    1    3    3  502    0 -0.44488233865E+02 -0.17145916935E+02  0.18895036115E+03  0.19491766672E+03  0.41800000000E+01 0.  1.
         -5    1    3    3    0  502 -0.10925561500E+02 -0.47731119140E+02  0.25606339526E+01  0.49210333007E+02  0.41800000000E+01 0.  1.
        -11    1    1    2    0    0 -0.24405548324E+01 -0.20310575274E+02  0.46641302981E+02  0.50930216175E+02  0.00000000000E+00 0.  1.
         11    1    1    2    0    0  0.57854350198E+02  0.85187611349E+02  0.13000073518E+03  0.16584404153E+03  0.00000000000E+00 0. -1.
</event>
<event>
 7    1  0.2522928E-009  0.1021993E+03  0.7561462E-02  0.1275738E+00
          1   -1    0    0  501    0  0.00000000000E+00  0.00000000000E+00  0.20889265940E+03  0.20889265940E+03  0.00000000000E+00 0. -1.
         -1   -1    0    0    0  501 -0.00000000000E+00 -0.00000000000E+00 -0.80935030803E+02  0.80935030803E+02  0.00000000000E+00 0.  1.
         25    2    1    2    0    0  0.32405802340E+02 -0.48594988135E+02  0.28553306702E+02  0.14097369836E+03  0.12508670357E+03 0.  0.
          5    1    3    3  502    0  0.64630734659E+02 -0.96286421145E+01  0.53387980327E+02  0.84484267500E+02  0.41800000000E+01 0. -1.
         -5    1    3    3    0  502 -0.32224932319E+02 -0.38966346021E+02 -0.24834673624E+02  0.56489430863E+02  0.41800000000E+01 0. -1.
        -11    1    1    2    0    0  0.14495465408E+02 -0.64510232740E+01 -0.92260650366E+01  0.18353596234E+02  0.00000000000E+00 0.  1.
         11    1    1    2    0    0 -0.46901267748E+02  0.55046011409E+02  0.10863038693E+03  0.13050039561E+03  0.00000000000E+00 0. -1.
</event>
<event>
 7    1  0.2522928E-009  0.1057964E+03  0.7561462E-02  0.1268558E+00
         -1   -1    0    0    0  501 -0.00000000000E+00  0.00000000000E+00  0.36778151162E+02  0.36778151162E+02  0.00000000000E+00 0.  1.
          1   -1    0    0  501    0  0.00000000000E+00 -0.00000000000E+00 -0.52984038642E+03  0.52984038642E+03  0.00000000000E+00 0. -1.
         25    2    1    2    0    0  0.52101673119E+02 -0.37211429449E+02 -0.16581415529E+03  0.21734985973E+03  0.12508937848E+03 0.  0.
          5    1    3    3  502    0  0.15607563651E+02  0.17720648951E+02 -0.14657556627E+03  0.14852436321E+03  0.41800000000E+01 0.  1.
         -5    1    3    3    0  502  0.36494109468E+02 -0.54932078400E+02 -0.19238589022E+02  0.68825496517E+02  0.41800000000E+01 0.  1.
        -11    1    1    2    0    0  0.22463165201E+02 -0.17970579410E+02 -0.91973499256E+02  0.96367318529E+02  0.00000000000E+00 0. -1.
         11    1    1    2    0    0 -0.74564838320E+02  0.55182008859E+02 -0.23527458071E+03  0.25290135932E+03  0.00000000000E+00 0.  1.
</event>
<event>
 7    1  0.2522928E-009  0.1173679E+03  0.7561462E-02  0.1247503E+00
          2   -1    0    0  501    0  0.00000000000E+00  0.00000000000E+00  0.28894126953E+03  0.28894126953E+03  0.00000000000E+00 0. -1.
         -2   -1    0    0    0  501 -0.00000000000E+00 -0.00000000000E+00 -0.10782774188E+03  0.10782774188E+03  0.00000000000E+00 0.  1.
         25    2    1    2    0    0 -0.51533611714E+02 -0.92237141092E+02 -0.50077135922E+01  0.16381472421E+03  0.12508710301E+03 0.  0.
          5    1    3    3  502    0 -0.39911427101E+02 -0.58668746982E+02  0.57747602867E+02  0.91581668048E+02  0.41800000000E+01 0. -1.
         -5    1    3    3    0  502 -0.11622184613E+02 -0.33568394110E+02 -0.62755316460E+02  0.72233056160E+02  0.41800000000E+01 0. -1.
        -11    1    1    2    0    0  0.12512522285E+01  0.74585904875E+02  0.58978679407E+02  0.95095254681E+02  0.00000000000E+00 0.  1.
         11    1    1    2    0    0  0.50282359486E+02  0.17651236217E+02  0.12714256183E+03  0.13785903251E+03  0.00000000000E+00 0. -1.
</event>
<event>
 7    1  0.2522928E-009  0.9171398E+02  0.7561462E-02  0.1298753E+00
          4   -1    0    0  501    0  0.00000000000E+00  0.00000000000E+00  0.55970320909E+02  0.55970320909E+02  0.00000000000E+00 0. -1.
         -4   -1    0    0    0  501 -0.00000000000E+00 -0.00000000000E+00 -0.22301686822E+03  0.22301686822E+03  0.00000000000E+00 0.  1.
         25    2    1    2    0    0  0.47832912474E+01  0.14149330132E+02 -0.71726113048E+02  0.14496972391E+03  0.12509397323E+03 0.  0.
          5    1    3    3  502    0 -0.24856760208E+02 -0.29463302180E+02  0.16470076753E+02  0.42126957304E+02  0.41800000000E+01 0. -1.
         -5    1    3    3    0  502  0.29640051456E+02  0.43612632312E+02 -0.88196189802E+02  0.10284276661E+03  0.41800000000E+01 0. -1.
        -11    1    1    2    0    0 -0.34175188865E+02 -0.40002440884E+02 -0.69318902498E+02  0.87024416426E+02  0.00000000000E+00 0.  1.
         11    1    1    2    0    0  0.29391897618E+02  0.25853110752E+02 -0.26001531768E+02  0.46993048799E+02  0.00000000000E+00 0. -1.
</event>
<event>
 7    1  0.2522928E-009  0.2331902E+03  0.7561462E-02  0.1124414E+00
         -2   -1    0    0    0  501 -0.00000000000E+00  0.00000000000E+00  0.13916852681E+03  0.13916852681E+03  0.00000000000E+00 0.  1.
          2   -1    0    0  501    0  0.00000000000E+00 -0.00000000000E+00 -0.68726704875E+03  0.68726704875E+03  0.00000000000E+00 0. -1.
         25    2    1    2    0    0 -0.23055874637E+03 -0.20702127327E+02 -0.48866786178E+02  0.26762109778E+03  0.12508867087E+03 0.  0.
          5    1    3    3  502    0 -0.20501554553E+03 -0.24707190868E+02  0.62094126601E+01  0.20663457696E+03  0.41800000000E+01 0.  1.
         -5    1    3    3    0  502 -0.25543200845E+02  0.40050635406E+01 -0.55076198839E+02  0.60986520821E+02  0.41800000000E+01 0.  1.
        -11    1    1    2    0    0  0.21114375303E+03  0.97763520237E+01 -0.49185132142E+03  0.53534566766E+03  0.00000000000E+00 0. -1.
         11    1    1    2    0    0  0.19414993342E+02  0.10925775303E+02 -0.73804143459E+01  0.23468810118E+02  0.00000000000E+00 0.  1.
</event>
<event>
 7    1  0.2522928E-009  0.1528584E+03  0.7561462E-02  0.1197004E+00
          1   -1    0    0  501    0  0.00000000000E+00  0.00000000000E+00  0.14487087180E+03  0.14487087180E+03  0.00000000000E+00 0. -1.
         -1   -1    0    0    0  501 -0.00000000000E+00 -0.00000000000E+00 -0.19230338123E+03  0.19230338123E+03  0.00000000000E+00 0.  1.
         25    2    1    2    0    0 -0.26961142588E+02 -0.12629700614E+03 -0.20072095492E+02  0.18090690943E+03  0.12508630578E+03 0.  0.
          5    1    3    3  502    0  0.32881760214E+02 -0.90923834484E+02 -0.45276886285E+02  0.10684485324E+03  0.41800000000E+01 0.  1.
         -5    1    3    3    0  502 -0.59842902802E+02 -0.35373171656E+02  0.25204790793E+02  0.74062056194E+02  0.41800000000E+01 0.  1.
        -11    1    1    2    0    0 -0.85793311459E+01  0.82271958258E+02 -0.48475218693E+02  0.95875580133E+02  0.00000000000E+00 0.  1.
         11    1    1    2    0    0  0.35540473733E+02  0.44025047881E+02  0.21114804757E+02  0.60391763462E+02  0.00000000000E+00 0. -1.
</event>
<event>
 7    1  0.2522928E-009  0.1657270E+03  0.7561462E-02  0.1182379E+00
         -1   -1    0    0    0  501 -0.00000000000E+00  0.00000000000E+00  0.49536983709E+02  0.49536983709E+02  0.00000000000E+00 0.  1.
          1   -1    0    0  501    0  0.00000000000E+00 -0.00000000000E+00 -0.65715164095E+03  0.65715164095E+03  0.00000000000E+00 0. -1.
         25    2    1    2    0    0 -0.14184292793E+03  0.90492824883E+01 -0.36744760053E+03  0.41335902025E+03  0.12508650911E+03 0.  0.
          5    1    3    3  502    0 -0.11587826304E+03  0.61048240439E+02 -0.25142914328E+03  0.28352909197E+03  0.41800000000E+01 0.  1.
         -5    1    3    3    0  502 -0.25964664891E+02 -0.51998957951E+02 -0.11601845726E+03  0.12982992827E+03  0.41800000000E+01 0.  1.
        -11    1    1    2    0    0  0.11144477101E+03 -0.64470125772E+01 -0.23783667701E+03  0.26273139494E+03  0.00000000000E+00 0. -1.
         11    1    1    2    0    0  0.30398156926E+02 -0.26022699111E+01 -0.23303796938E+01  0.30598209469E+02  0.00000000000E+00 0.  1.
</event>
<event>
 7    1  0.2522928E-009  0.1778213E+03  0.7561462E-02  0.1169928E+00
         -1   -1    0    0    0  501 -0.00000000000E+00  0.00000000000E+00  0.17660158075E+03  0.17660158075E+03  0.00000000000E+00 0.  1.
          1   -1    0    0  501    0  0.00000000000E+00 -0.00000000000E+00 -0.19772707453E+03  0.19772707453E+03  0.00000000000E+00 0. -1.
         25    2    1    2    0    0  0.64102632583E+02 -0.13569973121E+03 -0.32365518390E+02  0.19803383784E+03  0.12508520934E+03 0.  0.
          5    1    3    3  502    0  0.35625348635E+02  0.77634597553E+01 -0.36353708764E+02  0.51657538788E+02  0.41800000000E+01 0.  1.
         -5    1    3    3    0  502  0.28477283949E+02 -0.14346319096E+03  0.39881903741E+01  0.14637629905E+03  0.41800000000E+01 0.  1.
        -11    1    1    2    0    0 -0.26384897384E+02 -0.50852492846E+01 -0.10661950496E+02  0.28908472091E+02  0.00000000000E+00 0.  1.
         11    1    1    2    0    0 -0.37717735199E+02  0.14078498049E+03  0.21901975105E+02  0.14738634534E+03  0.00000000000E+00 0. -1.
</event>
<event>
 7    1  0.2522928E-009  0.8653133E+02  0.7561462E-02  0.1311476E+00
         -1   -1    0    0    0  501 -0.00000000000E+00  0.00000000000E+00  0.16030479570E+03  0.16030479570E+03  0.00000000000E+00 0.  1.
          1   -1    0    0  501    0  0.00000000000E+00 -0.00000000000E+00 -0.87440448417E+02  0.87440448417E+02  0.00000000000E+00 0. -1.
         25    2    1    2    0    0 -0.42490518126E+02 -0.23879087457E+02  0.43448602792E+02  0.14111108592E+03  0.12509557361E+03 0.  0.
          5    1    3    3  502    0 -0.44061743113E+02  0.31069920588E+01 -0.35967829295E+02  0.57116090115E+02  0.41800000000E+01 0.  1.
         -5    1    3    3    0  502  0.15712249866E+01 -0.26986079516E+02  0.79416432087E+02  0.83994995809E+02  0.41800000000E+01 0.  1.
        -11    1    1    2    0    0  0.15263027564E+02  0.56687477351E+02  0.91034487426E+01  0.59407936152E+02  0.00000000000E+00 0.  1.
         11    1    1    2    0    0  0.27227490562E+02 -0.32808389894E+02  0.20312295748E+02  0.47226222041E+02  0.00000000000E+00 0. -1.
</event>
<event>
 7    1  0.2522928E-009  0.1258739E+03  0.7561462E-02  0.1233710E+00
         -1   -1    0    0    0  501 -0.00000000000E+00  0.00000000000E+00  0.55596751891E+02  0.55596751891E+02  0.00000000000E+00 0.  1.
          1   -1    0    0  501    0  0.00000000000E+00 -0.00000000000E+00 -0.30275460937E+03  0.30275460937E+03  0.00000000000E+00 0. -1.
         25    2    1    2    0    0 -0.17753768344E+02  0.65059168698E+02 -0.17069908449E+03  0.22210646466E+03  0.12508082377E+03 0.  0.
          5    1    3    3  502    0 -0.43085942566E+02  0.93904295533E+02 -0.12764324402E+03  0.16427015952E+03  0.41800000000E+01 0.  1.
         -5    1    3    3    0  502  0.25332174222E+02 -0.28845126835E+02 -0.43055840477E+02  0.57836305139E+02  0.41800000000E+01 0.  1.
        -11    1    1    2    0    0  0.35607273578E+02  0.63094268569E+01 -0.11071931855E+02  0.37818969762E+02  0.00000000000E+00 0. -1.
         11    1    1    2    0    0 -0.17853505233E+02 -0.71368595555E+02 -0.65386841129E+02  0.98425926835E+02  0.00000000000E+00 0.  1.
</event>
<event>
 7    1  0.2821168E-009  0.1046933E+03  0.7561462E-02  0.1270725E+00
         -2   -1    0    0    0  501 -0.00000000000E+00  0.00000000000E+00  0.52741963596E+02  0.52741963596E+02  0.00000000000E+00 0.  1.
          2   -1    0    0  501    0  0.00000000000E+00 -0.00000000000E+00 -0.35179947460E+03  0.35179947460E+03  0.00000000000E+00 0. -1.
         25    2    1    2    0    0 -0.58096351305E+02  0.30998607061E+02 -0.23621400527E+03  0.27528403694E+03  0.12509254588E+03 0.  0.
          5    1    3    3  502    0 -0.75463462427E+02  0.20885575932E+02 -0.24164662569E+03  0.25405020281E+03  0.41800000000E+01 0. -1.
         -5    1    3    3    0  502  0.17367111122E+02  0.10113031129E+02  0.54326204136E+01  0.21233834131E+02  0.41800000000E+01 0. -1.
        -11    1    1    2    0    0  0.49797326801E+02  0.23681352450E+02 -0.44911006153E+02  0.71116655462E+02  0.00000000000E+00 0. -1.
         11    1    1    2    0    0  0.82990245039E+01 -0.54679959511E+02 -0.17932499578E+02  0.58140745790E+02  0.00000000000E+00 0.  1.
</event>
<event>
 7    1  0.2522928E-009  0.3069271E+03  0.7561462E-02  0.1081828E+00
          2   -1    0    0  501    0  0.00000000000E+00  0.00000000000E+00  0.55223660761E+02  0.55223660761E+02  0.00000000000E+00 0. -1.
         -2   -1    0    0    0  501 -0.00000000000E+00 -0.00000000000E+00 -0.17815393434E+04  0.17815393434E+04  0.00000000000E+00 0.  1.
         25    2    1    2    0    0  0.27900022895E+03 -0.86112049606E+02 -0.94798145015E+03  0.99978597845E+03  0.12508700987E+03 0.  0.
          5    1    3    3  502    0  0.26228635429E+03 -0.11307415626E+03 -0.85107407099E+03  0.89773294647E+03  0.41800000000E+01 0.  1.
         -5    1    3    3    0  502  0.16713874657E+02  0.26962106655E+02 -0.96907379158E+02  0.10205303198E+03  0.41800000000E+01 0.  1.
        -11    1    1    2    0    0 -0.10147284765E+03  0.56755882742E+02 -0.20047169230E+03  0.23174742382E+03  0.00000000000E+00 0.  1.
         11    1    1    2    0    0 -0.17752738130E+03  0.29356166864E+02 -0.57786254021E+03  0.60522960191E+03  0.00000000000E+00 0. -1.
</event>
<event>
 7    1  0.2522928E-009  0.2601786E+03  0.7561462E-02  0.1107036E+00
          1   -1    0    0  501    0  0.00000000000E+00  0.00000000000E+00  0.20483651889E+03  0.20483651889E+03  0.00000000000E+00 0. -1.
         -1   -1    0    0    0  501 -0.00000000000E+00 -0.00000000000E+00 -0.35098246845E+03  0.35098246845E+03  0.00000000000E+00 0.  1.
         25    2    1    2    0    0 -0.10402119918E+03 -0.22174073508E+03 -0.81294487536E+02  0.28678424054E+03  0.12508814270E+03 0.  0.
          5    1    3    3  502    0 -0.12122076858E+02 -0.13931919772E+03 -0.18411499480E+01  0.13992014091E+03  0.41800000000E+01 0.  1.
         -5    1    3    3    0  502 -0.91899122318E+02 -0.82421537364E+02 -0.79453337588E+02  0.14686409962E+03  0.41800000000E+01 0.  1.
        -11    1    1    2    0    0  0.48872415465E+02  0.18331391701E+03 -0.68538154213E+02  0.20171758413E+03  0.00000000000E+00 0.  1.
         11    1    1    2    0    0  0.55148783710E+02  0.38426818068E+02  0.36866921858E+01  0.67317162677E+02  0.00000000000E+00 0. -1.
</event>
<event>
 7    1  0.2522928E-009  0.1110327E+03  0.7561462E-02  0.1258669E+00
          1   -1    0    0  501    0  0.00000000000E+00  0.00000000000E+00  0.10952441920E+03  0.10952441920E+03  0.00000000000E+00 0. -1.
         -1   -1    0    0    0  501 -0.00000000000E+00 -0.00000000000E+00 -0.17151900504E+03  0.17151900504E+03  0.00000000000E+00 0.  1.
         25    2    1    2    0    0  0.80403859207E+02  0.43142572344E+01 -0.55396062581E+02  0.15874475608E+03  0.12509108858E+03 0.  0.
          5    1    3    3  502    0 -0.38640629376E+01 -0.31333292630E+02 -0.59037680266E+02  0.67079253876E+02  0.41800000000E+01 0. -1.
         -5    1    3    3    0  502  0.84267922145E+02  0.35647549865E+02  0.36416176850E+01  0.91665502199E+02  0.41800000000E+01 0. -1.
        -11    1    1    2    0    0  0.33983846801E+01  0.12671911955E+02 -0.30762610749E+02  0.33443453637E+02  0.00000000000E+00 0.  1.
         11    1    1    2    0    0 -0.83802243888E+02 -0.16986169189E+02  0.24164087492E+02  0.88855214527E+02  0.00000000000E+00 0. -1.
</event>
<event>
 7    1  0.2522928E-009  0.1341812E+03  0.7561462E-02  0.1221380E+00
         -4   -1    0    0    0  501 -0.00000000000E+00  0.00000000000E+00  0.15488951387E+03  0.15488951387E+03  0.00000000000E+00 0.  1.
          4   -1    0    0  501    0  0.00000000000E+00 -0.00000000000E+00 -0.13787827723E+03  0.13787827723E+03  0.00000000000E+00 0. -1.
         25    2    1    2    0    0 -0.86332891676E+02  0.41882208948E+02  0.31056285211E+01  0.15768324304E+03  0.12508745978E+03 0.  0.
          5    1    3    3  502    0 -0.11624686119E+03  0.43229377467E+02 -0.10479527733E+02  0.12453676049E+03  0.41800000000E+01 0. -1.
         -5    1    3    3    0  502  0.29913969509E+02 -0.13471685191E+01  0.13585156254E+02  0.33146482547E+02  0.41800000000E+01 0. -1.
        -11    1    1    2    0    0 -0.43349177689E+01 -0.20398961699E+02  0.33885161377E+02  0.39788356488E+02  0.00000000000E+00 0.  1.
         11    1    1    2    0    0  0.90667809445E+02 -0.21483247248E+02 -0.19979553259E+02  0.95296191584E+02  0.00000000000E+00 0. -1.
</event>
<event>
 7    1  0.2522928E-009  0.1124214E+03  0.7561462E-02  0.1256150E+00
         -2   -1    0    0    0  501 -0.00000000000E+00  0.00000000000E+00  0.41483398561E+02  0.41483398561E+02  0.00000000000E+00 0.  1.
          2   -1    0    0  501    0  0.00000000000E+00 -0.00000000000E+00 -0.35142758872E+03  0.35142758872E+03  0.00000000000E+00 0. -1.
         25    2    1    2    0    0 -0.51127849998E+02  0.44794443302E+01 -0.19833102540E+03  0.24003448362E+03  0.12508890927E+03 0.  0.
          5    1    3    3  502    0 -0.92568155620E+02  0.85567485412E+01 -0.14406011879E+03  0.17150181226E+03  0.41800000000E+01 0.  1.
         -5    1    3    3    0  502  0.41440305622E+02 -0.40773042110E+01 -0.54270906607E+02  0.68532671359E+02  0.41800000000E+01 0.  1.
        -11    1    1    2    0    0  0.68071085467E+02 -0.15383429764E+02 -0.11285478695E+03  0.13268958334E+03  0.00000000000E+00 0. -1.
         11    1    1    2    0    0 -0.16943235469E+02  0.10903985434E+02  0.12416221980E+01  0.20186920325E+02  0.00000000000E+00 0.  1.
</event>
<event>
 7    1  0.2522928E-009  0.7075139E+02  0.7561462E-02  0.1357556E+00
         -1   -1    0    0    0  501 -0.00000000000E+00  0.00000000000E+00  0.17121618635E+02  0.17121618635E+02  0.00000000000E+00 0.  1.
          1   -1    0    0  501    0  0.00000000000E+00 -0.00000000000E+00 -0.69222449454E+03  0.69222449454E+03  0.00000000000E+00 0. -1.
         25    2    1    2    0    0 -0.34128008173E+01  0.55299978670E+01 -0.35983153366E+03  0.38100847039E+03  0.12508594569E+03 0.  0.
          5    1    3    3  502    0  0.43028843278E+01  0.26656047556E+02 -0.80500276324E+01  0.28483943367E+02  0.41800000000E+01 0. -1.
         -5    1    3    3    0  502 -0.77156851451E+01 -0.21126049689E+02 -0.35178150603E+03  0.35252452703E+03  0.41800000000E+01 0. -1.
        -11    1    1    2    0    0 -0.11653349035E+02 -0.46349928795E+02 -0.18025891961E+03  0.18648698224E+03  0.00000000000E+00 0.  1.
         11    1    1    2    0    0  0.15066149852E+02  0.40819930928E+02 -0.13501242264E+03  0.14185066055E+03  0.00000000000E+00 0. -1.
</event>
<event>
 7    1  0.2522928E-009  0.1163141E+03  0.7561462E-02  0.1249305E+00
         -2   -1    0    0    0  501 -0.00000000000E+00  0.00000000000E+00  0.10991546553E+03  0.10991546553E+03  0.00000000000E+00 0.  1.
          2   -1    0    0  501    0  0.00000000000E+00 -0.00000000000E+00 -0.21714638355E+03  0.21714638355E+03  0.00000000000E+00 0. -1.
         25    2    1    2    0    0 -0.49410520236E+02  0.11050748322E+00  0.45860870628E+02  0.14209999324E+03  0.12509107443E+03 0.  0.
          5    1    3    3  502    0  0.38790056433E+02 -0.19268119506E+02  0.87837256481E+01  0.44390935377E+02  0.41800000000E+01 0. -1.
         -5    1    3    3    0  502 -0.88200576669E+02  0.19378626990E+02  0.37077144980E+02  0.97709057864E+02  0.41800000000E+01 0. -1.
        -11    1    1    2    0    0 -0.10187272397E+02  0.30185139008E+02 -0.78912171470E+02  0.85100258178E+02  0.00000000000E+00 0. -1.
         11    1    1    2    0    0  0.59597792633E+02 -0.30295646492E+02 -0.74179617180E+02  0.99861597664E+02  0.00000000000E+00 0.  1.
</event>
<event>
 7    1  0.2522928E-009  0.8030115E+02  0.7561462E-02  0.1328199E+00
          3   -1    0    0  501    0  0.00000000000E+00  0.00000000000E+00  0.47515768399E+02  0.47515768399E+02  0.00000000000E+00 0. -1.
         -3   -1    0    0    0  501 -0.00000000000E+00 -0.00000000000E+00 -0.29449611109E+03  0.29449611109E+03  0.00000000000E+00 0.  1.
         25    2    1    2    0    0  0.27416835822E+02 -0.33239152955E+02 -0.15074506164E+03  0.20057140250E+03  0.12509312418E+03 0.  0.
          5    1    3    3  502    0  0.43980805809E+02 -0.39071292948E+02 -0.16648421328E+03  0.17662203397E+03  0.41800000000E+01 0. -1.
         -5    1    3    3    0  502 -0.16563969987E+02  0.58321399926E+01  0.15739151640E+02  0.23949368530E+02  0.41800000000E+01 0. -1.
        -11    1    1    2    0    0 -0.20419339037E+02 -0.20762099829E+02 -0.79201972536E+02  0.84385820192E+02  0.00000000000E+00 0.  1.
         11    1    1    2    0    0 -0.69974967846E+01  0.54001252784E+02 -0.17033308517E+02  0.57054656799E+02  0.00000000000E+00 0. -1.
</event>
<event>
 7    1  0.2522928E-009  0.8684489E+02  0.7561462E-02  0.1310677E+00
         -1   -1    0    0    0  501 -0.00000000000E+00  0.00000000000E+00  0.38427410729E+02  0.38427410729E+02  0.00000000000E+00 0.  1.
          1   -1    0    0  501    0  0.00000000000E+00 -0.00000000000E+00 -0.35506891208E+03  0.35506891208E+03  0.00000000000E+00 0. -1.
         25    2    1    2    0    0 -0.24614944975E+02  0.14735908565E+02 -0.12613348698E+03  0.17994656341E+03  0.12509223249E+03 0.  0.
          5    1    3    3  502    0 -0.50262563175E+02  0.15716824356E+02 -0.14059425965E+03  0.15019175101E+03  0.41800000000E+01 0.  1.
         -5    1    3    3    0  502  0.25647618200E+02 -0.98091579080E+00  0.14460772667E+02  0.29754812405E+02  0.41800000000E+01 0.  1.
        -11    1    1    2    0    0  0.41922296039E+02 -0.44053055769E+02 -0.10244294328E+03  0.11913314927E+03  0.00000000000E+00 0.  1.
         11    1    1    2    0    0 -0.17307351064E+02  0.29317147203E+02 -0.88065071086E+02  0.94416610120E+02  0.00000000000E+00 0. -1.
</event>
<event>
 7    1  0.2522928E-009  0.1143292E+03  0.7561462E-02  0.1252757E+00
         -2   -1    0    0    0  501 -0.00000000000E+00  0.00000000000E+00  0.14369103298E+03  0.14369103298E+03  0.00000000000E+00 0.  1.
          2   -1    0    0  501    0  0.00000000000E+00 -0.00000000000E+00 -0.12457314642E+03  0.12457314642E+03  0.00000000000E+00 0. -1.
         25    2    1    2    0    0  0.37642372426E+02 -0.45679268394E+02 -0.37041715071E+02  0.14325538932E+03  0.12508586711E+03 0.  0.
          5    1    3    3  502    0 -0.12815745819E+02 -0.77119210909E+02 -0.27021311640E+02  0.82820527135E+02  0.41800000000E+01 0.  1.
         -5    1    3    3    0  502  0.50458118245E+02  0.31439942515E+02 -0.10020403431E+02  0.60434862183E+02  0.41800000000E+01 0.  1.
        -11    1    1    2    0    0  0.18193278028E+02  0.25660774620E+02  0.57651020078E+02  0.65674278341E+02  0.00000000000E+00 0.  1.
         11    1    1    2    0    0 -0.55835650454E+02  0.20018493774E+02 -0.14914184543E+01  0.59334511742E+02  0.00000000000E+00 0. -1.
</event>
<event>
 7    1  0.2522928E-009  0.7364944E+02  0.7561462E-02  0.1348105E+00
          1   -1    0    0  501    0  0.00000000000E+00  0.00000000000E+00  0.33921590438E+03  0.33921590438E+03  0.00000000000E+00 0. -1.
         -1   -1    0    0    0  501 -0.00000000000E+00 -0.00000000000E+00 -0.49187541429E+02  0.49187541429E+02  0.00000000000E+00 0.  1.
         25    2    1    2    0    0  0.56522859881E+02 -0.35781988640E+02  0.12700878386E+03  0.19040522149E+03  0.12509089812E+03 0.  0.
          5    1    3    3  502    0  0.43495680013E+02 -0.49486021735E+01 -0.13423401839E+02  0.45978505415E+02  0.41800000000E+01 0. -1.
         -5    1    3    3    0  502  0.13027179868E+02 -0.30833386467E+02  0.14043218570E+03  0.14442671608E+03  0.41800000000E+01 0. -1.
        -11    1    1    2    0    0 -0.29048790871E+02  0.71627901040E+01 -0.30909290330E+00  0.29920450391E+02  0.00000000000E+00 0.  1.
         11    1    1    2    0    0 -0.27474069010E+02  0.28619198536E+02  0.16332867200E+03  0.16807777393E+03  0.00000000000E+00 0. -1.
</event>
<event>
 7    1  0.2522928E-009  0.1318628E+03  0.7561462E-02  0.1224718E+00
          1   -1    0    0  501    0  0.00000000000E+00  0.00000000000E+00  0.33206108175E+02  0.33206108175E+02  0.00000000000E+00 0. -1.
         -1   -1    0    0    0  501 -0.00000000000E+00 -0.00000000000E+00 -0.61770451826E+03  0.61770451826E+03  0.00000000000E+00 0.  1.
         25    2    1    2    0    0  0.50706631178E+02 -0.54715394454E+02 -0.19382337873E+03  0.24244752560E+03  0.12509341985E+03 0.  0.
          5    1    3    3  502    0  0.62074709199E+02  0.22637844594E+02 -0.10405679005E+03  0.12333300241E+03  0.41800000000E+01 0. -1.
         -5    1    3    3    0  502 -0.11368078021E+02 -0.77353239047E+02 -0.89766588685E+02  0.11911452318E+03  0.41800000000E+01 0. -1.
        -11    1    1    2    0    0 -0.41515866756E+01  0.70077082017E+02 -0.23151126784E+03  0.24192044195E+03  0.00000000000E+00 0.  1.
         11    1    1    2    0    0 -0.46555044503E+02 -0.15361687563E+02 -0.15916376351E+03  0.16654265889E+03  0.00000000000E+00 0. -1.
</event>
<event>
 6    1  0.2522928E-009  0.7701837E+02  0.7561462E-02  0.1337732E+00
          2   -1    0    0  501    0  0.00000000000E+00  0.00000000000E+00  0.67102630509E+02  0.67102630509E+02  0.00000000000E+00 0. -1.
         -2   -1    0    0    0  501 -0.00000000000E+00 -0.00000000000E+00 -0.23262761603E+03  0.23262761603E+03  0.00000000000E+00 0.  1.
          5    1    1    2  502    0 -0.19240916379E+02 -0.23959294541E+01  0.13013217260E+02  0.23722764689E+02  0.41800000000E+01 0. -1.
         -5    1    1    2    0  502  0.37602451113E+02  0.26258423815E+02 -0.17699058854E+03  0.18288408893E+03  0.41800000000E+01 0. -1.
        -11    1    1    2    0    0  0.76683400256E+01  0.28585518682E+02 -0.14799809317E+02  0.33090325971E+02  0.00000000000E+00 0.  1.
         11    1    1    2    0    0 -0.26029874760E+02 -0.52448013043E+02  0.13252195084E+02  0.60033066944E+02  0.00000000000E+00 0. -1.
</event>
<event>
 7    1  0.2522928E-009  0.9914766E+02  0.7561462E-02  0.1282099E+00
          3   -1    0    0  501    0  0.00000000000E+00  0.00000000000E+00  0.21732901211E+02  0.21732901211E+02  0.00000000000E+00 0.  1.
         -3   -1    0    0    0  501 -0.00000000000E+00 -0.00000000000E+00 -0.56045773883E+03  0.56045773883E+03  0.00000000000E+00 0. -1.
         25    2    1    2    0    0 -0.12191388371E+02 -0.16343155775E+02 -0.33914694239E+03  0.36205660836E+03  0.12509440608E+03 0.  0.
          5    1    3    3  502    0  0.18189105974E+02 -0.54962672154E+02 -0.83476738808E+02  0.10167387682E+03  0.41800000000E+01 0. -1.
         -5    1    3    3    0  502 -0.30380494344E+02  0.38619516379E+02 -0.25567020359E+03  0.26038273154E+03  0.41800000000E+01 0. -1.
        -11    1    1    2    0    0  0.50398568729E+02  0.30815277865E+01 -0.13265743930E+03  0.14194191680E+03  0.00000000000E+00 0. -1.
         11    1    1    2    0    0 -0.38207180358E+02  0.13261627988E+02 -0.66920455930E+02  0.78192114882E+02  0.00000000000E+00 0.  1.
</event>
<event>
 7    1  0.2522928E-009  0.8804171E+02  0.7561462E-02  0.1307664E+00
          1   -1    0    0  501    0  0.00000000000E+00  0.00000000000E+00  0.48146624943E+03  0.48146624943E+03  0.00000000000E+00 0. -1.
         -1   -1    0    0    0  501 -0.00000000000E+00 -0.00000000000E+00 -0.29920723159E+02  0.29920723159E+02  0.00000000000E+00 0.  1.
         25    2    1    2    0    0  0.45206756433E+02  0.27256208260E+02  0.21519489537E+03  0.25444715900E+03  0.12509181435E+03 0.  0.
          5    1    3    3  502    0 -0.10947201262E+01 -0.20886137575E+02  0.17517596615E+03  0.17646960268E+03  0.41800000000E+01 0. -1.
         -5    1    3    3    0  502  0.46301476559E+02  0.48142345834E+02  0.40018929219E+02  0.77977556321E+02  0.41800000000E+01 0. -1.
        -11    1    1    2    0    0  0.19075461886E+02 -0.41559990540E+01  0.13194482796E+02  0.23563530095E+02  0.00000000000E+00 0.  1.
         11    1    1    2    0    0 -0.64282218319E+02 -0.23100209206E+02  0.22315614811E+03  0.23337628349E+03  0.00000000000E+00 0. -1.
</event>
<event>
 7    1  0.2522928E-009  0.1009491E+03  0.7561462E-02  0.1278313E+00
         -1   -1    0    0    0  501 -0.00000000000E+00  0.00000000000E+00  0.54591679347E+02  0.54591679347E+02  0.00000000000E+00 0.  1.
          1   -1    0    0  501    0  0.00000000000E+00 -0.00000000000E+00 -0.23082098320E+03  0.23082098320E+03  0.00000000000E+00 0. -1.
         25    2    1    2    0    0  0.10119317034E+02 -0.27009063315E+02 -0.97867912481E+02  0.16142514822E+03  0.12509220642E+03 0.  0.
          5    1    3    3  502    0 -0.11664791700E+02  0.41013270811E+02 -0.34808554812E+01  0.42985398718E+02  0.41800000000E+01 0.  1.
         -5    1    3    3    0  502  0.21784108734E+02 -0.68022334126E+02 -0.94387056999E+02  0.11843974950E+03  0.41800000000E+01 0.  1.
        -11    1    1    2    0    0 -0.10178088290E+02 -0.29392437898E+02 -0.50841245048E+01  0.31517569843E+02  0.00000000000E+00 0. -1.
         11    1    1    2    0    0  0.58771256176E-01  0.56401501213E+02 -0.73277266869E+02  0.92469944484E+02  0.00000000000E+00 0.  1.
</event>
<event>
 7    1  0.2522928E-009  0.1894516E+03  0.7561462E-02  0.1158957E+00
          2   -1    0    0  501    0  0.00000000000E+00  0.00000000000E+00  0.10454082355E+04  0.10454082355E+04  0.00000000000E+00 0. -1.
         -2   -1    0    0    0  501 -0.00000000000E+00 -0.00000000000E+00 -0.41593547423E+02  0.41593547423E+02  0.00000000000E+00 0.  1.
         25    2    1    2    0    0 -0.11612246919E+03 -0.12500459489E+03  0.69437512304E+03  0.72588872675E+03  0.12508819104E+03 0.  0.
          5    1    3    3  502    0 -0.33629679902E+02  0.10489275485E+02  0.27879228318E+03  0.28104019256E+03  0.41800000000E+01 0.  1.
         -5    1    3    3    0  502 -0.82492789288E+02 -0.13549387037E+03  0.41558283986E+03  0.44484853420E+03  0.41800000000E+01 0.  1.
        -11    1    1    2    0    0  0.81656484357E+02  0.35890474255E+02  0.17158360389E+03  0.19338262772E+03  0.00000000000E+00 0.  1.
         11    1    1    2    0    0  0.34465984833E+02  0.89114120632E+02  0.13785596119E+03  0.16773042849E+03  0.00000000000E+00 0. -1.
</event>
<event>
 7    1  0.2522928E-009  0.1012847E+03  0.7561462E-02  0.1277617E+00
         -2   -1    0    0    0  501 -0.00000000000E+00  0.00000000000E+00  0.18885665423E+02  0.18885665423E+02  0.00000000000E+00 0.  1.
          2   -1    0    0  501    0  0.00000000000E+00 -0.00000000000E+00 -0.64856538400E+03  0.64856538400E+03  0.00000000000E+00 0. -1.
         25    2    1    2    0    0 -0.44529973510E+00  0.20678380587E+01 -0.44302102074E+03  0.46034673132E+03  0.12508802490E+03 0.  0.
          5    1    3    3  502    0  0.56695092856E+02 -0.75898688683E+01 -0.30893682974E+03  0.31421549426E+03  0.41800000000E+01 0. -1.
         -5    1    3    3    0  502 -0.57140392591E+02  0.96577069271E+01 -0.13408419100E+03  0.14613123706E+03  0.41800000000E+01 0. -1.
        -11    1    1    2    0    0  0.11540198018E+02 -0.43095172541E+02 -0.70669375374E+02  0.83573504667E+02  0.00000000000E+00 0.  1.
         11    1    1    2    0    0 -0.11094898283E+02  0.41027334482E+02 -0.11598932246E+03  0.12353081343E+03  0.00000000000E+00 0. -1.
</event>
<event>
 7    1  0.2522928E-009  0.1103369E+03  0.7561462E-02  0.1259947E+00
         -2   -1    0    0    0  501 -0.00000000000E+00  0.00000000000E+00  0.24932963933E+03  0.24932963933E+03  0.00000000000E+00 0. -1.
          2   -1    0    0  501    0  0.00000000000E+00 -0.00000000000E+00 -0.66241854200E+02  0.66241854200E+02  0.00000000000E+00 0.  1.
         25    2    1    2    0    0 -0.11002935244E+02  0.67307207676E+02  0.99929302856E+02  0.17402463633E+03  0.12508950273E+03 0.  0.
          5    1    3    3  502    0  0.18160166081E+02  0.94012756678E+02  0.93218462210E+02  0.13369870660E+03  0.41800000000E+01 0. -1.
         -5    1    3    3    0  502 -0.29163101326E+02 -0.26705549002E+02  0.67108406462E+01  0.40325929730E+02  0.41800000000E+01 0. -1.
        -11    1    1    2    0    0 -0.19215824213E+02 -0.39838639261E+02 -0.48788663006E+01  0.44499083302E+02  0.00000000000E+00 0.  1.
         11    1    1    2    0    0  0.30218759457E+02 -0.27468568415E+02  0.88037348574E+02  0.97047773894E+02  0.00000000000E+00 0. -1.
</event>
<event>
 7    1  0.2522928E-009  0.9065397E+02  0.7561462E-02  0.1301276E+00
         -1   -1    0    0    0  501 -0.00000000000E+00  0.00000000000E+00  0.34987067102E+02  0.34987067102E+02  0.00000000000E+00 0.  1.
          1   -1    0    0  501    0  0.00000000000E+00 -0.00000000000E+00 -0.51995009611E+03  0.51995009611E+03  0.00000000000E+00 0. -1.
         25    2    1    2    0    0  0.18988547039E+02  0.37904221723E+02 -0.40630659889E+03  0.42723532902E+03  0.12509068357E+03 0.  0.
          5    1    3    3  502    0 -0.94175892941E+01 -0.25240264873E+02 -0.17740490800E+02  0.32526287411E+02  0.41800000000E+01 0. -1.
         -5    1    3    3    0  502  0.28406136333E+02  0.63144486596E+02 -0.38856610809E+03  0.39470904161E+03  0.41800000000E+01 0. -1.
        -11    1    1    2    0    0  0.27362214298E+02 -0.49451494762E+01 -0.62766149824E+02  0.68649361529E+02  0.00000000000E+00 0. -1.
         11    1    1    2    0    0 -0.46350761337E+02 -0.32959072247E+02 -0.15890280292E+02  0.59052472663E+02  0.00000000000E+00 0.  1.
</event>
<event>
 7    1  0.2522928E-009  0.2524086E+03  0.7561462E-02  0.1111792E+00
         -1   -1    0    0    0  501 -0.00000000000E+00  0.00000000000E+00  0.28296948469E+03  0.28296948469E+03  0.00000000000E+00 0.  1.
          1   -1    0    0  501    0  0.00000000000E+00 -0.00000000000E+00 -0.23985726744E+03  0.23985726744E+03  0.00000000000E+00 0. -1.
         25    2    1    2    0    0 -0.23562759618E+03  0.19556436629E+02  0.31156018223E+02  0.26929746468E+03  0.12509040217E+03 0.  0.
          5    1    3    3  502    0 -0.15129906171E+03 -0.46686236677E+02  0.33751077018E+02  0.16194943152E+03  0.41800000000E+01 0. -1.
         -5    1    3    3    0  502 -0.84328534469E+02  0.66242673307E+02 -0.25950587947E+01  0.10734803316E+03  0.41800000000E+01 0. -1.
        -11    1    1    2    0    0  0.16798442468E+03 -0.30061355026E+02  0.46469650319E+02  0.17686684371E+03  0.00000000000E+00 0.  1.
         11    1    1    2    0    0  0.67643171497E+02  0.10504918397E+02 -0.34513451298E+02  0.76662443747E+02  0.00000000000E+00 0. -1.
</event>
<event>
 7    1  0.2522928E-009  0.1324988E+03  0.7561462E-02  0.1223794E+00
          1   -1    0    0  501    0  0.00000000000E+00  0.00000000000E+00  0.81758384093E+03  0.81758384093E+03  0.00000000000E+00 0. -1.
         -1   -1    0    0    0  501 -0.00000000000E+00 -0.00000000000E+00 -0.29624356827E+02  0.29624356827E+02  0.00000000000E+00 0.  1.
         25    2    1    2    0    0 -0.65727406570E+02  0.40776528950E+02  0.53026275518E+03  0.55028192863E+03  0.12509514041E+03 0.  0.
          5    1    3    3  502    0 -0.67204229415E+02  0.76190088765E+02  0.46408860614E+03  0.47509687941E+03  0.41800000000E+01 0. -1.
         -5    1    3    3    0  502  0.14768228454E+01 -0.35413559816E+02  0.66174149043E+02  0.75185049219E+02  0.41800000000E+01 0. -1.
        -11    1    1    2    0    0  0.50981407227E+02 -0.74814161195E+02  0.99862567584E+02  0.13479167260E+03  0.00000000000E+00 0.  1.
         11    1    1    2    0    0  0.14745999343E+02  0.34037632245E+02  0.15783416133E+03  0.16213459652E+03  0.00000000000E+00 0. -1.
</event>
<event>
 7    1  0.2522928E-009  0.8895144E+02  0.7561462E-02  0.1305411E+00
          2   -1    0    0  501    0  0.00000000000E+00  0.00000000000E+00  0.26379025258E+03  0.26379025258E+03  0.00000000000E+00 0. -1.
         -2   -1    0    0    0  501 -0.00000000000E+00 -0.00000000000E+00 -0.85240951067E+02  0.85240951067E+02  0.00000000000E+00 0.  1.
         25    2    1    2    0    0 -0.62024814570E+02 -0.24108701829E+02  0.18575526186E+03  0.23362536920E+03  0.12508992244E+03 0.  0.
          5    1    3    3  502    0 -0.44245447109E+02  0.11546282805E+02  0.18797616567E+03  0.19350319764E+03  0.41800000000E+01 0. -1.
         -5    1    3    3    0  502 -0.17779367461E+02 -0.35654984634E+02 -0.22209038097E+01  0.40122171555E+02  0.41800000000E+01 0. -1.
        -11    1    1    2    0    0  0.71117015394E+02  0.56416986825E+01  0.26340340822E+02  0.76047828352E+02  0.00000000000E+00 0. -1.
         11    1    1    2    0    0 -0.90922008238E+01  0.18467003146E+02 -0.33546301177E+02  0.39358006094E+02  0.00000000000E+00 0.  1.
</event>
<event>
 7    1  0.2522928E-009  0.9653829E+02  0.7561462E-02  0.1287749E+00
          4   -1    0    0  501    0  0.00000000000E+00  0.00000000000E+00  0.10644233610E+03  0.10644233610E+03  0.00000000000E+00 0. -1.
         -4   -1    0    0    0  501 -0.00000000000E+00 -0.00000000000E+00 -0.13357719950E+03  0.13357719950E+03  0.00000000000E+00 0.  1.
         25    2    1    2    0    0 -0.30345070894E+02 -0.21578102475E+02 -0.46515417232E+02  0.13855550801E+03  0.12508999531E+03 0.  0.
          5    1    3    3  502    0  0.75008567347E+01 -0.69074347980E+02 -0.23239841014E+02  0.73383179347E+02  0.41800000000E+01 0. -1.
         -5    1    3    3    0  502 -0.37845927629E+02  0.47496245505E+02 -0.23275576218E+02  0.65172328664E+02  0.41800000000E+01 0. -1.
        -11    1    1    2    0    0  0.41948172728E+02  0.48354266393E+01 -0.27471167758E+02  0.50375545694E+02  0.00000000000E+00 0.  1.
         11    1    1    2    0    0 -0.11603101834E+02  0.16742675836E+02  0.46851721593E+02  0.51088481896E+02  0.00000000000E+00 0. -1.
</event>
<event>
 7    1  0.2522928E-009  0.9648052E+02  0.7561462E-02  0.1287876E+00
         -1   -1    0    0    0  501 -0.00000000000E+00  0.00000000000E+00  0.48063045056E+02  0.48063045056E+02  0.00000000000E+00 0.  1.
          1   -1    0    0  501    0  0.00000000000E+00 -0.00000000000E+00 -0.40484378859E+03  0.40484378859E+03  0.00000000000E+00 0. -1.
         25    2    1    2    0    0  0.21850617064E+02  0.55657273054E+02 -0.30029308338E+03  0.33075553865E+03  0.12509240148E+03 0.  0.
          5    1    3    3  502    0  0.10609456920E+02 -0.36356234000E+02 -0.44125812444E+02  0.58300051892E+02  0.41800000000E+01 0.  1.
         -5    1    3    3    0  502  0.11241160144E+02  0.92013507054E+02 -0.25616727094E+03  0.27245548675E+03  0.41800000000E+01 0.  1.
        -11    1    1    2    0    0 -0.22258684107E+02 -0.35472826051E+02 -0.80523169972E+02  0.90762058750E+02  0.00000000000E+00 0. -1.
         11    1    1    2    0    0  0.40806704292E+00 -0.20184447003E+02  0.24035509825E+02  0.31389236245E+02  0.00000000000E+00 0.  1.
</event>
<event>
 7    1  0.2522928E-009  0.1680392E+03  0.7561462E-02  0.1179908E+00
          1   -1    0    0  501    0  0.00000000000E+00  0.00000000000E+00  0.27098843840E+03  0.27098843840E+03  0.00000000000E+00 0. -1.
         -1   -1    0    0    0  501 -0.00000000000E+00 -0.00000000000E+00 -0.12548751064E+03  0.12548751064E+03  0.00000000000E+00 0.  1.
         25    2    1    2    0    0  0.13883048815E+03  0.32873682806E+02  0.91937450834E+02  0.21084194517E+03  0.12508895841E+03 0.  0.
          5    1    3    3  502    0  0.15229832483E+03  0.27079726511E+02  0.44500105857E+02  0.16101497804E+03  0.41800000000E+01 0. -1.
         -5    1    3    3    0  502 -0.13467836679E+02  0.57939562952E+01  0.47437344977E+02  0.49826967125E+02  0.41800000000E+01 0. -1.
        -11    1    1    2    0    0 -0.12845440113E+02 -0.37886294482E+02 -0.14253401348E+02  0.42468059660E+02  0.00000000000E+00 0.  1.
         11    1    1    2    0    0 -0.12598504803E+03  0.50126116759E+01  0.67816878276E+02  0.14316594421E+03  0.00000000000E+00 0. -1.
</event>
<event>
 7    1  0.2522928E-009  0.9631412E+02  0.7561462E-02  0.1288244E+00
          2   -1    0    0  501    0  0.00000000000E+00  0.00000000000E+00  0.97030903343E+03  0.97030903343E+03  0.00000000000E+00 0. -1.
         -2   -1    0    0    0  501 -0.00000000000E+00 -0.00000000000E+00 -0.13616665162E+02  0.13616665162E+02  0.00000000000E+00 0.  1.
         25    2    1    2    0    0  0.31322019747E+02 -0.20382624017E+02  0.57567426901E+03  0.59029321524E+03  0.12509474677E+03 0.  0.
          5    1    3    3  502    0 -0.20698287590E+02 -0.38366839095E+02  0.77077318029E+02  0.88649979165E+02  0.41800000000E+01 0.  1.
         -5    1    3    3    0  502  0.52020307337E+02  0.17984215079E+02  0.49859695098E+03  0.50164323607E+03  0.41800000000E+01 0.  1.
        -11    1    1    2    0    0  0.15245981950E+02 -0.24565973139E+02  0.66327204559E+02  0.72354855169E+02  0.00000000000E+00 0.  1.
         11    1    1    2    0    0 -0.46568001697E+02  0.44948597156E+02  0.31469089470E+03  0.32127762819E+03  0.00000000000E+00 0. -1.
</event>
<event>
 7    1  0.2522929E-009  0.9949288E+02  0.7561462E-02  0.1281366E+00
         -2   -1    0    0    0  501 -0.00000000000E+00  0.00000000000E+00  0.13923714028E+02  0.13923714028E+02  0.00000000000E+00 0.  1.
          2   -1    0    0  501    0  0.00000000000E+00 -0.00000000000E+00 -0.12075256562E+04  0.12075256562E+04  0.00000000000E+00 0. -1.
         25    2    1    2    0    0 -0.13316257923E+02  0.63817367457E+02 -0.79631480741E+03  0.80871652554E+03  0.12512061011E+03 0.  0.
          5    1    3    3  502    0  0.20319813629E+02  0.18247778314E+00 -0.19209505909E+02  0.28273762419E+02  0.41800000000E+01 0. -1.
         -5    1    3    3    0  502 -0.33636071552E+02  0.63634889673E+02 -0.77710530150E+03  0.78044276312E+03  0.41800000000E+01 0. -1.
        -11    1    1    2    0    0 -0.35699484415E+02 -0.24392093834E+02 -0.10140386888E+03  0.11023689061E+03  0.00000000000E+00 0.  1.
         11    1    1    2    0    0  0.49015742338E+02 -0.39425273623E+02 -0.29588326587E+03  0.30249595406E+03  0.00000000000E+00 0. -1.
</event>
<event>
 7    1  0.2522928E-009  0.1207290E+03  0.7561462E-02  0.1241899E+00
          1   -1    0    0  501    0  0.00000000000E+00  0.00000000000E+00  0.62677735948E+03  0.62677735948E+03  0.00000000000E+00 0. -1.
         -1   -1    0    0    0  501 -0.00000000000E+00 -0.00000000000E+00 -0.47592764563E+02  0.47592764563E+02  0.00000000000E+00 0.  1.
         25    2    1    2    0    0  0.47776553950E+02 -0.94821878627E+02  0.47070548403E+03  0.49848309976E+03  0.12509180740E+03 0.  0.
          5    1    3    3  502    0  0.71181402925E+02 -0.79251916077E+02  0.20315763271E+03  0.22943006441E+03  0.41800000000E+01 0.  1.
         -5    1    3    3    0  502 -0.23404848975E+02 -0.15569962550E+02  0.26754785132E+03  0.26905303535E+03  0.41800000000E+01 0.  1.
        -11    1    1    2    0    0 -0.35734369914E+02  0.77416800206E+02  0.23689459483E+02  0.88495743614E+02  0.00000000000E+00 0.  1.
         11    1    1    2    0    0 -0.12042184036E+02  0.17405078421E+02  0.84789651402E+02  0.87391280664E+02  0.00000000000E+00 0. -1.
</event>
<event>
 7    1  0.2522928E-009  0.7159012E+02  0.7561462E-02  0.1354768E+00
          1   -1    0    0  501    0  0.00000000000E+00  0.00000000000E+00  0.35796780927E+03  0.35796780927E+03  0.00000000000E+00 0. -1.
         -1   -1    0    0    0  501 -0.00000000000E+00 -0.00000000000E+00 -0.43976222217E+02  0.43976222217E+02  0.00000000000E+00 0.  1.
         25    2    1    2    0    0 -0.16597057327E+02  0.57787448527E+02  0.19625850729E+03  0.24037367345E+03  0.12508896707E+03 0.  0.
          5    1    3    3  502    0  0.38631227666E+01  0.24864556935E+02 -0.12218064018E+02  0.28282917061E+02  0.41800000000E+01 0.  1.
         -5    1    3    3    0  502 -0.20460180094E+02  0.32922891591E+02  0.20847657131E+03  0.21209075639E+03  0.41800000000E+01 0.  1.
        -11    1    1    2    0    0 -0.17423292474E+01 -0.60166941234E+02  0.12725294698E+03  0.14077076772E+03  0.00000000000E+00 0. -1.
         11    1    1    2    0    0  0.18339386574E+02  0.23794927075E+01 -0.95198672223E+01  0.20799590318E+02  0.00000000000E+00 0.  1.
</event>
<event>
 7    1  0.2522928E-009  0.7437384E+02  0.7561462E-02  0.1345821E+00
          1   -1    0    0  501    0  0.00000000000E+00  0.00000000000E+00  0.24806927126E+03  0.24806927126E+03  0.00000000000E+00 0. -1.
         -1   -1    0    0    0  501 -0.00000000000E+00 -0.00000000000E+00 -0.56283189838E+02  0.56283189838E+02  0.00000000000E+00 0.  1.
         25    2    1    2    0    0  0.42184054176E+02  0.10548375618E+02  0.79726000578E+02  0.15458159899E+03  0.12509385646E+03 0.  0.
          5    1    3    3  502    0  0.50869334613E+02  0.22707576544E+01 -0.19395667161E+02  0.54648969330E+02  0.41800000000E+01 0. -1.
         -5    1    3    3    0  502 -0.86852804362E+01  0.82776179638E+01  0.99121667739E+02  0.99932629660E+02  0.41800000000E+01 0. -1.
        -11    1    1    2    0    0 -0.34469311427E+02 -0.40984503973E+02  0.28839820982E+02  0.60824323017E+02  0.00000000000E+00 0.  1.
         11    1    1    2    0    0 -0.77147427497E+01  0.30436128355E+02  0.83220259862E+02  0.88946539092E+02  0.00000000000E+00 0. -1.
</event>
<event>
 7    1  0.2522928E-009  0.3391253E+03  0.7561462E-02  0.1067169E+00
         -2   -1    0    0    0  501 -0.00000000000E+00  0.00000000000E+00  0.42501717870E+02  0.42501717870E+02  0.00000000000E+00 0.  1.
          2   -1    0    0  501    0  0.00000000000E+00 -0.00000000000E+00 -0.27720891713E+04  0.27720891713E+04  0.00000000000E+00 0. -1.
         25    2    1    2    0    0  0.18607389186E+03 -0.26765257623E+03 -0.13060311424E+04  0.13518975576E+04  0.12509303157E+03 0.  0.
          5    1    3    3  502    0  0.11403087196E+03 -0.24988868920E+03 -0.10426804195E+04  0.10782612514E+04  0.41800000000E+01 0. -1.
         -5    1    3    3    0  502  0.72043019910E+02 -0.17763887025E+02 -0.26335072291E+03  0.27363630617E+03  0.41800000000E+01 0. -1.
        -11    1    1    2    0    0 -0.83680214753E+02  0.16055675651E+03 -0.63358687089E+03  0.65894853620E+03  0.00000000000E+00 0.  1.
         11    1    1    2    0    0 -0.10239367711E+03  0.10709581971E+03 -0.78996944017E+03  0.80374479539E+03  0.00000000000E+00 0. -1.
</event>
<event>
 7    1  0.2522928E-009  0.1713355E+03  0.7561462E-02  0.1176462E+00
         -2   -1    0    0    0  501 -0.00000000000E+00  0.00000000000E+00  0.56357344682E+03  0.56357344682E+03  0.00000000000E+00 0.  1.
          2   -1    0    0  501    0  0.00000000000E+00 -0.00000000000E+00 -0.67720093184E+02  0.67720093184E+02  0.00000000000E+00 0. -1.
         25    2    1    2    0    0  0.14152143354E+03 -0.65662090490E+02  0.18852320711E+03  0.27482644568E+03  0.12509496132E+03 0.  0.
          5    1    3    3  502    0  0.83319634251E+01 -0.18617471214E+02 -0.15980643232E+02  0.26246622774E+02  0.41800000000E+01 0.  1.
         -5    1    3    3    0  502  0.13318947012E+03 -0.47044619275E+02  0.20450385034E+03  0.24857982291E+03  0.41800000000E+01 0.  1.
        -11    1    1    2    0    0 -0.37077773820E+01  0.40221985123E+02  0.64775100742E+02  0.76337208336E+02  0.00000000000E+00 0. -1.
         11    1    1    2    0    0 -0.13781365616E+03  0.25440105367E+02  0.24255504578E+03  0.28012988598E+03  0.00000000000E+00 0.  1.
</event>
<event>
 7    1  0.2522928E-009  0.1209933E+03  0.7561462E-02  0.1241467E+00
         -2   -1    0    0    0  501 -0.00000000000E+00  0.00000000000E+00  0.27078876043E+02  0.27078876043E+02  0.00000000000E+00 0.  1.
          2   -1    0    0  501    0  0.00000000000E+00 -0.00000000000E+00 -0.13873210452E+04  0.13873210452E+04  0.00000000000E+00 0. -1.
         25    2    1    2    0    0 -0.56056671675E+02  0.79173328909E+02 -0.11812227160E+04  0.11917823898E+04  0.12508954221E+03 0.  0.
          5    1    3    3  502    0 -0.12620085818E+02  0.66016647354E+02 -0.10621845280E+04  0.10643171089E+04  0.41800000000E+01 0. -1.
         -5    1    3    3    0  502 -0.43436585858E+02  0.13156681555E+02 -0.11903818795E+03  0.12746528096E+03  0.41800000000E+01 0. -1.
        -11    1    1    2    0    0  0.75306985003E+02 -0.39655245557E+02 -0.93321729683E+02  0.12630370431E+03  0.00000000000E+00 0.  1.
         11    1    1    2    0    0 -0.19250313328E+02 -0.39518083352E+02 -0.85697723489E+02  0.96313827077E+02  0.00000000000E+00 0. -1.
</event>
<event>
 7    1  0.2522928E-009  0.1104931E+03  0.7561462E-02  0.1259659E+00
          2   -1    0    0  501    0  0.00000000000E+00  0.00000000000E+00  0.65894118428E+02  0.65894118428E+02  0.00000000000E+00 0. -1.
         -2   -1    0    0    0  501 -0.00000000000E+00 -0.00000000000E+00 -0.32828958938E+03  0.32828958938E+03  0.00000000000E+00 0.  1.
         25    2    1    2    0    0  0.22327036624E+02  0.72355959656E+02 -0.22614156895E+03  0.26929820636E+03  0.12509050035E+03 0.  0.
          5    1    3    3  502    0  0.73200352886E+02  0.42721508229E+02 -0.15635616332E+03  0.17789924434E+03  0.41800000000E+01 0.  1.
         -5    1    3    3    0  502 -0.50873316263E+02  0.29634451428E+02 -0.69785405633E+02  0.91398962020E+02  0.41800000000E+01 0.  1.
        -11    1    1    2    0    0 -0.17269734413E+01 -0.29544582379E+02  0.30794919779E+02  0.42710559226E+02  0.00000000000E+00 0. -1.
         11    1    1    2    0    0 -0.20600063182E+02 -0.42811377277E+02 -0.67048821772E+02  0.82174942218E+02  0.00000000000E+00 0.  1.
</event>
<event>
 7    1  0.2522928E-009  0.1043912E+03  0.7561462E-02  0.1271324E+00
          2   -1    0    0  501    0  0.00000000000E+00  0.00000000000E+00  0.64152622075E+03  0.64152622075E+03  0.00000000000E+00 0. -1.
         -2   -1    0    0    0  501 -0.00000000000E+00 -0.00000000000E+00 -0.19983758451E+02  0.19983758451E+02  0.00000000000E+00 0.  1.
         25    2    1    2    0    0  0.71397392158E+00  0.33772586114E+02  0.33826649323E+03  0.36223306117E+03  0.12508985903E+03 0.  0.
          5    1    3    3  502    0  0.46869513224E+02 -0.15951392110E+02  0.22255568270E+03  0.22803443267E+03  0.41800000000E+01 0. -1.
         -5    1    3    3    0  502 -0.46155539303E+02  0.49723978225E+02  0.11571081052E+03  0.13419862850E+03  0.41800000000E+01 0. -1.
        -11    1    1    2    0    0  0.28947446540E+02  0.16080682372E+02  0.15494124523E+03  0.15844031205E+03  0.00000000000E+00 0. -1.
         11    1    1    2    0    0 -0.29661420462E+02 -0.49853268486E+02  0.12833472384E+03  0.14083660599E+03  0.00000000000E+00 0.  1.
</event>
<event>
 7    1  0.2522928E-009  0.1361181E+03  0.7561462E-02  0.1218650E+00
         -1   -1    0    0    0  501 -0.00000000000E+00  0.00000000000E+00  0.63311101525E+03  0.63311101525E+03  0.00000000000E+00 0.  1.
          1   -1    0    0  501    0  0.00000000000E+00 -0.00000000000E+00 -0.41707325738E+02  0.41707325738E+02  0.00000000000E+00 0. -1.
         25    2    1    2    0    0 -0.78426672349E+02  0.54296410420E+02  0.47133959833E+03  0.49689592623E+03  0.12508277830E+03 0.  0.
          5    1    3    3  502    0 -0.83440488548E+02  0.84839922926E+02  0.30060388523E+03  0.32332691794E+03  0.41800000000E+01 0. -1.
         -5    1    3    3    0  502  0.50138161988E+01 -0.30543512506E+02  0.17073571310E+03  0.17356900829E+03  0.41800000000E+01 0. -1.
        -11    1    1    2    0    0  0.33870030499E+02  0.16970794350E+02  0.71330508282E+02  0.80766504435E+02  0.00000000000E+00 0.  1.
         11    1    1    2    0    0  0.44556641850E+02 -0.71267204771E+02  0.48733582899E+02  0.97155910324E+02  0.00000000000E+00 0. -1.
</event>
<event>
 7    1  0.2522928E-009  0.8582367E+02  0.7561462E-02  0.1313293E+00
          3   -1    0    0  501    0  0.00000000000E+00  0.00000000000E+00  0.34844775292E+03  0.34844775292E+03  0.00000000000E+00 0. -1.
         -3   -1    0    0    0  501 -0.00000000000E+00 -0.00000000000E+00 -0.44075304982E+02  0.44075304982E+02  0.00000000000E+00 0.  1.
         25    2    1    2    0    0 -0.15463072726E+02 -0.70060028675E+02  0.16145121252E+03  0.21647593225E+03  0.12509125064E+03 0.  0.
          5    1    3    3  502    0  0.35891302178E+01 -0.67842824336E+02  0.16283412501E+02  0.69986802986E+02  0.41800000000E+01 0. -1.
         -5    1    3    3    0  502 -0.19052202944E+02 -0.22172043392E+01  0.14516780002E+03  0.14648912927E+03  0.41800000000E+01 0. -1.
        -11    1    1    2    0    0  0.29511538111E+02  0.32760981038E+02  0.12461740670E+03  0.13218816442E+03  0.00000000000E+00 0. -1.
         11    1    1    2    0    0 -0.14048465385E+02  0.37299047637E+02  0.18303828726E+02  0.43858961232E+02  0.00000000000E+00 0.  1.
</event>
<event>
 7    1  0.2522928E-009  0.8362821E+02  0.7561462E-02  0.1319059E+00
         -1   -1    0    0    0  501 -0.00000000000E+00  0.00000000000E+00  0.51438291139E+02  0.51438291139E+02  0.00000000000E+00 0.  1.
          1   -1    0    0  501    0  0.00000000000E+00 -0.00000000000E+00 -0.23404019434E+03  0.23404019434E+03  0.00000000000E+00 0. -1.
         25    2    1    2    0    0 -0.11499134133E+02  0.18596514613E+02 -0.11193645311E+03  0.16928198376E+03  0.12509420470E+03 0.  0.
          5    1    3    3  502    0 -0.33327273559E+02  0.59249263220E+02 -0.28469893486E+02  0.73818626309E+02  0.41800000000E+01 0. -1.
         -5    1    3    3    0  502  0.21828139426E+02 -0.40652748608E+02 -0.83466559627E+02  0.95463357453E+02  0.41800000000E+01 0. -1.
        -11    1    1    2    0    0  0.54933418354E+01  0.16407144846E+02  0.15354747506E+02  0.23133081885E+02  0.00000000000E+00 0.  1.
         11    1    1    2    0    0  0.60057922974E+01 -0.35003659459E+02 -0.86020197589E+02  0.93063419827E+02  0.00000000000E+00 0. -1.
</event>
<event>
 7    1  0.2522928E-009  0.1063990E+03  0.7561462E-02  0.1267387E+00
          1   -1    0    0  501    0  0.00000000000E+00  0.00000000000E+00  0.69632025103E+02  0.69632025103E+02  0.00000000000E+00 0. -1.
         -1   -1    0    0    0  501 -0.00000000000E+00 -0.00000000000E+00 -0.20987229857E+03  0.20987229857E+03  0.00000000000E+00 0.  1.
         25    2    1    2    0    0  0.60068341789E+01 -0.47067347891E+02 -0.10389913301E+03  0.16939425055E+03  0.12509182620E+03 0.  0.
          5    1    3    3  502    0 -0.27581516258E+02  0.19778394747E+02  0.76265640457E+01  0.35036578272E+02  0.41800000000E+01 0.  1.
         -5    1    3    3    0  502  0.33588350437E+02 -0.66845742639E+02 -0.11152569706E+03  0.13435767227E+03  0.41800000000E+01 0.  1.
        -11    1    1    2    0    0 -0.44172569652E+01  0.75284051624E+02 -0.29894894136E+02  0.81122779066E+02  0.00000000000E+00 0. -1.
         11    1    1    2    0    0 -0.15895772137E+01 -0.28216703733E+02 -0.64462463120E+01  0.28987294057E+02  0.00000000000E+00 0.  1.
</event>
<event>
 7    1  0.2522928E-009  0.1074091E+03  0.7561462E-02  0.1265444E+00
         -1   -1    0    0    0  501 -0.00000000000E+00  0.00000000000E+00  0.47091958129E+02  0.47091958129E+02  0.00000000000E+00 0.  1.
          1   -1    0    0  501    0  0.00000000000E+00 -0.00000000000E+00 -0.39249054114E+03  0.39249054114E+03  0.00000000000E+00 0. -1.
         25    2    1    2    0    0 -0.27062442491E+02 -0.76177082407E+02 -0.20161302079E+03  0.25066155914E+03  0.12509229953E+03 0.  0.
          5    1    3    3  502    0 -0.39644540020E+02 -0.56602436611E+02 -0.21332474712E+03  0.22427760815E+03  0.41800000000E+01 0. -1.
         -5    1    3    3    0  502  0.12582097529E+02 -0.19574645796E+02  0.11711726332E+02  0.26383950992E+02  0.41800000000E+01 0. -1.
        -11    1    1    2    0    0  0.53485489207E+02  0.15378378215E+02 -0.56391677815E+02  0.79228867207E+02  0.00000000000E+00 0.  1.
         11    1    1    2    0    0 -0.26423046715E+02  0.60798704192E+02 -0.87393884401E+02  0.10969207291E+03  0.00000000000E+00 0. -1.
</event>
<event>
 7    1  0.2522928E-009  0.9809501E+02  0.7561462E-02  0.1284354E+00
         -2   -1    0    0    0  501 -0.00000000000E+00  0.00000000000E+00  0.27819687665E+03  0.27819687665E+03  0.00000000000E+00 0.  1.
          2   -1    0    0  501    0  0.00000000000E+00 -0.00000000000E+00 -0.54355703387E+02  0.54355703387E+02  0.00000000000E+00 0. -1.
         25    2    1    2    0    0  0.35374291105E+02 -0.76282044351E+01  0.19150450615E+03  0.23158329219E+03  0.12508922964E+03 0.  0.
          5    1    3    3  502    0  0.22317278885E+02 -0.53979179242E+02  0.16784524022E+03  0.17776757239E+03  0.41800000000E+01 0. -1.
         -5    1    3    3    0  502  0.13057012220E+02  0.46350974807E+02  0.23659265936E+02  0.53815719807E+02  0.41800000000E+01 0. -1.
        -11    1    1    2    0    0 -0.40538979878E+02 -0.30554160177E+02  0.14971813874E+00  0.50764042483E+02  0.00000000000E+00 0. -1.
         11    1    1    2    0    0  0.51646887729E+01  0.38182364613E+02  0.32186948967E+02  0.50205245356E+02  0.00000000000E+00 0.  1.
</event>
<event>
 7    1  0.2522928E-009  0.9518085E+02  0.7561462E-02  0.1290769E+00
          1   -1    0    0  501    0  0.00000000000E+00  0.00000000000E+00  0.17717991417E+03  0.17717991417E+03  0.00000000000E+00 0. -1.
         -1   -1    0    0    0  501 -0.00000000000E+00 -0.00000000000E+00 -0.86492070842E+02  0.86492070842E+02  0.00000000000E+00 0.  1.
         25    2    1    2    0    0 -0.24547903582E+02 -0.52910816856E+02  0.37811017371E+02  0.14310944064E+03  0.12509390415E+03 0.  0.
          5    1    3    3  502    0  0.32563379077E+02 -0.45271888784E+01 -0.27975167005E+02  0.43369937341E+02  0.41800000000E+01 0. -1.
         -5    1    3    3    0  502 -0.57111282659E+02 -0.48383627977E+02  0.65786184376E+02  0.99739503297E+02  0.41800000000E+01 0. -1.
        -11    1    1    2    0    0 -0.17543664517E+02  0.45186604702E+01 -0.17609141376E+02  0.25264210203E+02  0.00000000000E+00 0.  1.
         11    1    1    2    0    0  0.42091568099E+02  0.48392156386E+02  0.70485967329E+02  0.95298334167E+02  0.00000000000E+00 0. -1.
</event>
<event>
 7    1  0.3780759E-009  0.9292043E+02  0.7561462E-02  0.1295930E+00
          1   -1    0    0  501    0  0.00000000000E+00  0.00000000000E+00  0.73241446672E+03  0.73241446672E+03  0.00000000000E+00 0. -1.
         -1   -1    0    0    0  501 -0.00000000000E+00 -0.00000000000E+00 -0.39750738539E+02  0.39750738539E+02  0.00000000000E+00 0.  1.
         25    2    1    2    0    0  0.51834987051E+02 -0.71897624128E+02  0.58725474195E+03  0.60693766502E+03  0.12509621514E+03 0.  0.
          5    1    3    3  502    0  0.32937948476E+01 -0.33250515491E+02  0.49218115713E+03  0.49333174406E+03  0.41800000000E+01 0. -1.
         -5    1    3    3    0  502  0.48541192203E+02 -0.38647108637E+02  0.95073584814E+02  0.11360592095E+03  0.41800000000E+01 0. -1.
        -11    1    1    2    0    0 -0.36418847363E+02  0.61195748374E+02  0.14850142145E+02  0.72744613436E+02  0.00000000000E+00 0.  1.
         11    1    1    2    0    0 -0.15416139688E+02  0.10701875754E+02  0.90558844086E+02  0.92482926802E+02  0.00000000000E+00 0. -1.
</event>
<event>
 7    1  0.2522928E-009  0.1008643E+03  0.7561462E-02  0.1278489E+00
         -2   -1    0    0    0  501 -0.00000000000E+00  0.00000000000E+00  0.56110887818E+03  0.56110887818E+03  0.00000000000E+00 0.  1.
          2   -1    0    0  501    0  0.00000000000E+00 -0.00000000000E+00 -0.30850919204E+02  0.30850919204E+02  0.00000000000E+00 0. -1.
         25    2    1    2    0    0  0.10026869011E+02  0.59748931689E+02  0.39309891857E+03  0.41694760270E+03  0.12509224865E+03 0.  0.
          5    1    3    3  502    0  0.43182317561E+02  0.53727830289E+02  0.97916954039E+02  0.11981900762E+03  0.41800000000E+01 0.  1.
         -5    1    3    3    0  502 -0.33155448551E+02  0.60211014000E+01  0.29518196453E+03  0.29712859508E+03  0.41800000000E+01 0.  1.
        -11    1    1    2    0    0 -0.24737087849E+02  0.10550848394E+02  0.94737059728E+01  0.28513067565E+02  0.00000000000E+00 0. -1.
         11    1    1    2    0    0  0.14710218839E+02 -0.70299780083E+02  0.12768533443E+03  0.14649912712E+03  0.00000000000E+00 0.  1.
</event>
<event>
 7    1  0.2522928E-009  0.1121501E+03  0.7561462E-02  0.1256639E+00
          1   -1    0    0  501    0  0.00000000000E+00  0.00000000000E+00  0.32491042599E+03  0.32491042599E+03  0.00000000000E+00 0. -1.
         -1   -1    0    0    0  501 -0.00000000000E+00 -0.00000000000E+00 -0.61295494929E+02  0.61295494929E+02  0.00000000000E+00 0.  1.
         25    2    1    2    0    0  0.83470047201E+02 -0.21542655513E+02  0.16569173093E+03  0.22479649363E+03  0.12509348131E+03 0.  0.
          5    1    3    3  502    0 -0.17212092976E+02 -0.13420571908E+02 -0.81718699939E+01  0.23677410208E+02  0.41800000000E+01 0. -1.
         -5    1    3    3    0  502  0.10068214018E+03 -0.81220836047E+01  0.17386360092E+03  0.20111908343E+03  0.41800000000E+01 0. -1.
        -11    1    1    2    0    0 -0.83452519793E+02  0.41144823042E+01  0.26149794304E+02  0.87550349894E+02  0.00000000000E+00 0.  1.
         11    1    1    2    0    0 -0.17527408232E-01  0.17428173209E+02  0.71773405828E+02  0.73859077389E+02  0.00000000000E+00 0. -1.
</event>
<event>
 7    1  0.2522928E-009  0.6709432E+02  0.7561462E-02  0.1370262E+00
          2   -1    0    0  501    0  0.00000000000E+00  0.00000000000E+00  0.29916318217E+02  0.29916318217E+02  0.00000000000E+00 0. -1.
         -2   -1    0    0    0  501 -0.00000000000E+00 -0.00000000000E+00 -0.47118829562E+03  0.47118829562E+03  0.00000000000E+00 0.  1.
         25    2    1    2    0    0  0.31316076606E+02  0.14897346491E+02 -0.17719735730E+03  0.21965720801E+03  0.12509099892E+03 0.  0.
          5    1    3    3  502    0  0.19342210062E+02  0.17869712947E+02  0.12545954833E+02  0.29467288873E+02  0.41800000000E+01 0. -1.
         -5    1    3    3    0  502  0.11973866545E+02 -0.29723664552E+01 -0.18974331213E+03  0.19018991914E+03  0.41800000000E+01 0. -1.
        -11    1    1    2    0    0 -0.74870996160E+01  0.36810938809E+02 -0.13967031583E+03  0.14463367174E+03  0.00000000000E+00 0.  1.
         11    1    1    2    0    0 -0.23828976990E+02 -0.51708285301E+02 -0.12440430427E+03  0.13681373408E+03  0.00000000000E+00 0. -1.
</event>
<event>
 7    1  0.2522928E-009  0.1589631E+03  0.7561462E-02  0.1189872E+00
          3   -1    0    0  501    0  0.00000000000E+00  0.00000000000E+00  0.20817760046E+03  0.20817760046E+03  0.00000000000E+00 0. -1.
         -3   -1    0    0    0  501 -0.00000000000E+00 -0.00000000000E+00 -0.18299667988E+03  0.18299667988E+03  0.00000000000E+00 0.  1.
         25    2    1    2    0    0 -0.10329408825E+03  0.10739734098E+03  0.74375783681E+02  0.20829829430E+03  0.12511021018E+03 0.  0.
          5    1    3    3  502    0 -0.31878551247E+02  0.89131465099E+02 -0.11041174642E+02  0.95394129996E+02  0.41800000000E+01 0.  1.
         -5    1    3    3    0  502 -0.71415537003E+02  0.18265875885E+02  0.85416958323E+02  0.11290416430E+03  0.41800000000E+01 0.  1.
        -11    1    1    2    0    0  0.31727567142E+02 -0.39777171525E+02 -0.65641717870E+02  0.83052375139E+02  0.00000000000E+00 0.  1.
         11    1    1    2    0    0  0.71566521108E+02 -0.67620169458E+02  0.16446854771E+02  0.99823610899E+02  0.00000000000E+00 0. -1.
</event>
<event>
 6    1  0.2522928E-009  0.1140654E+03  0.7561462E-02  0.1253221E+00
          3   -1    0    0  501    0  0.00000000000E+00  0.00000000000E+00  0.58530916468E+02  0.58530916468E+02  0.00000000000E+00 0.  1.
         -3   -1    0    0    0  501 -0.00000000000E+00 -0.00000000000E+00 -0.26719898552E+03  0.26719898552E+03  0.00000000000E+00 0. -1.
          5    1    1    2  502    0 -0.75492702581E+01 -0.55324984505E+02 -0.11600529040E+03  0.12881205375E+03  0.41800000000E+01 0. -1.
         -5    1    1    2    0  502  0.50309556632E+02  0.43728876965E+02 -0.48234009820E+02  0.82384818216E+02  0.41800000000E+01 0. -1.
        -11    1    1    2    0    0 -0.70928915581E+02 -0.74886572960E+01 -0.26617490845E+02  0.76128062319E+02  0.00000000000E+00 0. -1.
         11    1    1    2    0    0  0.28168629207E+02  0.19084764836E+02 -0.17811277985E+02  0.38404967696E+02  0.00000000000E+00 0.  1.
</event>
<event>
 7    1  0.2522928E-009  0.9525061E+02  0.7561462E-02  0.1290613E+00
          1   -1    0    0  501    0  0.00000000000E+00  0.00000000000E+00  0.98677617518E+03  0.98677617518E+03  0.00000000000E+00 0. -1.
         -1   -1    0    0    0  501 -0.00000000000E+00 -0.00000000000E+00 -0.15767421148E+02  0.15767421148E+02  0.00000000000E+00 0.  1.
         25    2    1    2    0    0 -0.37334847444E+02 -0.16601181703E+02  0.73052854170E+03  0.74228612243E+03  0.12508895728E+03 0.  0.
          5    1    3    3  502    0  0.16517731598E+01 -0.43381878174E+02  0.62554777307E+03  0.62706634776E+03  0.41800000000E+01 0.  1.
         -5    1    3    3    0  502 -0.38986620604E+02  0.26780696471E+02  0.10498076864E+03  0.11521977466E+03  0.41800000000E+01 0.  1.
        -11    1    1    2    0    0  0.95052942729E+00 -0.35688675987E+02  0.92335127084E+02  0.98996771631E+02  0.00000000000E+00 0. -1.
         11    1    1    2    0    0  0.36384318017E+02  0.52289857691E+02  0.14814508525E+03  0.16126070228E+03  0.00000000000E+00 0.  1.
</event>
<event>
 6    1  0.2522928E-009  0.8814367E+02  0.7561462E-02  0.1307410E+00
         -2   -1    0    0    0  501 -0.00000000000E+00  0.00000000000E+00  0.14786088553E+03  0.14786088553E+03  0.00000000000E+00 0.  1.
          2   -1    0    0  501    0  0.00000000000E+00 -0.00000000000E+00 -0.14452911018E+03  0.14452911018E+03  0.00000000000E+00 0. -1.
          5    1    1    2  502    0 -0.63565895719E+02  0.38796097610E+02  0.56900569929E+01  0.74803806299E+02  0.41800000000E+01 0.  1.
         -5    1    1    2    0  502  0.34576907535E+02  0.87628008021E+01  0.77677186975E+02  0.85577841693E+02  0.41800000000E+01 0.  1.
        -11    1    1    2    0    0  0.11106732654E+02  0.35331068625E+01  0.17167022218E+02  0.20749674846E+02  0.00000000000E+00 0.  1.
         11    1    1    2    0    0  0.17882255530E+02 -0.51092005275E+02 -0.97202490833E+02  0.11125867288E+03  0.00000000000E+00 0. -1.
</event>
<event>
 7    1  0.2522928E-009  0.1164842E+03  0.7561462E-02  0.1249012E+00
          2   -1    0    0  501    0  0.00000000000E+00  0.00000000000E+00  0.64205331040E+02  0.64205331040E+02  0.00000000000E+00 0. -1.
         -2   -1    0    0    0  501 -0.00000000000E+00 -0.00000000000E+00 -0.29844516529E+03  0.29844516529E+03  0.00000000000E+00 0.  1.
         25    2    1    2    0    0 -0.26638331167E+01 -0.45011425550E+02 -0.32964448610E+02  0.13699547175E+03  0.12509188611E+03 0.  0.
          5    1    3    3  502    0 -0.62361140999E+02 -0.10071019266E+02 -0.10667834035E+02  0.64199785192E+02  0.41800000000E+01 0.  1.
         -5    1    3    3    0  502  0.59697307882E+02 -0.34940406284E+02 -0.22296614575E+02  0.72795686556E+02  0.41800000000E+01 0.  1.
        -11    1    1    2    0    0 -0.41842333592E+02  0.82701718370E+01 -0.10605575211E+03  0.11431097575E+03  0.00000000000E+00 0.  1.
         11    1    1    2    0    0  0.44506166709E+02  0.36741253713E+02 -0.95219633536E+02  0.11134404883E+03  0.00000000000E+00 0. -1.
</event>
<event>
 7    1  0.2522928E-009  0.3006623E+03  0.7561462E-02  0.1084910E+00
          2   -1    0    0  501    0  0.00000000000E+00  0.00000000000E+00  0.14031432296E+04  0.14031432296E+04  0.00000000000E+00 0.  1.
         -2   -1    0    0    0  501 -0.00000000000E+00 -0.00000000000E+00 -0.66397111507E+02  0.66397111507E+02  0.00000000000E+00 0. -1.
         25    2    1    2    0    0  0.26599176109E+03 -0.99073489936E+02  0.78331095771E+03  0.84249054805E+03  0.12508834359E+03 0.  0.
          5    1    3    3  502    0  0.15656660473E+03 -0.12136656292E+03  0.48312429313E+03  0.52217765111E+03  0.41800000000E+01 0.  1.
         -5    1    3    3    0  502  0.10942515636E+03  0.22293072987E+02  0.30018666458E+03  0.32031289693E+03  0.41800000000E+01 0.  1.
        -11    1    1    2    0    0 -0.70316187420E+01  0.19177612822E+02  0.19322211553E+02  0.28117118540E+02  0.00000000000E+00 0. -1.
         11    1    1    2    0    0 -0.25896014234E+03  0.79895877113E+02  0.53411294882E+03  0.59893267451E+03  0.00000000000E+00 0.  1.
</event>
<event>
 7    1  0.2522928E-009  0.6281906E+03  0.7561462E-02  0.9848586E-01
          2   -1    0    0  501    0  0.00000000000E+00  0.00000000000E+00  0.21790671302E+04  0.21790671302E+04  0.00000000000E+00 0. -1.
         -2   -1    0    0    0  501 -0.00000000000E+00 -0.00000000000E+00 -0.19747808269E+03  0.19747808269E+03  0.00000000000E+00 0.  1.
         25    2    1    2    0    0 -0.51469947758E+03 -0.35632747568E+03  0.70035307443E+03  0.94763818039E+03  0.12505546737E+03 0.  0.
          5    1    3    3  502    0 -0.43340602162E+03 -0.31860780535E+03  0.65350775174E+03  0.84642871359E+03  0.41800000000E+01 0.  1.
         -5    1    3    3    0  502 -0.81293455957E+02 -0.37719670327E+02  0.46845322694E+02  0.10120946680E+03  0.41800000000E+01 0.  1.
        -11    1    1    2    0    0  0.33291470049E+02  0.72143901830E+01  0.39773946558E+02  0.52367320234E+02  0.00000000000E+00 0.  1.
         11    1    1    2    0    0  0.48140800753E+03  0.34911308550E+03  0.12414620265E+04  0.13765397123E+04  0.00000000000E+00 0. -1.
</event>
<event>
 7    1  0.2522928E-009  0.8624989E+02  0.7561462E-02  0.1312196E+00
          2   -1    0    0  501    0  0.00000000000E+00  0.00000000000E+00  0.58776736661E+02  0.58776736661E+02  0.00000000000E+00 0. -1.
         -2   -1    0    0    0  501 -0.00000000000E+00 -0.00000000000E+00 -0.23303076083E+03  0.23303076083E+03  0.00000000000E+00 0.  1.
         25    2    1    2    0    0 -0.17370934344E+02  0.94548237528E+01 -0.47915423720E+02  0.13541195083E+03  0.12509742422E+03 0.  0.
          5    1    3    3  502    0  0.13377248384E+02 -0.30322644796E+02 -0.72101815908E+02  0.79464192055E+02  0.41800000000E+01 0. -1.
         -5    1    3    3    0  502 -0.30748182728E+02  0.39777468549E+02  0.24186392187E+02  0.55947758778E+02  0.41800000000E+01 0. -1.
        -11    1    1    2    0    0 -0.30052891910E+02  0.16809178997E+02 -0.29175501721E+02  0.45132413090E+02  0.00000000000E+00 0. -1.
         11    1    1    2    0    0  0.47423826254E+02 -0.26264002750E+02 -0.97163098723E+02  0.11126313356E+03  0.00000000000E+00 0.  1.
</event>
<event>
 7    1  0.2522928E-009  0.1141219E+03  0.7561462E-02  0.1253122E+00
          2   -1    0    0  501    0  0.00000000000E+00  0.00000000000E+00  0.98027754381E+03  0.98027754381E+03  0.00000000000E+00 0. -1.
         -2   -1    0    0    0  501 -0.00000000000E+00 -0.00000000000E+00 -0.14637757357E+02  0.14637757357E+02  0.00000000000E+00 0.  1.
         25    2    1    2    0    0 -0.34333848231E+02  0.91764832025E+01  0.40463728347E+03  0.42501991922E+03  0.12509028570E+03 0.  0.
          5    1    3    3  502    0  0.11284721424E+02  0.59067820359E+02  0.15359130701E+03  0.16499731613E+03  0.41800000000E+01 0. -1.
         -5    1    3    3    0  502 -0.45618569654E+02 -0.49891337157E+02  0.25104597646E+03  0.26002260309E+03  0.41800000000E+01 0. -1.
        -11    1    1    2    0    0 -0.16603132798E+02 -0.38166491308E+02  0.24222606807E+03  0.24577594091E+03  0.00000000000E+00 0.  1.
         11    1    1    2    0    0  0.50936981028E+02  0.28990008105E+02  0.31877643490E+03  0.32411944103E+03  0.00000000000E+00 0. -1.
</event>
<event>
 7    1  0.2522928E-009  0.2153234E+03  0.7561462E-02  0.1137418E+00
          2   -1    0    0  501    0  0.00000000000E+00  0.00000000000E+00  0.32282089039E+03  0.32282089039E+03  0.00000000000E+00 0. -1.
         -2   -1    0    0    0  501 -0.00000000000E+00 -0.00000000000E+00 -0.15303563091E+03  0.15303563091E+03  0.00000000000E+00 0.  1.
         25    2    1    2    0    0  0.19138722536E+03 -0.24046276356E+02  0.86683837259E+02  0.24570107015E+03  0.12509050641E+03 0.  0.
          5    1    3    3  502    0  0.42374270699E+02 -0.59785688351E+02  0.93152034790E+01  0.73987517628E+02  0.41800000000E+01 0.  1.
         -5    1    3    3    0  502  0.14901295466E+03  0.35739411995E+02  0.77368633780E+02  0.17171355252E+03  0.41800000000E+01 0.  1.
        -11    1    1    2    0    0 -0.11165187334E+03 -0.19127664916E+02  0.81353920054E+02  0.13946493715E+03  0.00000000000E+00 0. -1.
         11    1    1    2    0    0 -0.79735352024E+02  0.43173941272E+02  0.17475021675E+01  0.90690514009E+02  0.00000000000E+00 0.  1.
</event>
<event>
 7    1  0.2522928E-009  0.1023576E+03  0.7561462E-02  0.1275415E+00
         -1   -1    0    0    0  501 -0.00000000000E+00  0.00000000000E+00  0.38584683472E+03  0.38584683472E+03  0.00000000000E+00 0.  1.
          1   -1    0    0  501    0  0.00000000000E+00 -0.00000000000E+00 -0.43162757441E+02  0.43162757441E+02  0.00000000000E+00 0. -1.
         25    2    1    2    0    0 -0.53099252595E+02  0.12471950974E+02  0.26343421136E+03  0.29668196549E+03  0.12509006654E+03 0.  0.
          5    1    3    3  502    0 -0.70127077086E+02 -0.14061136169E+02  0.68337517526E+02  0.99010157017E+02  0.41800000000E+01 0.  1.
         -5    1    3    3    0  502  0.17027824491E+02  0.26533087143E+02  0.19509669384E+03  0.19767180848E+03  0.41800000000E+01 0.  1.
        -11    1    1    2    0    0  0.25079980036E+02  0.36830715222E+02  0.15917069276E+02  0.47316594095E+02  0.00000000000E+00 0. -1.
         11    1    1    2    0    0  0.28019272559E+02 -0.49302666196E+02  0.63332796640E+02  0.85011032572E+02  0.00000000000E+00 0.  1.
</event>
<event>
 7    1  0.2522928E-009  0.2149373E+03  0.7561462E-02  0.1137715E+00
          2   -1    0    0  501    0  0.00000000000E+00  0.00000000000E+00  0.81768951047E+03  0.81768951047E+03  0.00000000000E+00 0. -1.
         -2   -1    0    0    0  501 -0.00000000000E+00 -0.00000000000E+00 -0.61779853788E+02  0.61779853788E+02  0.00000000000E+00 0.  1.
         25    2    1    2    0    0  0.59541558413E+02 -0.18396505686E+03  0.43878815176E+03  0.49555142193E+03  0.12509128801E+03 0.  0.
          5    1    3    3  502    0  0.40283503545E+02  0.18672441289E+01  0.11188933530E+03  0.11900816364E+03  0.41800000000E+01 0.  1.
         -5    1    3    3    0  502  0.19258054867E+02 -0.18583230099E+03  0.32689881646E+03  0.37654325830E+03  0.41800000000E+01 0.  1.
        -11    1    1    2    0    0 -0.35192613168E+02  0.29029968529E+02  0.24176245266E+02  0.51630900917E+02  0.00000000000E+00 0.  1.
         11    1    1    2    0    0 -0.24348945245E+02  0.15493508833E+03  0.29294525966E+03  0.33228704141E+03  0.00000000000E+00 0. -1.
</event>
<event>
 7    1  0.2522928E-009  0.9646778E+02  0.7561462E-02  0.1287904E+00
          1   -1    0    0  501    0  0.00000000000E+00  0.00000000000E+00  0.50460969480E+03  0.50460969480E+03  0.00000000000E+00 0. -1.
         -1   -1    0    0    0  501 -0.00000000000E+00 -0.00000000000E+00 -0.48438972061E+02  0.48438972061E+02  0.00000000000E+00 0.  1.
         25    2    1    2    0    0  0.87996336118E+02  0.12965937103E+02  0.13079884431E+03  0.20165948895E+03  0.12508693422E+03 0.  0.
          5    1    3    3  502    0  0.78817512802E+02  0.28276064745E+02  0.15202543698E+03  0.17361146866E+03  0.41800000000E+01 0.  1.
         -5    1    3    3    0  502  0.91788233153E+01 -0.15310127642E+02 -0.21226592664E+02  0.28048020286E+02  0.41800000000E+01 0.  1.
        -11    1    1    2    0    0 -0.10137886928E+02 -0.76900442457E+01 -0.36515031298E+01  0.13238089249E+02  0.00000000000E+00 0.  1.
         11    1    1    2    0    0 -0.77858449190E+02 -0.52758928572E+01  0.32902338156E+03  0.33815108867E+03  0.00000000000E+00 0. -1.
</event>
<event>
 7    1  0.2522928E-009  0.5084888E+02  0.7561462E-02  0.1440816E+00
         -2   -1    0    0    0  501 -0.00000000000E+00  0.00000000000E+00  0.69499849580E+02  0.69499849580E+02  0.00000000000E+00 0.  1.
          2   -1    0    0  501    0  0.00000000000E+00 -0.00000000000E+00 -0.19219660451E+03  0.19219660451E+03  0.00000000000E+00 0. -1.
         25    2    1    2    0    0  0.10770520460E+02  0.23047610189E+02 -0.36713217239E+02  0.13282413006E+03  0.12508873954E+03 0.  0.
          5    1    3    3  502    0  0.30629426211E+00  0.30489046184E+02 -0.80933805771E+02  0.86587695835E+02  0.41800000000E+01 0. -1.
         -5    1    3    3    0  502  0.10464226198E+02 -0.74414359945E+01  0.44220588533E+02  0.46236434224E+02  0.41800000000E+01 0. -1.
        -11    1    1    2    0    0 -0.16398572566E+02 -0.38029396380E+02 -0.23259328246E-02  0.41414347474E+02  0.00000000000E+00 0.  1.
         11    1    1    2    0    0  0.56280521067E+01  0.14981786191E+02 -0.85981211763E+02  0.87457976561E+02  0.00000000000E+00 0. -1.
</event>
<event>
 7    1  0.2522928E-009  0.1252594E+03  0.7561462E-02  0.1234664E+00
         -1   -1    0    0    0  501 -0.00000000000E+00  0.00000000000E+00  0.10737682938E+04  0.10737682938E+04  0.00000000000E+00 0.  1.
          1   -1    0    0  501    0  0.00000000000E+00 -0.00000000000E+00 -0.14738988461E+02  0.14738988461E+02  0.00000000000E+00 0. -1.
         25    2    1    2    0    0  0.21577364976E+02 -0.63568017204E+02  0.61828274815E+03  0.63437177856E+03  0.12509005271E+03 0.  0.
          5    1    3    3  502    0 -0.27758311863E+02 -0.83191476850E+02  0.34918365044E+03  0.36005282923E+03  0.41800000000E+01 0. -1.
         -5    1    3    3    0  502  0.49335676839E+02  0.19623459646E+02  0.26909909771E+03  0.27431894934E+03  0.41800000000E+01 0. -1.
        -11    1    1    2    0    0 -0.19163712718E+02  0.85385155849E+02  0.35173447613E+03  0.36245691389E+03  0.00000000000E+00 0. -1.
         11    1    1    2    0    0 -0.24136522585E+01 -0.21817138644E+02  0.89012081068E+02  0.91678589823E+02  0.00000000000E+00 0.  1.
</event>
<event>
 7    1  0.2522928E-009  0.8944044E+02  0.7561462E-02  0.1304212E+00
         -1   -1    0    0    0  501 -0.00000000000E+00  0.00000000000E+00  0.11117102493E+03  0.11117102493E+03  0.00000000000E+00 0.  1.
          1   -1    0    0  501    0  0.00000000000E+00 -0.00000000000E+00 -0.14788412429E+03  0.14788412429E+03  0.00000000000E+00 0. -1.
         25    2    1    2    0    0 -0.26919233024E+01  0.67619864661E+02 -0.20005166496E+02  0.14362290476E+03  0.12509052537E+03 0.  0.
          5    1    3    3  502    0  0.24646166418E+02 -0.53414524716E+01 -0.53049669727E+02  0.58887218407E+02  0.41800000000E+01 0. -1.
         -5    1    3    3    0  502 -0.27338089720E+02  0.72961317133E+02  0.33044503232E+02  0.84735686349E+02  0.41800000000E+01 0. -1.
        -11    1    1    2    0    0 -0.10357736952E+02 -0.58405037838E+02  0.29710941186E+02  0.66341323364E+02  0.00000000000E+00 0.  1.
         11    1    1    2    0    0  0.13049660255E+02 -0.92148268234E+01 -0.46418874053E+02  0.49090921101E+02  0.00000000000E+00 0. -1.
</event>
<event>
 7    1  0.2522928E-009  0.1058884E+03  0.7561462E-02  0.1268379E+00
         -1   -1    0    0    0  501 -0.00000000000E+00  0.00000000000E+00  0.22398170832E+02  0.22398170832E+02  0.00000000000E+00 0.  1.
          1   -1    0    0  501    0  0.00000000000E+00 -0.00000000000E+00 -0.10538091446E+04  0.10538091446E+04  0.00000000000E+00 0. -1.
         25    2    1    2    0    0 -0.41627534612E+02 -0.91289425051E+01 -0.90971342765E+03  0.91926183257E+03  0.12509039586E+03 0.  0.
          5    1    3    3  502    0 -0.76928491029E+02  0.26130838889E+02 -0.51509850464E+03  0.52148322634E+03  0.41800000000E+01 0. -1.
         -5    1    3    3    0  502  0.35300956417E+02 -0.35259781394E+02 -0.39461492301E+03  0.39777860623E+03  0.41800000000E+01 0. -1.
        -11    1    1    2    0    0  0.27332944288E+02  0.38776368877E+02 -0.22647290768E+02  0.52569919211E+02  0.00000000000E+00 0.  1.
         11    1    1    2    0    0  0.14294590325E+02 -0.29647426371E+02 -0.99050255310E+02  0.10437556361E+03  0.00000000000E+00 0. -1.
</event>
<event>
 7    1  0.2522928E-009  0.2318958E+03  0.7561462E-02  0.1125312E+00
         -2   -1    0    0    0  501 -0.00000000000E+00  0.00000000000E+00  0.17028580630E+03  0.17028580630E+03  0.00000000000E+00 0.  1.
          2   -1    0    0  501    0  0.00000000000E+00 -0.00000000000E+00 -0.46289863662E+03  0.46289863662E+03  0.00000000000E+00 0. -1.
         25    2    1    2    0    0 -0.20762967805E+03 -0.10273854152E+02 -0.32344826488E+03  0.40433725962E+03  0.12511676218E+03 0.  0.
          5    1    3    3  502    0 -0.23106025749E+02  0.42987732665E+02 -0.48535894749E+02  0.68956791287E+02  0.41800000000E+01 0. -1.
         -5    1    3    3    0  502 -0.18452365230E+03 -0.53261586817E+02 -0.27491237013E+03  0.33538046833E+03  0.41800000000E+01 0. -1.
        -11    1    1    2    0    0  0.10280474656E+03 -0.34893205195E+02  0.36577363824E+02  0.11456114188E+03  0.00000000000E+00 0.  1.
         11    1    1    2    0    0  0.10482493149E+03  0.45167059348E+02 -0.57419292725E+01  0.11428604142E+03  0.00000000000E+00 0. -1.
</event>
<event>
 7    1  0.2522928E-009  0.1349366E+03  0.7561462E-02  0.1220309E+00
          1   -1    0    0  501    0  0.00000000000E+00  0.00000000000E+00  0.21087889062E+03  0.21087889062E+03  0.00000000000E+00 0. -1.
         -1   -1    0    0    0  501 -0.00000000000E+00 -0.00000000000E+00 -0.10038503681E+03  0.10038503681E+03  0.00000000000E+00 0.  1.
         25    2    1    2    0    0  0.45819106453E+02  0.84346268494E+02  0.81998232969E+02  0.17772143118E+03  0.12509002105E+03 0.  0.
          5    1    3    3  502    0 -0.14480226029E+02 -0.24993952025E+02  0.31566092946E+02  0.42991455052E+02  0.41800000000E+01 0.  1.
         -5    1    3    3    0  502  0.60299332482E+02  0.10934022052E+03  0.50432140023E+02  0.13472997613E+03  0.41800000000E+01 0.  1.
        -11    1    1    2    0    0 -0.38113174276E+02 -0.79066927381E+01  0.40052642917E+02  0.55851088155E+02  0.00000000000E+00 0. -1.
         11    1    1    2    0    0 -0.77059321768E+01 -0.76439575756E+02 -0.11557022071E+02  0.77691408094E+02  0.00000000000E+00 0.  1.
</event>
<event>
 7    1  0.2522928E-009  0.1242186E+03  0.7561462E-02  0.1236296E+00
          4   -1    0    0  501    0  0.00000000000E+00  0.00000000000E+00  0.65809336062E+03  0.65809336062E+03  0.00000000000E+00 0. -1.
         -4   -1    0    0    0  501 -0.00000000000E+00 -0.00000000000E+00 -0.32534833987E+02  0.32534833987E+02  0.00000000000E+00 0.  1.
         25    2    1    2    0    0  0.41878806133E+02 -0.72559297810E+02  0.22261638171E+03  0.26874504674E+03  0.12508861116E+03 0.  0.
          5    1    3    3  502    0  0.31401261438E+02 -0.10424847538E+03  0.12671984959E+03  0.16712024569E+03  0.41800000000E+01 0.  1.
         -5    1    3    3    0  502  0.10477544695E+02  0.31689177566E+02  0.95896532116E+02  0.10162480106E+03  0.41800000000E+01 0.  1.
        -11    1    1    2    0    0 -0.45441050929E+02  0.14531831231E+02  0.75429593768E+02  0.89250696605E+02  0.00000000000E+00 0.  1.
         11    1    1    2    0    0  0.35622447959E+01  0.58027466579E+02  0.32751255115E+03  0.33263245125E+03  0.00000000000E+00 0. -1.
</event>
<event>
 7    1  0.2522928E-009  0.1375083E+03  0.7561462E-02  0.1216722E+00
         -2   -1    0    0    0  501 -0.00000000000E+00  0.00000000000E+00  0.44743193236E+02  0.44743193236E+02  0.00000000000E+00 0.  1.
          2   -1    0    0  501    0  0.00000000000E+00 -0.00000000000E+00 -0.62224985208E+03  0.62224985208E+03  0.00000000000E+00 0. -1.
         25    2    1    2    0    0  0.95477517393E+02 -0.57167292860E+02 -0.42127752851E+03  0.45332753682E+03  0.12508814457E+03 0.  0.
          5    1    3    3  502    0 -0.24193633423E+02 -0.20759346888E+01 -0.22632355327E+02  0.33456498781E+02  0.41800000000E+01 0. -1.
         -5    1    3    3    0  502  0.11967115082E+03 -0.55091358171E+02 -0.39864517318E+03  0.41987103804E+03  0.41800000000E+01 0. -1.
        -11    1    1    2    0    0 -0.56026290564E+02  0.55828827628E+02 -0.35589210937E+02  0.86731742539E+02  0.00000000000E+00 0.  1.
         11    1    1    2    0    0 -0.39451226828E+02  0.13384652317E+01 -0.12063991940E+03  0.12693376596E+03  0.00000000000E+00 0. -1.
</event>
<event>
 7    1  0.2522928E-009  0.1572115E+03  0.7561462E-02  0.1191881E+00
         -4   -1    0    0    0  501 -0.00000000000E+00  0.00000000000E+00  0.71087926223E+03  0.71087926223E+03  0.00000000000E+00 0.  1.
          4   -1    0    0  501    0  0.00000000000E+00 -0.00000000000E+00 -0.47289133306E+02  0.47289133306E+02  0.00000000000E+00 0. -1.
         25    2    1    2    0    0  0.12673032874E+03 -0.54030094879E+02  0.45686660839E+03  0.49331024219E+03  0.12509224521E+03 0.  0.
          5    1    3    3  502    0  0.10800256031E+03 -0.85031778049E+01  0.16593792483E+03  0.19821635746E+03  0.41800000000E+01 0.  1.
         -5    1    3    3    0  502  0.18727768431E+02 -0.45526917074E+02  0.29092868356E+03  0.29509388473E+03  0.41800000000E+01 0.  1.
        -11    1    1    2    0    0 -0.42204343893E+02 -0.17675678211E+02  0.10447937427E+03  0.11405952784E+03  0.00000000000E+00 0.  1.
         11    1    1    2    0    0 -0.84525984848E+02  0.71705773090E+02  0.10224414627E+03  0.15079862551E+03  0.00000000000E+00 0. -1.
</event>
<event>
 7    1  0.2522928E-009  0.2501821E+03  0.7561462E-02  0.1113190E+00
         -2   -1    0    0    0  501 -0.00000000000E+00  0.00000000000E+00  0.24898937520E+02  0.24898937520E+02  0.00000000000E+00 0. -1.
          2   -1    0    0  501    0  0.00000000000E+00 -0.00000000000E+00 -0.34499223893E+04  0.34499223893E+04  0.00000000000E+00 0.  1.
         25    2    1    2    0    0  0.16749298084E+03  0.16127552843E+03 -0.25877670836E+04  0.26012016944E+04  0.12509228932E+03 0.  0.
          5    1    3    3  502    0  0.15799087354E+03  0.82850676601E+02 -0.15035031715E+04  0.15140556825E+04  0.41800000000E+01 0. -1.
         -5    1    3    3    0  502  0.95021073021E+01  0.78424851832E+02 -0.10842639122E+04  0.10871460119E+04  0.41800000000E+01 0. -1.
        -11    1    1    2    0    0 -0.12076542061E+03 -0.68272361648E+02 -0.57420221726E+03  0.59072293716E+03  0.00000000000E+00 0.  1.
         11    1    1    2    0    0 -0.46727560230E+02 -0.93003166785E+02 -0.26305415084E+03  0.28289669526E+03  0.00000000000E+00 0. -1.
</event>
<event>
 7    1  0.2522928E-009  0.1353922E+03  0.7561462E-02  0.1219667E+00
         -1   -1    0    0    0  501 -0.00000000000E+00  0.00000000000E+00  0.88596325355E+02  0.88596325355E+02  0.00000000000E+00 0. -1.
          1   -1    0    0  501    0  0.00000000000E+00 -0.00000000000E+00 -0.25915093340E+03  0.25915093340E+03  0.00000000000E+00 0.  1.
         25    2    1    2    0    0  0.34443829879E+02  0.87747909271E+02 -0.35721059436E+02  0.16063601928E+03  0.12506743623E+03 0.  0.
          5    1    3    3  502    0  0.80974285385E+02  0.67081173728E+02 -0.19400116556E+02  0.10700726931E+03  0.41800000000E+01 0.  1.
         -5    1    3    3    0  502 -0.46530455506E+02  0.20666735542E+02 -0.16320942880E+02  0.53628749977E+02  0.41800000000E+01 0.  1.
        -11    1    1    2    0    0  0.16233592731E+02 -0.46085070892E+02 -0.10340331375E+03  0.11436611642E+03  0.00000000000E+00 0.  1.
         11    1    1    2    0    0 -0.50677422609E+02 -0.41662838379E+02 -0.31430234868E+02  0.72745123052E+02  0.00000000000E+00 0. -1.
</event>
<event>
 7    1  0.2522928E-009  0.9521507E+02  0.7561462E-02  0.1290692E+00
         -2   -1    0    0    0  501 -0.00000000000E+00  0.00000000000E+00  0.20408886350E+03  0.20408886350E+03  0.00000000000E+00 0.  1.
          2   -1    0    0  501    0  0.00000000000E+00 -0.00000000000E+00 -0.70070436912E+02  0.70070436912E+02  0.00000000000E+00 0. -1.
         25    2    1    2    0    0 -0.21848119164E+02 -0.41548594116E+02  0.98645020154E+02  0.16608056084E+03  0.12509311214E+03 0.  0.
          5    1    3    3  502    0  0.41635140808E+02 -0.26153459206E+02  0.86385121371E+02  0.99485425932E+02  0.41800000000E+01 0. -1.
         -5    1    3    3    0  502 -0.63483259972E+02 -0.15395134910E+02  0.12259898782E+02  0.66595134910E+02  0.41800000000E+01 0. -1.
        -11    1    1    2    0    0  0.42419882580E+02  0.30760839220E+02 -0.13374707163E+02  0.54079186933E+02  0.00000000000E+00 0. -1.
         11    1    1    2    0    0 -0.20571763416E+02  0.10787754896E+02  0.48748113602E+02  0.53999552641E+02  0.00000000000E+00 0.  1.
</event>
<event>
 7    1  0.2522928E-009  0.1969383E+03  0.7561462E-02  0.1152348E+00
         -1   -1    0    0    0  501 -0.00000000000E+00  0.00000000000E+00  0.42030072147E+03  0.42030072147E+03  0.00000000000E+00 0.  1.
          1   -1    0    0  501    0  0.00000000000E+00 -0.00000000000E+00 -0.45043311057E+03  0.45043311057E+03  0.00000000000E+00 0. -1.
         25    2    1    2    0    0 -0.15807662109E+03 -0.77189360344E+02 -0.39823217207E+03  0.45297126967E+03  0.12509073824E+03 0.  0.
          5    1    3    3  502    0 -0.14076207724E+03 -0.20550366661E+02 -0.19609980525E+03  0.24229916627E+03  0.41800000000E+01 0. -1.
         -5    1    3    3    0  502 -0.17314543849E+02 -0.56638993683E+02 -0.20213236682E+03  0.21067210340E+03  0.41800000000E+01 0. -1.
        -11    1    1    2    0    0  0.12359071643E+03  0.92582077032E+02  0.32880923242E+03  0.36326521648E+03  0.00000000000E+00 0.  1.
         11    1    1    2    0    0  0.34485904654E+02 -0.15392716688E+02  0.39290550544E+02  0.54497345889E+02  0.00000000000E+00 0. -1.
</event>
<event>
 6    1  0.2522928E-009  0.1111323E+03  0.7561462E-02  0.1258487E+00
          1   -1    0    0  501    0  0.00000000000E+00  0.00000000000E+00  0.42727957925E+03  0.42727957925E+03  0.00000000000E+00 0. -1.
         -1   -1    0    0    0  501 -0.00000000000E+00 -0.00000000000E+00 -0.37214143561E+02  0.37214143561E+02  0.00000000000E+00 0.  1.
          5    1    1    2  502    0 -0.21258736218E+01 -0.73024040137E+02  0.23912985047E+03  0.25007516383E+03  0.41800000000E+01 0.  1.
         -5    1    1    2    0  502 -0.24808559234E+02  0.41398688829E+02  0.61423862382E+02  0.78228379236E+02  0.41800000000E+01 0.  1.
        -11    1    1    2    0    0 -0.12406378897E+02 -0.27190050369E+02  0.15022857485E+02  0.33450012309E+02  0.00000000000E+00 0. -1.
         11    1    1    2    0    0  0.39340811753E+02  0.58815401678E+02  0.74488865348E+02  0.10274016744E+03  0.00000000000E+00 0.  1.
</event>
<event>
 7    1  0.2522928E-009  0.1023587E+03  0.7561462E-02  0.1275413E+00
          2   -1    0    0  501    0  0.00000000000E+00  0.00000000000E+00  0.33317938483E+03  0.33317938483E+03  0.00000000000E+00 0. -1.
         -2   -1    0    0    0  501 -0.00000000000E+00 -0.00000000000E+00 -0.45464804826E+02  0.45464804826E+02  0.00000000000E+00 0.  1.
         25    2    1    2    0    0 -0.47324380971E+02 -0.26366267484E+02  0.19565016482E+03  0.23845603824E+03  0.12509003991E+03 0.  0.
          5    1    3    3  502    0  0.19168600808E+02  0.18188225795E+02  0.13584245773E+03  0.13845176971E+03  0.41800000000E+01 0. -1.
         -5    1    3    3    0  502 -0.66492981779E+02 -0.44554493279E+02  0.59807707089E+02  0.10000426853E+03  0.41800000000E+01 0. -1.
        -11    1    1    2    0    0 -0.18470258618E+02 -0.11640239867E+02  0.47058865419E+02  0.51876607947E+02  0.00000000000E+00 0.  1.
         11    1    1    2    0    0  0.65794639589E+02  0.38006507351E+02  0.45005549771E+02  0.88311543469E+02  0.00000000000E+00 0. -1.
</event>
<event>
 7    1  0.2522928E-009  0.1327095E+03  0.7561462E-02  0.1223490E+00
          3   -1    0    0  501    0  0.00000000000E+00  0.00000000000E+00  0.80209109827E+03  0.80209109827E+03  0.00000000000E+00 0. -1.
         -3   -1    0    0    0  501 -0.00000000000E+00 -0.00000000000E+00 -0.23760367002E+02  0.23760367002E+02  0.00000000000E+00 0.  1.
         25    2    1    2    0    0  0.75171907300E+02 -0.36786544366E+02  0.46710386473E+03  0.49075144115E+03  0.12508753354E+03 0.  0.
          5    1    3    3  502    0 -0.20224686700E+02 -0.41180369289E+02  0.82959306259E+02  0.94892463672E+02  0.41800000000E+01 0.  1.
         -5    1    3    3    0  502  0.95396593999E+02  0.43938249223E+01  0.38414455847E+03  0.39585897747E+03  0.41800000000E+01 0.  1.
        -11    1    1    2    0    0  0.18014948363E+02  0.23532360723E+02  0.62863122831E+02  0.69498795513E+02  0.00000000000E+00 0.  1.
         11    1    1    2    0    0 -0.93186855663E+02  0.13254183643E+02  0.24836374370E+03  0.26560122861E+03  0.00000000000E+00 0. -1.
</event>
<event>
 7    1  0.2522928E-009  0.1320285E+03  0.7561462E-02  0.1224477E+00
          1   -1    0    0  501    0  0.00000000000E+00  0.00000000000E+00  0.60803268049E+02  0.60803268049E+02  0.00000000000E+00 0. -1.
         -1   -1    0    0    0  501 -0.00000000000E+00 -0.00000000000E+00 -0.31506883444E+03  0.31506883444E+03  0.00000000000E+00 0.  1.
         25    2    1    2    0    0 -0.77547454151E+02  0.33452042072E+02 -0.98861591556E+02  0.18043710581E+03  0.12510510822E+03 0.  0.
          5    1    3    3  502    0 -0.74895126773E+02  0.76624556903E+02 -0.65491436308E+02  0.12564713831E+03  0.41800000000E+01 0.  1.
         -5    1    3    3    0  502 -0.26523273778E+01 -0.43172514831E+02 -0.33370155248E+02  0.54789967500E+02  0.41800000000E+01 0.  1.
        -11    1    1    2    0    0  0.92396118562E+02 -0.23005189277E+02 -0.14765794812E+03  0.17569618978E+03  0.00000000000E+00 0.  1.
         11    1    1    2    0    0 -0.14848664411E+02 -0.10446852795E+02 -0.77460267107E+01  0.19738806902E+02  0.00000000000E+00 0. -1.
</event>
<event>
 6    1  0.2522928E-009  0.1294895E+03  0.7561462E-02  0.1228215E+00
          2   -1    0    0  501    0  0.00000000000E+00  0.00000000000E+00  0.71576597847E+03  0.71576597847E+03  0.00000000000E+00 0. -1.
         -2   -1    0    0    0  501 -0.00000000000E+00 -0.00000000000E+00 -0.25298680056E+02  0.25298680056E+02  0.00000000000E+00 0.  1.
          5    1    1    2  502    0  0.23579263288E+02  0.90166810409E+02  0.28408747603E+03  0.29901371506E+03  0.41800000000E+01 0.  1.
         -5    1    1    2    0  502 -0.49810562855E+02 -0.16285251081E+02  0.11211343640E+03  0.12382728534E+03  0.41800000000E+01 0.  1.
        -11    1    1    2    0    0 -0.58300638306E+01 -0.80221104939E+02  0.14897045307E+03  0.16929740462E+03  0.00000000000E+00 0.  1.
         11    1    1    2    0    0  0.32061363398E+02  0.63395456110E+01  0.14529593292E+03  0.14892625351E+03  0.00000000000E+00 0. -1.
</event>
<event>
 7    1  0.2522928E-009  0.1114262E+03  0.7561462E-02  0.1257951E+00
          1   -1    0    0  501    0  0.00000000000E+00  0.00000000000E+00  0.55686639318E+02  0.55686639318E+02  0.00000000000E+00 0. -1.
         -1   -1    0    0    0  501 -0.00000000000E+00 -0.00000000000E+00 -0.25524405103E+03  0.25524405103E+03  0.00000000000E+00 0.  1.
         25    2    1    2    0    0  0.69425251037E+01 -0.47350377194E+02 -0.11771572768E+03  0.17831151635E+03  0.12509095668E+03 0.  0.
          5    1    3    3  502    0 -0.30536227219E+02  0.30833638746E+02 -0.21116386270E+02  0.48441187229E+02  0.41800000000E+01 0. -1.
         -5    1    3    3    0  502  0.37478752322E+02 -0.78184015940E+02 -0.96599341410E+02  0.12987032912E+03  0.41800000000E+01 0. -1.
        -11    1    1    2    0    0  0.31263035826E+02  0.44170319456E+02 -0.76801799169E+02  0.93951641207E+02  0.00000000000E+00 0.  1.
         11    1    1    2    0    0 -0.38205560930E+02  0.31800577378E+01 -0.50398848645E+01  0.38667532797E+02  0.00000000000E+00 0. -1.
</event>
<event>
 7    1  0.2522928E-009  0.1097718E+03  0.7561462E-02  0.1260993E+00
         -1   -1    0    0    0  501 -0.00000000000E+00  0.00000000000E+00  0.37793287635E+02  0.37793287635E+02  0.00000000000E+00 0.  1.
          1   -1    0    0  501    0  0.00000000000E+00 -0.00000000000E+00 -0.37337095519E+03  0.37337095519E+03  0.00000000000E+00 0. -1.
         25    2    1    2    0    0 -0.30295369225E+02 -0.25942762038E+02 -0.14607448476E+03  0.19640882843E+03  0.12509131260E+03 0.  0.
          5    1    3    3  502    0 -0.74225949586E+02 -0.15215899033E+01 -0.55677877871E+02  0.92894054234E+02  0.41800000000E+01 0.  1.
         -5    1    3    3    0  502  0.43930580361E+02 -0.24421172134E+02 -0.90396606887E+02  0.10351477419E+03  0.41800000000E+01 0.  1.
        -11    1    1    2    0    0  0.28682790031E+02  0.56915264409E+02 -0.88246356968E+02  0.10885526760E+03  0.00000000000E+00 0.  1.
         11    1    1    2    0    0  0.16125791939E+01 -0.30972502371E+02 -0.10125682583E+03  0.10590014680E+03  0.00000000000E+00 0. -1.
</event>
<event>
 7    1  0.2522928E-009  0.1526557E+03  0.7561462E-02  0.1197247E+00
         -1   -1    0    0    0  501 -0.00000000000E+00  0.00000000000E+00  0.34734122527E+02  0.34734122527E+02  0.00000000000E+00 0.  1.
          1   -1    0    0  501    0  0.00000000000E+00 -0.00000000000E+00 -0.80508813865E+03  0.80508813865E+03  0.00000000000E+00 0. -1.
         25    2    1    2    0    0 -0.12362263302E+03 -0.49363114224E+02 -0.49936741320E+03  0.53172784281E+03  0.12508961994E+03 0.  0.
          5    1    3    3  502    0 -0.95813436137E+02 -0.74232462196E+02 -0.46592968867E+03  0.48145469172E+03  0.41800000000E+01 0.  1.
         -5    1    3    3    0  502 -0.27809196879E+02  0.24869347972E+02 -0.33437724526E+02  0.50273151096E+02  0.41800000000E+01 0.  1.
        -11    1    1    2    0    0  0.10868198471E+03  0.15890067589E+02 -0.19826637108E+03  0.22665794041E+03  0.00000000000E+00 0.  1.
         11    1    1    2    0    0  0.14940648307E+02  0.33473046635E+02 -0.72720231848E+02  0.81436477962E+02  0.00000000000E+00 0. -1.
</event>
<event>
 7    1  0.2522928E-009  0.1037192E+03  0.7561462E-02  0.1272664E+00
          4   -1    0    0  501    0  0.00000000000E+00  0.00000000000E+00  0.30364882093E+03  0.30364882093E+03  0.00000000000E+00 0. -1.
         -4   -1    0    0    0  501 -0.00000000000E+00 -0.00000000000E+00 -0.51657463276E+02  0.51657463276E+02  0.00000000000E+00 0.  1.
         25    2    1    2    0    0  0.44991441464E+02 -0.33595066875E+02  0.17946370996E+03  0.22585077506E+03  0.12509392903E+03 0.  0.
          5    1    3    3  502    0  0.51827997334E+01 -0.72668182418E+02  0.62025473613E+02  0.95771383649E+02  0.41800000000E+01 0. -1.
         -5    1    3    3    0  502  0.39808641731E+02  0.39073115544E+02  0.11743823635E+03  0.13007939142E+03  0.41800000000E+01 0. -1.
        -11    1    1    2    0    0 -0.72766003067E+01  0.39666725818E+02 -0.72763513764E+01  0.40979791831E+02  0.00000000000E+00 0.  1.
         11    1    1    2    0    0 -0.37714841157E+02 -0.60716589433E+01  0.79803999068E+02  0.88475717308E+02  0.00000000000E+00 0. -1.
</event>
<event>
 7    1  0.2522928E-009  0.7123325E+02  0.7561462E-02  0.1355949E+00
          1   -1    0    0  501    0  0.00000000000E+00  0.00000000000E+00  0.11106327481E+03  0.11106327481E+03  0.00000000000E+00 0. -1.
         -1   -1    0    0    0  501 -0.00000000000E+00 -0.00000000000E+00 -0.12139361203E+03  0.12139361203E+03  0.00000000000E+00 0.  1.
         25    2    1    2    0    0 -0.62520622326E+00  0.15016249458E+02 -0.20151890127E+02  0.12759250496E+03  0.12509144661E+03 0.  0.
          5    1    3    3  502    0  0.89998021069E+01 -0.30126883752E+02 -0.59086619117E+02  0.67062109430E+02  0.41800000000E+01 0.  1.
         -5    1    3    3    0  502 -0.96250083301E+01  0.45143133211E+02  0.38934728990E+02  0.60530395529E+02  0.41800000000E+01 0. -1.
        -11    1    1    2    0    0  0.42764319405E+00 -0.39706964268E+02 -0.35492876068E+02  0.53259460583E+02  0.00000000000E+00 0.  1.
         11    1    1    2    0    0  0.19756302922E+00  0.24690714810E+02  0.45314428969E+02  0.51604921294E+02  0.00000000000E+00 0. -1.
</event>
<event>
 7    1  0.2522928E-009  0.1256892E+03  0.7561462E-02  0.1233996E+00
         -1   -1    0    0    0  501 -0.00000000000E+00  0.00000000000E+00  0.13987626364E+03  0.13987626364E+03  0.00000000000E+00 0.  1.
          1   -1    0    0  501    0  0.00000000000E+00 -0.00000000000E+00 -0.12786561091E+03  0.12786561091E+03  0.00000000000E+00 0. -1.
         25    2    1    2    0    0 -0.74855472934E+02  0.11469796651E+02 -0.57826952654E-01  0.14622754312E+03  0.12509033920E+03 0.  0.
          5    1    3    3  502    0 -0.76778237189E+02  0.59049852884E+02 -0.97969939827E+01  0.97443503234E+02  0.41800000000E+01 0. -1.
         -5    1    3    3    0  502  0.19227642549E+01 -0.47580056233E+02  0.97391670300E+01  0.48784039889E+02  0.41800000000E+01 0. -1.
        -11    1    1    2    0    0  0.26857231754E+02 -0.41919226762E+02  0.34324476733E+02  0.60470672006E+02  0.00000000000E+00 0.  1.
         11    1    1    2    0    0  0.47998241180E+02  0.30449430111E+02 -0.22255997059E+02  0.61043659421E+02  0.00000000000E+00 0. -1.
</event>
<event>
 7    1  0.2522928E-009  0.9648254E+02  0.7561462E-02  0.1287872E+00
          1   -1    0    0  501    0  0.00000000000E+00  0.00000000000E+00  0.18413356607E+04  0.18413356607E+04  0.00000000000E+00 0. -1.
         -1   -1    0    0    0  501 -0.00000000000E+00 -0.00000000000E+00 -0.15615630767E+02  0.15615630767E+02  0.00000000000E+00 0.  1.
         25    2    1    2    0    0 -0.13930588701E+02 -0.21922385864E+02  0.16664286787E+04  0.16713185880E+04  0.12508648678E+03 0.  0.
          5    1    3    3  502    0 -0.50189569784E+02 -0.56682269945E+02  0.87076601193E+03  0.87406109202E+03  0.41800000000E+01 0. -1.
         -5    1    3    3    0  502  0.36258981083E+02  0.34759884082E+02  0.79566266673E+03  0.79725749597E+03  0.41800000000E+01 0. -1.
        -11    1    1    2    0    0 -0.20578546455E+02  0.24662301022E+02  0.11936921806E+02  0.34266540066E+02  0.00000000000E+00 0.  1.
         11    1    1    2    0    0  0.34509135156E+02 -0.27399151579E+01  0.14735442948E+03  0.15136616343E+03  0.00000000000E+00 0. -1.
</event>
<event>
 7    1  0.2522928E-009  0.9741238E+02  0.7561462E-02  0.1285833E+00
          1   -1    0    0  501    0  0.00000000000E+00  0.00000000000E+00  0.61127669471E+02  0.61127669471E+02  0.00000000000E+00 0. -1.
         -1   -1    0    0    0  501 -0.00000000000E+00 -0.00000000000E+00 -0.27939875376E+03  0.27939875376E+03  0.00000000000E+00 0.  1.
         25    2    1    2    0    0 -0.69179408249E+01 -0.31917384482E+02 -0.37006231013E+02  0.13447282338E+03  0.12508757635E+03 0.  0.
          5    1    3    3  502    0  0.34044664810E+02 -0.45969800435E+02  0.21767694778E+02  0.61347915124E+02  0.41800000000E+01 0. -1.
         -5    1    3    3    0  502 -0.40962605635E+02  0.14052415954E+02 -0.58773925791E+02  0.73124908256E+02  0.41800000000E+01 0. -1.
        -11    1    1    2    0    0  0.25534637677E+02  0.57155359214E+02 -0.14603745631E+03  0.15888892804E+03  0.00000000000E+00 0.  1.
         11    1    1    2    0    0 -0.18616696852E+02 -0.25237974732E+02 -0.35227396968E+02  0.47164671815E+02  0.00000000000E+00 0. -1.
</event>
<event>
 7    1  0.2522928E-009  0.1239198E+03  0.7561462E-02  0.1236767E+00
          2   -1    0    0  501    0  0.00000000000E+00  0.00000000000E+00  0.27849902029E+03  0.27849902029E+03  0.00000000000E+00 0. -1.
         -2   -1    0    0    0  501 -0.00000000000E+00 -0.00000000000E+00 -0.58346305008E+02  0.58346305008E+02  0.00000000000E+00 0.  1.
         25    2    1    2    0    0  0.64870817997E+02 -0.16984120931E+02  0.12200476404E+03  0.18715850198E+03  0.12508580664E+03 0.  0.
          5    1    3    3  502    0  0.88536573626E+02  0.25955719353E+02  0.73141288435E+02  0.11781147954E+03  0.41800000000E+01 0.  1.
         -5    1    3    3    0  502 -0.23665755629E+02 -0.42939840283E+02  0.48863475604E+02  0.69347022439E+02  0.41800000000E+01 0.  1.
        -11    1    1    2    0    0  0.12962926376E+02  0.24866830337E+02  0.51398873306E+02  0.58551181785E+02  0.00000000000E+00 0. -1.
         11    1    1    2    0    0 -0.77833744373E+02 -0.78827094065E+01  0.46749077937E+02  0.91135641538E+02  0.00000000000E+00 0.  1.
</event>
<event>
 7    1  0.2522928E-009  0.1665119E+03  0.7561462E-02  0.1181535E+00
         -2   -1    0    0    0  501 -0.00000000000E+00  0.00000000000E+00  0.15665774739E+03  0.15665774739E+03  0.00000000000E+00 0.  1.
          2   -1    0    0  501    0  0.00000000000E+00 -0.00000000000E+00 -0.21673081238E+03  0.21673081238E+03  0.00000000000E+00 0. -1.
         25    2    1    2    0    0  0.32509476362E+02 -0.14119575744E+03  0.16478356060E+01  0.19142549159E+03  0.12509154845E+03 0.  0.
          5    1    3    3  502    0 -0.11791350541E+02  0.17753376793E+02 -0.13659853992E+02  0.25657013587E+02  0.41800000000E+01 0. -1.
         -5    1    3    3    0  502  0.44300826902E+02 -0.15894913423E+03  0.15307689598E+02  0.16576847800E+03  0.41800000000E+01 0. -1.
        -11    1    1    2    0    0 -0.35300923959E+02  0.13022159405E+03 -0.17186669210E+02  0.13601176563E+03  0.00000000000E+00 0.  1.
         11    1    1    2    0    0  0.27914475973E+01  0.10974163387E+02 -0.44534231390E+02  0.45951302563E+02  0.00000000000E+00 0. -1.
</event>
<event>
 7    1  0.2522928E-009  0.1019958E+03  0.7561462E-02  0.1276154E+00
         -1   -1    0    0    0  501 -0.00000000000E+00  0.00000000000E+00  0.32557518017E+02  0.32557518017E+02  0.00000000000E+00 0.  1.
          1   -1    0    0  501    0  0.00000000000E+00 -0.00000000000E+00 -0.42858520359E+03  0.42858520359E+03  0.00000000000E+00 0. -1.
         25    2    1    2    0    0 -0.21751390773E+02 -0.40325455245E+02 -0.21302846289E+03  0.25125740787E+03  0.12509953504E+03 0.  0.
          5    1    3    3  502    0  0.25130814573E+02 -0.49732017609E+02 -0.32900664937E+02  0.64844102044E+02  0.41800000000E+01 0. -1.
         -5    1    3    3    0  502 -0.46882205346E+02  0.94065623640E+01 -0.18012779795E+03  0.18641330583E+03  0.41800000000E+01 0. -1.
        -11    1    1    2    0    0  0.49260452700E+02  0.50723094967E+02 -0.10558425825E+03  0.12707265698E+03  0.00000000000E+00 0.  1.
         11    1    1    2    0    0 -0.27509061927E+02 -0.10397639722E+02 -0.77414964436E+02  0.82812656753E+02  0.00000000000E+00 0. -1.
</event>
<event>
 7    1  0.2522928E-009  0.1014530E+03  0.7561462E-02  0.1277270E+00
         -3   -1    0    0    0  501 -0.00000000000E+00  0.00000000000E+00  0.75822676095E+02  0.75822676095E+02  0.00000000000E+00 0.  1.
          3   -1    0    0  501    0  0.00000000000E+00 -0.00000000000E+00 -0.16845557638E+03  0.16845557638E+03  0.00000000000E+00 0. -1.
         25    2    1    2    0    0 -0.13398682907E+02  0.27563498883E+02 -0.40576626907E+02  0.13502946940E+03  0.12508886353E+03 0.  0.
          5    1    3    3  502    0  0.41733274140E+02  0.29936220122E+02 -0.57449296579E+02  0.77173424979E+02  0.41800000000E+01 0.  1.
         -5    1    3    3    0  502 -0.55131957047E+02 -0.23727212397E+01  0.16872669671E+02  0.57856044418E+02  0.41800000000E+01 0.  1.
        -11    1    1    2    0    0  0.29562033591E+02 -0.56001273667E+02 -0.33442499330E+02  0.71613247683E+02  0.00000000000E+00 0.  1.
         11    1    1    2    0    0 -0.16163350684E+02  0.28437774784E+02 -0.18613774047E+02  0.37635535393E+02  0.00000000000E+00 0. -1.
</event>
<event>
 7    1  0.2522928E-009  0.9819205E+02  0.7561462E-02  0.1284144E+00
         -1   -1    0    0    0  501 -0.00000000000E+00  0.00000000000E+00  0.35566121821E+02  0.35566121821E+02  0.00000000000E+00 0.  1.
          1   -1    0    0  501    0  0.00000000000E+00 -0.00000000000E+00 -0.36287079884E+03  0.36287079884E+03  0.00000000000E+00 0. -1.
         25    2    1    2    0    0  0.20203152210E+02 -0.31758625799E+02 -0.20437578663E+03  0.24257636966E+03  0.12512815546E+03 0.  0.
          5    1    3    3  502    0 -0.43584793341E+02 -0.21292108660E+02 -0.31564953046E+02  0.58024191184E+02  0.41800000000E+01 0.  1.
         -5    1    3    3    0  502  0.63787945551E+02 -0.10466517138E+02 -0.17281083358E+03  0.18455217848E+03  0.41800000000E+01 0.  1.
        -11    1    1    2    0    0 -0.93084739780E+01 -0.24191104104E+02 -0.72730500417E+01  0.26921264132E+02  0.00000000000E+00 0. -1.
         11    1    1    2    0    0 -0.10894678232E+02  0.55949729902E+02 -0.11565584035E+03  0.12893928686E+03  0.00000000000E+00 0.  1.
</event>
<event>
 7    1  0.2522928E-009  0.1089480E+03  0.7561462E-02  0.1262530E+00
         -1   -1    0    0    0  501 -0.00000000000E+00  0.00000000000E+00  0.55350178641E+02  0.55350178641E+02  0.00000000000E+00 0.  1.
          1   -1    0    0  501    0  0.00000000000E+00 -0.00000000000E+00 -0.28526038260E+03  0.28526038260E+03  0.00000000000E+00 0. -1.
         25    2    1    2    0    0  0.21393972075E+02  0.31764267389E+02 -0.51818240020E+02  0.14070670860E+03  0.12508627871E+03 0.  0.
          5    1    3    3  502    0 -0.37175139713E+02 -0.26518189870E+02 -0.31140637427E+02  0.55429388469E+02  0.41800000000E+01 0. -1.
         -5    1    3    3    0  502  0.58569111788E+02  0.58282457259E+02 -0.20677602593E+02  0.85277320131E+02  0.41800000000E+01 0. -1.
        -11    1    1    2    0    0 -0.42142436047E+02  0.94295784495E+01 -0.68173391833E+02  0.80700143865E+02  0.00000000000E+00 0. -1.
         11    1    1    2    0    0  0.20748463972E+02 -0.41193845838E+02 -0.10991857211E+03  0.11920370878E+03  0.00000000000E+00 0.  1.
</event>
<event>
 7    1  0.2522928E-009  0.1278446E+03  0.7561462E-02  0.1230689E+00
          3   -1    0    0  501    0  0.00000000000E+00  0.00000000000E+00  0.38401783768E+02  0.38401783768E+02  0.00000000000E+00 0. -1.
         -3   -1    0    0    0  501 -0.00000000000E+00 -0.00000000000E+00 -0.57457356377E+03  0.57457356377E+03  0.00000000000E+00 0.  1.
         25    2    1    2    0    0 -0.98231019766E+02 -0.90961388150E+01 -0.34282104630E+03  0.37802863467E+03  0.12508919162E+03 0.  0.
          5    1    3    3  502    0 -0.21395969178E+02  0.33585858266E+02 -0.23720191994E+03  0.24055772820E+03  0.41800000000E+01 0. -1.
         -5    1    3    3    0  502 -0.76835050588E+02 -0.42681997081E+02 -0.10561912636E+03  0.13747090648E+03  0.41800000000E+01 0. -1.
        -11    1    1    2    0    0 -0.13993146984E+02  0.64282925410E+01 -0.53187808322E+02  0.55372141566E+02  0.00000000000E+00 0.  1.
         11    1    1    2    0    0  0.11222416675E+03  0.26678462740E+01 -0.14016292538E+03  0.17957457130E+03  0.00000000000E+00 0. -1.
</event>
<event>
 7    1  0.2522928E-009  0.1771860E+03  0.7561462E-02  0.1170555E+00
          2   -1    0    0  501    0  0.00000000000E+00  0.00000000000E+00  0.29943255348E+03  0.29943255348E+03  0.00000000000E+00 0.  1.
         -2   -1    0    0    0  501 -0.00000000000E+00 -0.00000000000E+00 -0.11355431738E+03  0.11355431738E+03  0.00000000000E+00 0. -1.
         25    2    1    2    0    0  0.99358836141E+02 -0.10532834929E+03  0.13565635956E+03  0.23455570810E+03  0.12508993896E+03 0.  0.
          5    1    3    3  502    0 -0.30002035230E+02 -0.21246662564E+02  0.26903740413E+02  0.45747419996E+02  0.41800000000E+01 0. -1.
         -5    1    3    3    0  502  0.12936087137E+03 -0.84081686731E+02  0.10875261915E+03  0.18880828811E+03  0.41800000000E+01 0. -1.
        -11    1    1    2    0    0 -0.84546627334E+02  0.35583861891E+02  0.89968772424E+00  0.91734142274E+02  0.00000000000E+00 0.  1.
         11    1    1    2    0    0 -0.14812208806E+02  0.69744487404E+02  0.49322188807E+02  0.86697020489E+02  0.00000000000E+00 0. -1.
</event>
<event>
 7    1  0.2522928E-009  0.1442977E+03  0.7561462E-02  0.1207660E+00
          1   -1    0    0  501    0  0.00000000000E+00  0.00000000000E+00  0.75124218680E+02  0.75124218680E+02  0.00000000000E+00 0. -1.
         -1   -1    0    0    0  501 -0.00000000000E+00 -0.00000000000E+00 -0.38025190832E+03  0.38025190832E+03  0.00000000000E+00 0.  1.
         25    2    1    2    0    0  0.44946106112E+02 -0.89466487784E+02 -0.27038527114E+03  0.31429106924E+03  0.12508507691E+03 0.  0.
          5    1    3    3  502    0 -0.32847617881E+02 -0.67925200358E+02 -0.96743240446E+02  0.12275799695E+03  0.41800000000E+01 0. -1.
         -5    1    3    3    0  502  0.77793723993E+02 -0.21541287425E+02 -0.17364203069E+03  0.19153307228E+03  0.41800000000E+01 0. -1.
        -11    1    1    2    0    0 -0.70355419794E+02  0.75522608988E+02 -0.11348496794E+02  0.10383803707E+03  0.00000000000E+00 0. -1.
         11    1    1    2    0    0  0.25409313681E+02  0.13943878796E+02 -0.23393921712E+02  0.37247020696E+02  0.00000000000E+00 0.  1.
</event>
<event>
 7    1  0.2808851E-009  0.1354061E+03  0.7561462E-02  0.1219648E+00
         -2   -1    0    0    0  501 -0.00000000000E+00  0.00000000000E+00  0.82340509148E+02  0.82340509148E+02  0.00000000000E+00 0. -1.
          2   -1    0    0  501    0  0.00000000000E+00 -0.00000000000E+00 -0.28204922352E+03  0.28204922352E+03  0.00000000000E+00 0.  1.
         25    2    1    2    0    0  0.72978997792E+02 -0.76923761560E+02 -0.93800047467E+02  0.18891487180E+03  0.12508869123E+03 0.  0.
          5    1    3    3  502    0  0.13440633144E+02 -0.99222857739E+02 -0.55015395225E+02  0.11432406671E+03  0.41800000000E+01 0. -1.
         -5    1    3    3    0  502  0.59538364647E+02  0.22299096178E+02 -0.38784652241E+02  0.74590805095E+02  0.41800000000E+01 0. -1.
        -11    1    1    2    0    0 -0.38695843707E+02  0.31054126996E+02 -0.10727456871E+03  0.11819289410E+03  0.00000000000E+00 0.  1.
         11    1    1    2    0    0 -0.34283154085E+02  0.45869634564E+02  0.13659018011E+01  0.57281966768E+02  0.00000000000E+00 0. -1.
</event>
<event>
 7    1  0.2794672E-009  0.1948792E+03  0.7561462E-02  0.1154133E+00
         -2   -1    0    0    0  501 -0.00000000000E+00  0.00000000000E+00  0.31766103038E+02  0.31766103038E+02  0.00000000000E+00 0.  1.
          2   -1    0    0  501    0  0.00000000000E+00 -0.00000000000E+00 -0.12800318681E+04  0.12800318681E+04  0.00000000000E+00 0. -1.
         25    2    1    2    0    0  0.98473186108E+02 -0.13767106629E+03 -0.61282060965E+03  0.64795623484E+03  0.12509153359E+03 0.  0.
          5    1    3    3  502    0  0.73370671631E+02 -0.15854770682E+03 -0.54909032424E+03  0.57622763503E+03  0.41800000000E+01 0. -1.
         -5    1    3    3    0  502  0.25102514478E+02  0.20876640522E+02 -0.63730285411E+02  0.71728599813E+02  0.41800000000E+01 0. -1.
        -11    1    1    2    0    0 -0.29423622092E+02  0.98292667300E+02 -0.45884951815E+03  0.47018089953E+03  0.00000000000E+00 0. -1.
         11    1    1    2    0    0 -0.69049564017E+02  0.39378398994E+02 -0.17659563730E+03  0.19366083681E+03  0.00000000000E+00 0.  1.
</event>
<event>
 7    1  0.2522928E-009  0.9665581E+02  0.7561462E-02  0.1287490E+00
         -1   -1    0    0    0  501 -0.00000000000E+00  0.00000000000E+00  0.10586349514E+03  0.10586349514E+03  0.00000000000E+00 0.  1.
          1   -1    0    0  501    0  0.00000000000E+00 -0.00000000000E+00 -0.12989054509E+03  0.12989054509E+03  0.00000000000E+00 0. -1.
         25    2    1    2    0    0 -0.67468005074E+00 -0.38669696577E+02  0.60116302919E+01  0.13106995514E+03  0.12508953919E+03 0.  0.
          5    1    3    3  502    0 -0.39780254984E+02 -0.64580796911E+02 -0.18199776161E+02  0.78114353794E+02  0.41800000000E+01 0. -1.
         -5    1    3    3    0  502  0.39105574934E+02  0.25911100334E+02  0.24211406453E+02  0.52955601345E+02  0.41800000000E+01 0. -1.
        -11    1    1    2    0    0  0.18114762816E+02 -0.84632097929E+01 -0.47455528838E+02  0.51495609222E+02  0.00000000000E+00 0. -1.
         11    1    1    2    0    0 -0.17440082765E+02  0.47132906370E+02  0.17416848597E+02  0.53188475865E+02  0.00000000000E+00 0.  1.
</event>
<event>
 7    1  0.2522928E-009  0.1216632E+03  0.7561462E-02  0.1240378E+00
         -1   -1    0    0    0  501 -0.00000000000E+00  0.00000000000E+00  0.14907098901E+03  0.14907098901E+03  0.00000000000E+00 0.  1.
          1   -1    0    0  501    0  0.00000000000E+00 -0.00000000000E+00 -0.10397587107E+03  0.10397587107E+03  0.00000000000E+00 0. -1.
         25    2    1    2    0    0  0.40550525865E+02  0.42785311716E+02  0.36168251643E+02  0.14293736447E+03  0.12509204486E+03 0.  0.
          5    1    3    3  502    0  0.72572044789E+02 -0.10646767416E+02  0.32676963171E+02  0.80407161767E+02  0.41800000000E+01 0. -1.
         -5    1    3    3    0  502 -0.32021518925E+02  0.53432079133E+02  0.34912884723E+01  0.62530202701E+02  0.41800000000E+01 0. -1.
        -11    1    1    2    0    0 -0.55044822499E+02  0.70785421614E+01  0.15862836401E+02  0.57720601363E+02  0.00000000000E+00 0.  1.
         11    1    1    2    0    0  0.14494296634E+02 -0.49863853878E+02 -0.69359701048E+01  0.52388894241E+02  0.00000000000E+00 0. -1.
</event>
<event>
 7    1  0.2522928E-009  0.1420277E+03  0.7561462E-02  0.1210626E+00
         -1   -1    0    0    0  501 -0.00000000000E+00  0.00000000000E+00  0.66304627202E+02  0.66304627202E+02  0.00000000000E+00 0.  1.
          1   -1    0    0  501    0  0.00000000000E+00 -0.00000000000E+00 -0.46307643523E+03  0.46307643523E+03  0.00000000000E+00 0. -1.
         25    2    1    2    0    0  0.56439561461E+02 -0.10293374815E+03 -0.32185149928E+03  0.36471622889E+03  0.12509500157E+03 0.  0.
          5    1    3    3  502    0 -0.31742423148E+02 -0.60603397603E+02 -0.17770244156E+03  0.19046255109E+03  0.41800000000E+01 0.  1.
         -5    1    3    3    0  502  0.88181984609E+02 -0.42330350551E+02 -0.14414905772E+03  0.17425367780E+03  0.41800000000E+01 0.  1.
        -11    1    1    2    0    0 -0.49064675503E+02  0.93916795031E+02 -0.19133106992E+02  0.10767442851E+03  0.00000000000E+00 0.  1.
         11    1    1    2    0    0 -0.73748859585E+01  0.90169531231E+01 -0.55787201749E+02  0.56990405030E+02  0.00000000000E+00 0. -1.
</event>
<event>
 7    1  0.2522928E-009  0.2098675E+03  0.7561462E-02  0.1141671E+00
         -2   -1    0    0    0  501 -0.00000000000E+00  0.00000000000E+00  0.28083310245E+02  0.28083310245E+02  0.00000000000E+00 0.  1.
          2   -1    0    0  501    0  0.00000000000E+00 -0.00000000000E+00 -0.17490953746E+04  0.17490953746E+04  0.00000000000E+00 0. -1.
         25    2    1    2    0    0  0.87625905771E+02  0.15947091781E+03 -0.11479656684E+04  0.11690090778E+04  0.12509106763E+03 0.  0.
          5    1    3    3  502    0  0.12728961612E+01  0.12254656532E+03 -0.53477015417E+03  0.54864913299E+03  0.41800000000E+01 0. -1.
         -5    1    3    3    0  502  0.86353009610E+02  0.36924352483E+02 -0.61319551425E+03  0.62035994485E+03  0.41800000000E+01 0. -1.
        -11    1    1    2    0    0 -0.34006693836E+02 -0.14303157554E+03 -0.43467998989E+03  0.45886945904E+03  0.00000000000E+00 0.  1.
         11    1    1    2    0    0 -0.53619211934E+02 -0.16439342267E+02 -0.13836640602E+03  0.14930014795E+03  0.00000000000E+00 0. -1.
</event>
<event>
 7    1  0.2763436E-009  0.3007051E+03  0.7561462E-02  0.1084889E+00
         -2   -1    0    0    0  501 -0.00000000000E+00  0.00000000000E+00  0.61102586924E+02  0.61102586924E+02  0.00000000000E+00 0. -1.
          2   -1    0    0  501    0  0.00000000000E+00 -0.00000000000E+00 -0.15335503439E+04  0.15335503439E+04  0.00000000000E+00 0.  1.
         25    2    1    2    0    0 -0.26877584465E+03  0.96281055872E+02 -0.70433712898E+03  0.77022639956E+03  0.12508964356E+03 0.  0.
          5    1    3    3  502    0 -0.23945365918E+01  0.38270521928E+02 -0.10208996232E+03  0.10913386029E+03  0.41800000000E+01 0.  1.
         -5    1    3    3    0  502 -0.26638130806E+03  0.58010533944E+02 -0.60224716666E+03  0.66109253927E+03  0.41800000000E+01 0.  1.
        -11    1    1    2    0    0  0.13731052410E+03 -0.21643586262E+02 -0.47074641989E+03  0.49084092809E+03  0.00000000000E+00 0.  1.
         11    1    1    2    0    0  0.13146532055E+03 -0.74637469610E+02 -0.29736420806E+03  0.33358560312E+03  0.00000000000E+00 0. -1.
</event>
<event>
 7    1  0.2522928E-009  0.2669968E+03  0.7561462E-02  0.1103011E+00
          1   -1    0    0  501    0  0.00000000000E+00  0.00000000000E+00  0.46960917256E+03  0.46960917256E+03  0.00000000000E+00 0. -1.
         -1   -1    0    0    0  501 -0.00000000000E+00 -0.00000000000E+00 -0.16695790302E+03  0.16695790302E+03  0.00000000000E+00 0.  1.
         25    2    1    2    0    0  0.24967640163E+03  0.65712176107E+02  0.15691443886E+03  0.32699000197E+03  0.12507567569E+03 0.  0.
          5    1    3    3  502    0  0.20301497961E+03  0.79558677333E+02  0.73163352070E+02  0.23003263588E+03  0.41800000000E+01 0. -1.
         -5    1    3    3    0  502  0.46661422022E+02 -0.13846501226E+02  0.83751086793E+02  0.96957366096E+02  0.41800000000E+01 0. -1.
        -11    1    1    2    0    0 -0.13230449015E+03 -0.69846856471E+02  0.49024361954E+02  0.15743712884E+03  0.00000000000E+00 0.  1.
         11    1    1    2    0    0 -0.11737191148E+03  0.41346803640E+01  0.96712468727E+02  0.15213994476E+03  0.00000000000E+00 0. -1.
</event>
<event>
 7    1  0.2522928E-009  0.9677054E+02  0.7561462E-02  0.1287237E+00
          1   -1    0    0  501    0  0.00000000000E+00  0.00000000000E+00  0.46199686719E+03  0.46199686719E+03  0.00000000000E+00 0. -1.
         -1   -1    0    0    0  501 -0.00000000000E+00 -0.00000000000E+00 -0.65743485268E+02  0.65743485268E+02  0.00000000000E+00 0.  1.
         25    2    1    2    0    0  0.46273150983E+02  0.10153552115E+02  0.38810334816E+03  0.41050713574E+03  0.12509036943E+03 0.  0.
          5    1    3    3  502    0 -0.34672309780E+02  0.83230540892E+01  0.43041968556E+02  0.56049315357E+02  0.41800000000E+01 0.  1.
         -5    1    3    3    0  502  0.80945460763E+02  0.18304980257E+01  0.34506137960E+03  0.35445782039E+03  0.41800000000E+01 0.  1.
        -11    1    1    2    0    0 -0.59543634743E+02  0.50339427389E+00  0.46320192345E+02  0.75440427246E+02  0.00000000000E+00 0. -1.
         11    1    1    2    0    0  0.13270483760E+02 -0.10656946389E+02 -0.38170158580E+02  0.41792789468E+02  0.00000000000E+00 0.  1.
</event>
<event>
 7    1  0.2522928E-009  0.1547135E+03  0.7561462E-02  0.1194798E+00
          2   -1    0    0  501    0  0.00000000000E+00  0.00000000000E+00  0.38506050851E+03  0.38506050851E+03  0.00000000000E+00 0. -1.
         -2   -1    0    0    0  501 -0.00000000000E+00 -0.00000000000E+00 -0.64809787992E+02  0.64809787992E+02  0.00000000000E+00 0.  1.
         25    2    1    2    0    0 -0.11009730543E+03 -0.13560173877E+02  0.13190677943E+03  0.21296018748E+03  0.12508936011E+03 0.  0.
          5    1    3    3  502    0 -0.42263464237E+02 -0.67690877810E+02  0.70512744960E+02  0.10657286216E+03  0.41800000000E+01 0.  1.
         -5    1    3    3    0  502 -0.67833841196E+02  0.54130703932E+02  0.61394034469E+02  0.10638732532E+03  0.41800000000E+01 0.  1.
        -11    1    1    2    0    0 -0.11618510184E+02 -0.13635390361E+02  0.34411393397E+02  0.38795072428E+02  0.00000000000E+00 0. -1.
         11    1    1    2    0    0  0.12171581562E+03  0.27195564238E+02  0.15393254769E+03  0.19811503659E+03  0.00000000000E+00 0.  1.
</event>
<event>
 7    1  0.2522928E-009  0.1115489E+03  0.7561462E-02  0.1257728E+00
          2   -1    0    0  501    0  0.00000000000E+00  0.00000000000E+00  0.49631780772E+03  0.49631780772E+03  0.00000000000E+00 0. -1.
         -2   -1    0    0    0  501 -0.00000000000E+00 -0.00000000000E+00 -0.41004805736E+02  0.41004805736E+02  0.00000000000E+00 0.  1.
         25    2    1    2    0    0 -0.26831075078E+02 -0.62604034287E+02  0.13037972731E+03  0.19309496438E+03  0.12509044838E+03 0.  0.
          5    1    3    3  502    0  0.30490795774E+02 -0.34941808661E+02 -0.15141879270E+01  0.46587377953E+02  0.41800000000E+01 0. -1.
         -5    1    3    3    0  502 -0.57321870853E+02 -0.27662225626E+02  0.13189391523E+03  0.14650758642E+03  0.41800000000E+01 0. -1.
        -11    1    1    2    0    0 -0.23158381482E+02 -0.94844847211E+01  0.91300462348E+02  0.94668054318E+02  0.00000000000E+00 0. -1.
         11    1    1    2    0    0  0.49989456561E+02  0.72088519008E+02  0.23363281234E+03  0.24955959477E+03  0.00000000000E+00 0.  1.
</event>
<event>
 7    1  0.2522928E-009  0.3115009E+03  0.7561462E-02  0.1079629E+00
         -2   -1    0    0    0  501 -0.00000000000E+00  0.00000000000E+00  0.65204511280E+02  0.65204511280E+02  0.00000000000E+00 0.  1.
          2   -1    0    0  501    0  0.00000000000E+00 -0.00000000000E+00 -0.16910662372E+04  0.16910662372E+04  0.00000000000E+00 0. -1.
         25    2    1    2    0    0 -0.15882220494E+02 -0.30160800036E+03 -0.10507750599E+04  0.11004522339E+04  0.12508901547E+03 0.  0.
          5    1    3    3  502    0  0.19370337762E+02 -0.29429093140E+02 -0.41894609122E+02  0.54899109114E+02  0.41800000000E+01 0.  1.
         -5    1    3    3    0  502 -0.35252558256E+02 -0.27217890722E+03 -0.10088804507E+04  0.10455531248E+04  0.41800000000E+01 0.  1.
        -11    1    1    2    0    0 -0.20429227010E+02  0.24457897762E+03 -0.48052281556E+03  0.53957242876E+03  0.00000000000E+00 0. -1.
         11    1    1    2    0    0  0.36311447504E+02  0.57029022743E+02 -0.94563850539E+02  0.11624608589E+03  0.00000000000E+00 0.  1.
</event>
<event>
 7    1  0.2522928E-009  0.9287714E+02  0.7561462E-02  0.1296030E+00
         -2   -1    0    0    0  501 -0.00000000000E+00  0.00000000000E+00  0.24131549722E+02  0.24131549722E+02  0.00000000000E+00 0.  1.
          2   -1    0    0  501    0  0.00000000000E+00 -0.00000000000E+00 -0.83715360447E+03  0.83715360447E+03  0.00000000000E+00 0. -1.
         25    2    1    2    0    0  0.57854288012E+02 -0.56380867506E+02 -0.58521144057E+03  0.60387028791E+03  0.12514381164E+03 0.  0.
          5    1    3    3  502    0 -0.55492355548E+01 -0.37340307999E+02 -0.46519340941E+03  0.46674133433E+03  0.41800000000E+01 0.  1.
         -5    1    3    3    0  502  0.63403523567E+02 -0.19040559506E+02 -0.12001803116E+03  0.13712895358E+03  0.41800000000E+01 0.  1.
        -11    1    1    2    0    0 -0.14385313333E+02  0.82390179823E+01  0.37033563276E+01  0.16986274020E+02  0.00000000000E+00 0.  1.
         11    1    1    2    0    0 -0.43468974680E+02  0.48141849523E+02 -0.23151397051E+03  0.24042859226E+03  0.00000000000E+00 0. -1.
</event>
<event>
 7    1  0.2522928E-009  0.1187004E+03  0.7561462E-02  0.1245257E+00
         -1   -1    0    0    0  501 -0.00000000000E+00  0.00000000000E+00  0.34052211587E+02  0.34052211587E+02  0.00000000000E+00 0.  1.
          1   -1    0    0  501    0  0.00000000000E+00 -0.00000000000E+00 -0.71242895925E+03  0.71242895925E+03  0.00000000000E+00 0. -1.
         25    2    1    2    0    0  0.85671275284E+02  0.68792191675E+02 -0.40877548761E+03  0.44138066451E+03  0.12509020219E+03 0.  0.
          5    1    3    3  502    0 -0.69650242793E+01  0.22270630417E+02 -0.25368062394E+03  0.25478583930E+03  0.41800000000E+01 0. -1.
         -5    1    3    3    0  502  0.92636299563E+02  0.46521561258E+02 -0.15509486367E+03  0.18659482521E+03  0.41800000000E+01 0. -1.
        -11    1    1    2    0    0 -0.59684600119E+02 -0.45474596165E+02 -0.70491056315E+02  0.10295231619E+03  0.00000000000E+00 0.  1.
         11    1    1    2    0    0 -0.25986675165E+02 -0.23317595510E+02 -0.19911020374E+03  0.20214819014E+03  0.00000000000E+00 0. -1.
</event>
<event>
 7    1  0.2522928E-009  0.1277897E+03  0.7561462E-02  0.1230773E+00
          1   -1    0    0  501    0  0.00000000000E+00  0.00000000000E+00  0.32205753909E+04  0.32205753909E+04  0.00000000000E+00 0. -1.
         -1   -1    0    0    0  501 -0.00000000000E+00 -0.00000000000E+00 -0.11329541438E+02  0.11329541438E+02  0.00000000000E+00 0.  1.
         25    2    1    2    0    0 -0.33046592596E+02 -0.62615338271E+02  0.28730116591E+04  0.28766050433E+04  0.12509126173E+03 0.  0.
          5    1    3    3  502    0  0.93696673237E+01  0.34162226839E+02  0.97221892218E+03  0.97287304077E+03  0.41800000000E+01 0.  1.
         -5    1    3    3    0  502 -0.42416259920E+02 -0.96777565110E+02  0.19007927369E+04  0.19037320025E+04  0.41800000000E+01 0.  1.
        -11    1    1    2    0    0 -0.16067305905E+02 -0.15217001894E+02  0.81468688029E+02  0.84420747420E+02  0.00000000000E+00 0. -1.
         11    1    1    2    0    0  0.49113898501E+02  0.77832340165E+02  0.25476550232E+03  0.27087914163E+03  0.00000000000E+00 0.  1.
</event>
<event>
 7    1  0.2522928E-009  0.1824646E+03  0.7561462E-02  0.1165439E+00
          1   -1    0    0  501    0  0.00000000000E+00  0.00000000000E+00  0.14024627557E+04  0.14024627557E+04  0.00000000000E+00 0. -1.
         -1   -1    0    0    0  501 -0.00000000000E+00 -0.00000000000E+00 -0.30376228863E+02  0.30376228863E+02  0.00000000000E+00 0.  1.
         25    2    1    2    0    0  0.79848371570E+02  0.14426101988E+03  0.54533870215E+03  0.58329129477E+03  0.12508968858E+03 0.  0.
          5    1    3    3  502    0  0.66307951476E+02  0.70120382546E+02  0.45699249469E+03  0.46709016804E+03  0.41800000000E+01 0.  1.
         -5    1    3    3    0  502  0.13540420093E+02  0.74140637329E+02  0.88346207464E+02  0.11620112673E+03  0.41800000000E+01 0.  1.
        -11    1    1    2    0    0 -0.66649317021E+02 -0.22455715151E+02  0.23736323303E+03  0.24756351709E+03  0.00000000000E+00 0.  1.
         11    1    1    2    0    0 -0.13199054548E+02 -0.12180530472E+03  0.58938459168E+03  0.60198417272E+03  0.00000000000E+00 0. -1.
</event>
<event>
 7    1  0.2522928E-009  0.2021522E+03  0.7561462E-02  0.1147936E+00
          1   -1    0    0  501    0  0.00000000000E+00  0.00000000000E+00  0.14043483713E+04  0.14043483713E+04  0.00000000000E+00 0. -1.
         -1   -1    0    0    0  501 -0.00000000000E+00 -0.00000000000E+00 -0.38339575562E+02  0.38339575562E+02  0.00000000000E+00 0.  1.
         25    2    1    2    0    0 -0.42561856660E+02  0.19590881965E+03  0.57425267566E+03  0.62097255888E+03  0.12509598762E+03 0.  0.
          5    1    3    3  502    0 -0.39015729818E+01  0.39660592258E+02  0.21972400802E+02  0.45699492853E+02  0.41800000000E+01 0.  1.
         -5    1    3    3    0  502 -0.38660283678E+02  0.15624822739E+03  0.55228027486E+03  0.57527306602E+03  0.41800000000E+01 0.  1.
        -11    1    1    2    0    0  0.42708257038E+02 -0.12109582268E+03  0.63714171400E+03  0.64995211917E+03  0.00000000000E+00 0. -1.
         11    1    1    2    0    0 -0.14640037835E+00 -0.74812996972E+02  0.15461440610E+03  0.17176326884E+03  0.00000000000E+00 0.  1.
</event>
<event>
 7    1  0.2522928E-009  0.1379329E+03  0.7561462E-02  0.1216138E+00
         -3   -1    0    0    0  501 -0.00000000000E+00  0.00000000000E+00  0.33856688043E+02  0.33856688043E+02  0.00000000000E+00 0.  1.
          3   -1    0    0  501    0  0.00000000000E+00 -0.00000000000E+00 -0.65676463832E+03  0.65676463832E+03  0.00000000000E+00 0. -1.
         25    2    1    2    0    0  0.92036694029E+02 -0.32647212796E+02 -0.41143429844E+03  0.44097899489E+03  0.12509076083E+03 0.  0.
          5    1    3    3  502    0  0.11729270884E+03 -0.39831869431E+02 -0.27029030927E+03  0.29735245258E+03  0.41800000000E+01 0.  1.
         -5    1    3    3    0  502 -0.25256014815E+02  0.71846566353E+01 -0.14114398918E+03  0.14362654231E+03  0.41800000000E+01 0.  1.
        -11    1    1    2    0    0 -0.60396262196E+01 -0.22419177467E+02 -0.13433112830E+02  0.26824338267E+02  0.00000000000E+00 0.  1.
         11    1    1    2    0    0 -0.85997067810E+02  0.55066390262E+02 -0.19804053900E+03  0.22281799321E+03  0.00000000000E+00 0. -1.
</event>
<event>
 7    1  0.2522928E-009  0.1038049E+03  0.7561462E-02  0.1272492E+00
         -1   -1    0    0    0  501 -0.00000000000E+00  0.00000000000E+00  0.14982419637E+03  0.14982419637E+03  0.00000000000E+00 0.  1.
          1   -1    0    0  501    0  0.00000000000E+00 -0.00000000000E+00 -0.16310067863E+03  0.16310067863E+03  0.00000000000E+00 0. -1.
         25    2    1    2    0    0  0.82048130966E+02  0.36604129058E+02  0.61245064875E+02  0.16574197885E+03  0.12509071717E+03 0.  0.
          5    1    3    3  502    0  0.61652708586E+02  0.55062065261E+02  0.92348107328E+02  0.12401021262E+03  0.41800000000E+01 0.  1.
         -5    1    3    3    0  502  0.20395422380E+02 -0.18457936203E+02 -0.31103042452E+02  0.41731766231E+02  0.41800000000E+01 0.  1.
        -11    1    1    2    0    0 -0.67713553652E+02 -0.12327383960E+02 -0.91329580310E+02  0.11435987925E+03  0.00000000000E+00 0. -1.
         11    1    1    2    0    0 -0.14334577314E+02 -0.24276745098E+02  0.16808033177E+02  0.32823016903E+02  0.00000000000E+00 0.  1.
</event>
<event>
 7    1  0.2522928E-009  0.1382232E+03  0.7561462E-02  0.1215740E+00
         -2   -1    0    0    0  501 -0.00000000000E+00  0.00000000000E+00  0.49783190108E+02  0.49783190108E+02  0.00000000000E+00 0.  1.
          2   -1    0    0  501    0  0.00000000000E+00 -0.00000000000E+00 -0.57338829833E+03  0.57338829833E+03  0.00000000000E+00 0. -1.
         25    2    1    2    0    0  0.98731571046E+02  0.23948521085E+02 -0.41641721974E+03  0.44651153143E+03  0.12509113486E+03 0.  0.
          5    1    3    3  502    0  0.98015556048E+02  0.58732689499E+02 -0.37608652475E+03  0.39308411892E+03  0.41800000000E+01 0.  1.
         -5    1    3    3    0  502  0.71601499776E+00 -0.34784168415E+02 -0.40330694983E+02  0.53427412511E+02  0.41800000000E+01 0.  1.
        -11    1    1    2    0    0  0.10736428444E+02 -0.13278594333E+02 -0.49707597807E+02  0.52558893091E+02  0.00000000000E+00 0. -1.
         11    1    1    2    0    0 -0.10946799949E+03 -0.10669926751E+02 -0.57480290677E+02  0.12410106392E+03  0.00000000000E+00 0.  1.
</event>
<event>
 7    1  0.2522928E-009  0.1241394E+03  0.7561462E-02  0.1236420E+00
          2   -1    0    0  501    0  0.00000000000E+00  0.00000000000E+00  0.45057935204E+03  0.45057935204E+03  0.00000000000E+00 0. -1.
         -2   -1    0    0    0  501 -0.00000000000E+00 -0.00000000000E+00 -0.42771242019E+02  0.42771242019E+02  0.00000000000E+00 0.  1.
         25    2    1    2    0    0  0.78577027910E+02 -0.12015056452E+02  0.27656020995E+03  0.31376945126E+03  0.12508800070E+03 0.  0.
          5    1    3    3  502    0  0.73315614599E+02  0.32851128668E+02  0.24663062592E+03  0.25941957143E+03  0.41800000000E+01 0. -1.
         -5    1    3    3    0  502  0.52614133110E+01 -0.44866185120E+02  0.29929584024E+02  0.54349879826E+02  0.41800000000E+01 0. -1.
        -11    1    1    2    0    0 -0.66142233699E+02 -0.34301504536E+02  0.76190657588E+02  0.10656643278E+03  0.00000000000E+00 0. -1.
         11    1    1    2    0    0 -0.12434794211E+02  0.46316560989E+02  0.55057242485E+02  0.73014710018E+02  0.00000000000E+00 0.  1.
</event>
<event>
 7    1  0.2522928E-009  0.1015802E+03  0.7561462E-02  0.1277008E+00
          1   -1    0    0  501    0  0.00000000000E+00  0.00000000000E+00  0.28395996488E+03  0.28395996488E+03  0.00000000000E+00 0. -1.
         -1   -1    0    0    0  501 -0.00000000000E+00 -0.00000000000E+00 -0.45687874780E+02  0.45687874780E+02  0.00000000000E+00 0.  1.
         25    2    1    2    0    0  0.31174178872E+02  0.22120603816E+02  0.13522177569E+03  0.18813016133E+03  0.12508748314E+03 0.  0.
          5    1    3    3  502    0  0.44789333601E+02 -0.35266502611E+02  0.10976204818E+03  0.12375374835E+03  0.41800000000E+01 0. -1.
         -5    1    3    3    0  502 -0.13615154729E+02  0.57387106428E+02  0.25459727513E+02  0.64376412975E+02  0.41800000000E+01 0. -1.
        -11    1    1    2    0    0 -0.57490365951E+02 -0.12358598394E+02  0.36298541024E+02  0.69104711937E+02  0.00000000000E+00 0.  1.
         11    1    1    2    0    0  0.26316187079E+02 -0.97620054222E+01  0.66751773385E+02  0.72412966396E+02  0.00000000000E+00 0. -1.
</event>
<event>
 7    1  0.2522928E-009  0.1501920E+03  0.7561462E-02  0.1200237E+00
         -2   -1    0    0    0  501 -0.00000000000E+00  0.00000000000E+00  0.63730072361E+03  0.63730072361E+03  0.00000000000E+00 0.  1.
          2   -1    0    0  501    0  0.00000000000E+00 -0.00000000000E+00 -0.38601992101E+02  0.38601992101E+02  0.00000000000E+00 0. -1.
         25    2    1    2    0    0 -0.78585669870E+02 -0.79989380206E+02  0.35030949527E+03  0.38850757383E+03  0.12508950393E+03 0.  0.
          5    1    3    3  502    0  0.14442962701E+02  0.23940305881E+02  0.52603291509E+02  0.59718641100E+02  0.41800000000E+01 0.  1.
         -5    1    3    3    0  502 -0.93028632571E+02 -0.10392968609E+03  0.29770620376E+03  0.32878893273E+03  0.41800000000E+01 0.  1.
        -11    1    1    2    0    0  0.14593974938E+02 -0.13095701060E+02  0.68896057957E+01  0.20783362547E+02  0.00000000000E+00 0. -1.
         11    1    1    2    0    0  0.63991694933E+02  0.93085081266E+02  0.24149963044E+03  0.26661177933E+03  0.00000000000E+00 0.  1.
</event>
<event>
 7    1  0.2522928E-009  0.1470697E+03  0.7561462E-02  0.1204121E+00
          1   -1    0    0  501    0  0.00000000000E+00  0.00000000000E+00  0.70857996325E+02  0.70857996325E+02  0.00000000000E+00 0. -1.
         -1   -1    0    0    0  501 -0.00000000000E+00 -0.00000000000E+00 -0.35730567271E+03  0.35730567271E+03  0.00000000000E+00 0.  1.
         25    2    1    2    0    0  0.10053944800E+03  0.47016177485E+02 -0.20222600477E+03  0.26241461061E+03  0.12508944522E+03 0.  0.
          5    1    3    3  502    0 -0.23258271114E+02 -0.57062502555E+01 -0.68404135618E+02  0.72595500114E+02  0.41800000000E+01 0.  1.
         -5    1    3    3    0  502  0.12379771912E+03  0.52722427741E+02 -0.13382186915E+03  0.18981911050E+03  0.41800000000E+01 0.  1.
        -11    1    1    2    0    0 -0.23026015016E+02 -0.52674967270E+02 -0.62782924248E+02  0.85126641667E+02  0.00000000000E+00 0.  1.
         11    1    1    2    0    0 -0.77513432989E+02  0.56587897848E+01 -0.21438747368E+02  0.80622416760E+02  0.00000000000E+00 0. -1.
</event>
<event>
 7    1  0.2522928E-009  0.1420281E+03  0.7561462E-02  0.1210626E+00
          3   -1    0    0  501    0  0.00000000000E+00  0.00000000000E+00  0.17656282736E+02  0.17656282736E+02  0.00000000000E+00 0. -1.
         -3   -1    0    0    0  501 -0.00000000000E+00 -0.00000000000E+00 -0.12696199634E+04  0.12696199634E+04  0.00000000000E+00 0.  1.
         25    2    1    2    0    0  0.44147890544E+02  0.50875345336E+02 -0.49834739862E+03  0.51820378989E+03  0.12509077160E+03 0.  0.
          5    1    3    3  502    0  0.82297214793E+02  0.33369104151E+02 -0.23041747591E+03  0.24697371172E+03  0.41800000000E+01 0. -1.
         -5    1    3    3    0  502 -0.38149324249E+02  0.17506241185E+02 -0.26792992271E+03  0.27123007817E+03  0.41800000000E+01 0. -1.
        -11    1    1    2    0    0 -0.81278332256E+02  0.97682952467E+01 -0.43218100753E+03  0.43986590019E+03  0.00000000000E+00 0.  1.
         11    1    1    2    0    0  0.37130441712E+02 -0.60643640583E+02 -0.32143527452E+03  0.32920655606E+03  0.00000000000E+00 0. -1.
</event>
<event>
 7    1  0.2522928E-009  0.1388434E+03  0.7561462E-02  0.1214894E+00
         -1   -1    0    0    0  501 -0.00000000000E+00  0.00000000000E+00  0.25249003739E+03  0.25249003739E+03  0.00000000000E+00 0.  1.
          1   -1    0    0  501    0  0.00000000000E+00 -0.00000000000E+00 -0.13208673820E+03  0.13208673820E+03  0.00000000000E+00 0. -1.
         25    2    1    2    0    0  0.12159779890E+03  0.20850636114E+01  0.14903888484E+03  0.22945641534E+03  0.12508910887E+03 0.  0.
          5    1    3    3  502    0  0.71837678643E+02 -0.12971139016E+02  0.16021964888E+03  0.17611561773E+03  0.41800000000E+01 0. -1.
         -5    1    3    3    0  502  0.49760120257E+02  0.15056202628E+02 -0.11180764038E+02  0.53340797613E+02  0.41800000000E+01 0. -1.
        -11    1    1    2    0    0 -0.47279194571E+02 -0.46102581619E+02 -0.14219120799E+02  0.67549638545E+02  0.00000000000E+00 0. -1.
         11    1    1    2    0    0 -0.74318604329E+02  0.44017518008E+02 -0.14416464861E+02  0.87570721706E+02  0.00000000000E+00 0.  1.
</event>
<event>
 7    1  0.2522928E-009  0.1852926E+03  0.7561462E-02  0.1162777E+00
          2   -1    0    0  501    0  0.00000000000E+00  0.00000000000E+00  0.10790750649E+04  0.10790750649E+04  0.00000000000E+00 0.  1.
         -2   -1    0    0    0  501 -0.00000000000E+00 -0.00000000000E+00 -0.40387417588E+02  0.40387417588E+02  0.00000000000E+00 0. -1.
         25    2    1    2    0    0  0.16023472058E+03  0.76474589315E+02  0.58809302950E+03  0.62691665492E+03  0.12509017700E+03 0.  0.
          5    1    3    3  502    0  0.77765130524E+02  0.14155111246E+02  0.43502576902E+03  0.44216815219E+03  0.41800000000E+01 0.  1.
         -5    1    3    3    0  502  0.82469590059E+02  0.62319478069E+02  0.15306726049E+03  0.18474850274E+03  0.41800000000E+01 0.  1.
        -11    1    1    2    0    0 -0.13104265256E+03 -0.32189415853E+02  0.38633924766E+03  0.40922652598E+03  0.00000000000E+00 0.  1.
         11    1    1    2    0    0 -0.29192068025E+02 -0.44285173462E+02  0.64255370172E+02  0.83319301606E+02  0.00000000000E+00 0. -1.
</event>
<event>
 7    1  0.2522928E-009  0.1118443E+03  0.7561462E-02  0.1257192E+00
         -1   -1    0    0    0  501 -0.00000000000E+00  0.00000000000E+00  0.12691339755E+03  0.12691339755E+03  0.00000000000E+00 0.  1.
          1   -1    0    0  501    0  0.00000000000E+00 -0.00000000000E+00 -0.10462579842E+03  0.10462579842E+03  0.00000000000E+00 0. -1.
         25    2    1    2    0    0 -0.12888562153E+02  0.40253106608E+02  0.14626479851E+02  0.13284944431E+03  0.12509441760E+03 0.  0.
          5    1    3    3  502    0  0.51822789657E+02  0.11083943930E+01 -0.10486497278E+02  0.53049685118E+02  0.41800000000E+01 0.  1.
         -5    1    3    3    0  502 -0.64711351810E+02  0.39144712215E+02  0.25112977129E+02  0.79799759196E+02  0.41800000000E+01 0.  1.
        -11    1    1    2    0    0  0.20190505305E+02 -0.66082862140E+02  0.15320007962E+02  0.70776435465E+02  0.00000000000E+00 0.  1.
         11    1    1    2    0    0 -0.73019431521E+01  0.25829755533E+02 -0.76588886884E+01  0.27913316188E+02  0.00000000000E+00 0. -1.
</event>
<event>
 7    1  0.2522928E-009  0.1103102E+03  0.7561462E-02  0.1259996E+00
          2   -1    0    0  501    0  0.00000000000E+00  0.00000000000E+00  0.16351546571E+02  0.16351546571E+02  0.00000000000E+00 0. -1.
         -2   -1    0    0    0  501 -0.00000000000E+00 -0.00000000000E+00 -0.80582842744E+03  0.80582842744E+03  0.00000000000E+00 0.  1.
         25    2    1    2    0    0  0.29626455847E+02 -0.26613040583E+02 -0.46580405123E+03  0.48395051020E+03  0.12509476957E+03 0.  0.
          5    1    3    3  502    0  0.33042542771E+02 -0.75136849176E+02 -0.27696980702E+03  0.28890673606E+03  0.41800000000E+01 0. -1.
         -5    1    3    3    0  502 -0.34160869235E+01  0.48523808593E+02 -0.18883424420E+03  0.19504377415E+03  0.41800000000E+01 0. -1.
        -11    1    1    2    0    0 -0.53861976966E+02  0.33656869016E+00 -0.12126316094E+03  0.13268752783E+03  0.00000000000E+00 0. -1.
         11    1    1    2    0    0  0.24235521119E+02  0.26276471893E+02 -0.20240966870E+03  0.20554193597E+03  0.00000000000E+00 0.  1.
</event>
<event>
 7    1  0.2522928E-009  0.1027948E+03  0.7561462E-02  0.1274526E+00
          1   -1    0    0  501    0  0.00000000000E+00  0.00000000000E+00  0.39590668874E+02  0.39590668874E+02  0.00000000000E+00 0. -1.
         -1   -1    0    0    0  501 -0.00000000000E+00 -0.00000000000E+00 -0.35317951978E+03  0.35317951978E+03  0.00000000000E+00 0.  1.
         25    2    1    2    0    0 -0.30747249903E+02 -0.73009575547E+01 -0.10853727982E+03  0.16860097687E+03  0.12508897206E+03 0.  0.
          5    1    3    3  502    0  0.33624039217E+02 -0.34048400155E+02 -0.12100660345E+02  0.49535522074E+02  0.41800000000E+01 0.  1.
         -5    1    3    3    0  502 -0.64371289121E+02  0.26747442600E+02 -0.96436619479E+02  0.11906545479E+03  0.41800000000E+01 0.  1.
        -11    1    1    2    0    0 -0.13458669952E+02  0.33662330876E+02 -0.11340694854E+03  0.11906059085E+03  0.00000000000E+00 0.  1.
         11    1    1    2    0    0  0.44205919856E+02 -0.26361373321E+02 -0.91644622542E+02  0.10510862093E+03  0.00000000000E+00 0. -1.
</event>
<event>
 7    1  0.2522928E-009  0.8982866E+02  0.7561462E-02  0.1303267E+00
         -3   -1    0    0    0  501 -0.00000000000E+00  0.00000000000E+00  0.54131226624E+03  0.54131226624E+03  0.00000000000E+00 0.  1.
          3   -1    0    0  501    0  0.00000000000E+00 -0.00000000000E+00 -0.27213099504E+02  0.27213099504E+02  0.00000000000E+00 0. -1.
         25    2    1    2    0    0  0.10129259726E+00  0.46210071534E+02  0.35643991169E+03  0.38056911581E+03  0.12509220716E+03 0.  0.
          5    1    3    3  502    0  0.47966835144E+01  0.80401148272E+02  0.32079582162E+03  0.33077905675E+03  0.41800000000E+01 0.  1.
         -5    1    3    3    0  502 -0.46953909172E+01 -0.34191076739E+02  0.35644090075E+02  0.49790059065E+02  0.41800000000E+01 0.  1.
        -11    1    1    2    0    0  0.20674005841E+02 -0.34958432196E+02  0.15918122306E+03  0.16428076051E+03  0.00000000000E+00 0.  1.
         11    1    1    2    0    0 -0.20775298438E+02 -0.11251639337E+02 -0.15219680085E+01  0.23675489427E+02  0.00000000000E+00 0. -1.
</event>
<event>
 7    1  0.2522928E-009  0.1363946E+03  0.7561462E-02  0.1218264E+00
          2   -1    0    0  501    0  0.00000000000E+00  0.00000000000E+00  0.48474151538E+03  0.48474151538E+03  0.00000000000E+00 0.  1.
         -2   -1    0    0    0  501 -0.00000000000E+00 -0.00000000000E+00 -0.58222703339E+02  0.58222703339E+02  0.00000000000E+00 0. -1.
         25    2    1    2    0    0 -0.38547985940E+02 -0.85386928083E+02  0.86244182192E+02  0.17852792220E+03  0.12512907470E+03 0.  0.
          5    1    3    3  502    0  0.45651732095E+02 -0.35243834728E+02  0.38217313524E+02  0.69312653842E+02  0.41800000000E+01 0. -1.
         -5    1    3    3    0  502 -0.84199718035E+02 -0.50143093355E+02  0.48026868668E+02  0.10921526836E+03  0.41800000000E+01 0. -1.
        -11    1    1    2    0    0  0.40120167229E+01 -0.12472098047E+02  0.59742487903E+01  0.14399345697E+02  0.00000000000E+00 0. -1.
         11    1    1    2    0    0  0.34535969217E+02  0.97859026130E+02  0.33430038106E+03  0.35003695082E+03  0.00000000000E+00 0.  1.
</event>
<event>
 7    1  0.2522928E-009  0.6814737E+03  0.7561462E-02  0.9749450E-01
         -2   -1    0    0    0  501 -0.00000000000E+00  0.00000000000E+00  0.28525721148E+03  0.28525721148E+03  0.00000000000E+00 0.  1.
          2   -1    0    0  501    0  0.00000000000E+00 -0.00000000000E+00 -0.17240358530E+04  0.17240358530E+04  0.00000000000E+00 0. -1.
         25    2    1    2    0    0 -0.67444073406E+03  0.41809214697E+02 -0.50331125413E+03  0.85181146294E+03  0.12506892363E+03 0.  0.
          5    1    3    3  502    0 -0.65994351402E+03  0.23066108920E+02 -0.49820552559E+03  0.82721442516E+03  0.41800000000E+01 0. -1.
         -5    1    3    3    0  502 -0.14497220043E+02  0.18743105777E+02 -0.51057285460E+01  0.24597037771E+02  0.41800000000E+01 0. -1.
        -11    1    1    2    0    0  0.35710028316E+02 -0.16385831374E+02 -0.31638130076E+02  0.50444750637E+02  0.00000000000E+00 0.  1.
         11    1    1    2    0    0  0.63873070575E+03 -0.25423383323E+02 -0.90382925731E+03  0.11070368509E+04  0.00000000000E+00 0. -1.
</event>
<event>
 7    1  0.2522928E-009  0.8849644E+02  0.7561462E-02  0.1306534E+00
          2   -1    0    0  501    0  0.00000000000E+00  0.00000000000E+00  0.50376915314E+02  0.50376915314E+02  0.00000000000E+00 0.  1.
         -2   -1    0    0    0  501 -0.00000000000E+00 -0.00000000000E+00 -0.26098703128E+03  0.26098703128E+03  0.00000000000E+00 0. -1.
         25    2    1    2    0    0 -0.85264369842E+01 -0.31866995451E+02 -0.11253381291E+03  0.17146223015E+03  0.12508889557E+03 0.  0.
          5    1    3    3  502    0 -0.31019939924E+01 -0.54714774286E+02  0.14784513451E+01  0.54981697957E+02  0.41800000000E+01 0.  1.
         -5    1    3    3    0  502 -0.54244429918E+01  0.22847778835E+02 -0.11401226426E+03  0.11648053220E+03  0.41800000000E+01 0.  1.
        -11    1    1    2    0    0  0.47071928322E+02 -0.16477378753E+01 -0.34691918693E+02  0.58497954654E+02  0.00000000000E+00 0. -1.
         11    1    1    2    0    0 -0.38545491338E+02  0.33514733326E+02 -0.63384384357E+02  0.81403761785E+02  0.00000000000E+00 0.  1.
</event>
<event>
 7    1  0.3649382E-009  0.9818339E+02  0.7561462E-02  0.1284163E+00
         -2   -1    0    0    0  501 -0.00000000000E+00  0.00000000000E+00  0.25775785232E+03  0.25775785232E+03  0.00000000000E+00 0.  1.
          2   -1    0    0  501    0  0.00000000000E+00 -0.00000000000E+00 -0.91831568515E+02  0.91831568515E+02  0.00000000000E+00 0. -1.
         25    2    1    2    0    0 -0.83527957382E+02  0.18974606649E+01  0.16782419991E+03  0.22537459314E+03  0.12509286604E+03 0.  0.
          5    1    3    3  502    0 -0.97695256156E+02  0.30914810839E+01  0.56312771777E+02  0.11288277546E+03  0.41800000000E+01 0.  1.
         -5    1    3    3    0  502  0.14167298774E+02 -0.11940204190E+01  0.11151142814E+03  0.11249181768E+03  0.41800000000E+01 0.  1.
        -11    1    1    2    0    0  0.55165325492E+02 -0.37373409417E+01  0.43705475864E+02  0.70479425894E+02  0.00000000000E+00 0.  1.
         11    1    1    2    0    0  0.28362631891E+02  0.18398802768E+01 -0.45603391974E+02  0.53735401801E+02  0.00000000000E+00 0. -1.
</event>
<event>
 7    1  0.2522928E-009  0.1208553E+03  0.7561462E-02  0.1241693E+00
          1   -1    0    0  501    0  0.00000000000E+00  0.00000000000E+00  0.11245537739E+03  0.11245537739E+03  0.00000000000E+00 0. -1.
         -1   -1    0    0    0  501 -0.00000000000E+00 -0.00000000000E+00 -0.28996914677E+03  0.28996914677E+03  0.00000000000E+00 0.  1.
         25    2    1    2    0    0  0.48510123440E+02  0.69477233432E+02  0.35609413691E+02  0.15522870808E+03  0.12509038103E+03 0.  0.
          5    1    3    3  502    0 -0.27218820793E+02  0.52563181640E+02 -0.16591610517E+02  0.61615795127E+02  0.41800000000E+01 0.  1.
         -5    1    3    3    0  502  0.75728944234E+02  0.16914051792E+02  0.52201024208E+02  0.93612912951E+02  0.41800000000E+01 0.  1.
        -11    1    1    2    0    0 -0.21035177074E+02  0.79643181248E+01 -0.44520895192E+01  0.22928805875E+02  0.00000000000E+00 0. -1.
         11    1    1    2    0    0 -0.27474946366E+02 -0.77441551557E+02 -0.20867109354E+03  0.22426701021E+03  0.00000000000E+00 0.  1.
</event>
<event>
 7    1  0.2522928E-009  0.1086724E+03  0.7561462E-02  0.1263048E+00
          1   -1    0    0  501    0  0.00000000000E+00  0.00000000000E+00  0.39908166565E+03  0.39908166565E+03  0.00000000000E+00 0. -1.
         -1   -1    0    0    0  501 -0.00000000000E+00 -0.00000000000E+00 -0.65090100200E+02  0.65090100200E+02  0.00000000000E+00 0.  1.
         25    2    1    2    0    0  0.49493779017E+02  0.23824920044E+02  0.27625461194E+02  0.13938444466E+03  0.12509035267E+03 0.  0.
          5    1    3    3  502    0 -0.16718773867E+02  0.50449523754E+02 -0.15970397228E+02  0.55652473748E+02  0.41800000000E+01 0.  1.
         -5    1    3    3    0  502  0.66212552884E+02 -0.26624603710E+02  0.43595858422E+02  0.83731970917E+02  0.41800000000E+01 0.  1.
        -11    1    1    2    0    0 -0.56397377474E+02  0.10643356389E+02  0.98755477660E+02  0.11422166865E+03  0.00000000000E+00 0.  1.
         11    1    1    2    0    0  0.69035984576E+01 -0.34468276433E+02  0.20761062660E+03  0.21056565254E+03  0.00000000000E+00 0. -1.
</event>
<event>
 7    1  0.2522928E-009  0.1943001E+03  0.7561462E-02  0.1154639E+00
          1   -1    0    0  501    0  0.00000000000E+00  0.00000000000E+00  0.49507997872E+03  0.49507997872E+03  0.00000000000E+00 0. -1.
         -1   -1    0    0    0  501 -0.00000000000E+00 -0.00000000000E+00 -0.15028274750E+03  0.15028274750E+03  0.00000000000E+00 0.  1.
         25    2    1    2    0    0  0.11254941212E+03  0.13205060997E+03 -0.37467664586E+02  0.21715596810E+03  0.12509258503E+03 0.  0.
          5    1    3    3  502    0  0.70757871007E+02 -0.22556436334E+01  0.22014432205E+01  0.70951271940E+02  0.41800000000E+01 0.  1.
         -5    1    3    3    0  502  0.41791541116E+02  0.13430625360E+03 -0.39669107807E+02  0.14620469616E+03  0.41800000000E+01 0.  1.
        -11    1    1    2    0    0 -0.19192079324E+02 -0.46622631424E+02  0.20041864863E+03  0.20666310844E+03  0.00000000000E+00 0. -1.
         11    1    1    2    0    0 -0.93357332799E+02 -0.85427978545E+02  0.18184624717E+03  0.22154364968E+03  0.00000000000E+00 0.  1.
</event>
<event>
 7    1  0.2522928E-009  0.2126864E+03  0.7561462E-02  0.1139456E+00
          2   -1    0    0  501    0  0.00000000000E+00  0.00000000000E+00  0.11040133069E+03  0.11040133069E+03  0.00000000000E+00 0. -1.
         -2   -1    0    0    0  501 -0.00000000000E+00 -0.00000000000E+00 -0.63686682608E+03  0.63686682608E+03  0.00000000000E+00 0.  1.
         25    2    1    2    0    0 -0.14046852727E+03  0.13152334761E+03 -0.58360938420E+02  0.23681905107E+03  0.12508983050E+03 0.  0.
          5    1    3    3  502    0 -0.25300286718E+02 -0.22308142776E+02  0.51711444715E+01  0.34379803334E+02  0.41800000000E+01 0. -1.
         -5    1    3    3    0  502 -0.11516824055E+03  0.15383149039E+03 -0.63532082892E+02  0.20243924773E+03  0.41800000000E+01 0. -1.
        -11    1    1    2    0    0  0.68939331367E+02 -0.30487953954E+02 -0.23077591591E+03  0.24277493716E+03  0.00000000000E+00 0. -1.
         11    1    1    2    0    0  0.71529195902E+02 -0.10103539366E+03 -0.23732864105E+03  0.26767416854E+03  0.00000000000E+00 0.  1.
</event>
<event>
 7    1  0.2522928E-009  0.3047761E+03  0.7561462E-02  0.1082877E+00
          2   -1    0    0  501    0  0.00000000000E+00  0.00000000000E+00  0.71720240703E+03  0.71720240703E+03  0.00000000000E+00 0. -1.
         -2   -1    0    0    0  501 -0.00000000000E+00 -0.00000000000E+00 -0.14193171979E+03  0.14193171979E+03  0.00000000000E+00 0.  1.
         25    2    1    2    0    0  0.17691393227E+03 -0.24198588198E+03  0.28610138727E+03  0.43284894793E+03  0.12509397032E+03 0.  0.
          5    1    3    3  502    0  0.25632412628E+02 -0.81727541538E+02  0.15289620833E+03  0.17530297928E+03  0.41800000000E+01 0.  1.
         -5    1    3    3    0  502  0.15128151964E+03 -0.16025834044E+03  0.13320517894E+03  0.25754596864E+03  0.41800000000E+01 0.  1.
        -11    1    1    2    0    0 -0.40638658302E+02  0.92847445555E+02  0.14975291200E+03  0.18082611357E+03  0.00000000000E+00 0. -1.
         11    1    1    2    0    0 -0.13627527397E+03  0.14913843643E+03  0.13941638797E+03  0.24545906532E+03  0.00000000000E+00 0.  1.
</event>
<event>
 7    1  0.2522928E-009  0.2331894E+03  0.7561462E-02  0.1124415E+00
          1   -1    0    0  501    0  0.00000000000E+00  0.00000000000E+00  0.14287776767E+04  0.14287776767E+04  0.00000000000E+00 0. -1.
         -1   -1    0    0    0  501 -0.00000000000E+00 -0.00000000000E+00 -0.41543359096E+02  0.41543359096E+02  0.00000000000E+00 0.  1.
         25    2    1    2    0    0 -0.18648812600E+03  0.10175910259E+03  0.54151317939E+03  0.59499289694E+03  0.12508911964E+03 0.  0.
          5    1    3    3  502    0 -0.10615792256E+03  0.11920339465E+03  0.30013029307E+03  0.33996267301E+03  0.41800000000E+01 0.  1.
         -5    1    3    3    0  502 -0.80330203437E+02 -0.17444292059E+02  0.24138288632E+03  0.25503022393E+03  0.41800000000E+01 0.  1.
        -11    1    1    2    0    0  0.10983012479E+03 -0.18778320942E+02  0.37239445551E+03  0.38870671739E+03  0.00000000000E+00 0.  1.
         11    1    1    2    0    0  0.76658001206E+02 -0.82980781652E+02  0.47332668274E+03  0.48662142150E+03  0.00000000000E+00 0. -1.
</event>
<event>
 7    1  0.2522928E-009  0.1311219E+03  0.7561462E-02  0.1225801E+00
          2   -1    0    0  501    0  0.00000000000E+00  0.00000000000E+00  0.11203462160E+03  0.11203462160E+03  0.00000000000E+00 0. -1.
         -2   -1    0    0    0  501 -0.00000000000E+00 -0.00000000000E+00 -0.23022901866E+03  0.23022901866E+03  0.00000000000E+00 0.  1.
         25    2    1    2    0    0 -0.10883269457E+03  0.45095797830E+02 -0.63582916660E+02  0.18322206489E+03  0.12509736760E+03 0.  0.
          5    1    3    3  502    0 -0.89643379668E+01 -0.16499153796E+02 -0.62936035275E+02  0.65810321130E+02  0.41800000000E+01 0.  1.
         -5    1    3    3    0  502 -0.99868356605E+02  0.61594951625E+02 -0.64688138526E+00  0.11741174376E+03  0.41800000000E+01 0.  1.
        -11    1    1    2    0    0  0.51428499859E+02  0.18185171038E+01 -0.66365113777E+02  0.83979318459E+02  0.00000000000E+00 0.  1.
         11    1    1    2    0    0  0.57404194713E+02 -0.46914314934E+02  0.11753633375E+02  0.75062256919E+02  0.00000000000E+00 0. -1.
</event>
<event>
 7    1  0.2522928E-009  0.1151202E+03  0.7561462E-02  0.1251371E+00
         -2   -1    0    0    0  501 -0.00000000000E+00  0.00000000000E+00  0.15832687703E+03  0.15832687703E+03  0.00000000000E+00 0.  1.
          2   -1    0    0  501    0  0.00000000000E+00 -0.00000000000E+00 -0.11878559533E+03  0.11878559533E+03  0.00000000000E+00 0. -1.
         25    2    1    2    0    0 -0.52333054045E+02 -0.39472038201E+02 -0.30323683421E+02  0.14443122301E+03  0.12507622499E+03 0.  0.
          5    1    3    3  502    0  0.34786569501E+02  0.14870362864E+02 -0.12979273679E+02  0.40214015648E+02  0.41800000000E+01 0.  1.
         -5    1    3    3    0  502 -0.87119623545E+02 -0.54342401065E+02 -0.17344409742E+02  0.10421720736E+03  0.41800000000E+01 0.  1.
        -11    1    1    2    0    0  0.19676786334E+02  0.51094116868E+02  0.79659426432E+02  0.96661310349E+02  0.00000000000E+00 0.  1.
         11    1    1    2    0    0  0.32656267711E+02 -0.11622078667E+02 -0.97944613086E+01  0.36019939002E+02  0.00000000000E+00 0. -1.
</event>
<event>
 7    1  0.2522928E-009  0.9708380E+02  0.7561462E-02  0.1286551E+00
          2   -1    0    0  501    0  0.00000000000E+00  0.00000000000E+00  0.10461082743E+03  0.10461082743E+03  0.00000000000E+00 0.  1.
         -2   -1    0    0    0  501 -0.00000000000E+00 -0.00000000000E+00 -0.11353584380E+03  0.11353584380E+03  0.00000000000E+00 0. -1.
         25    2    1    2    0    0 -0.43161484331E+00  0.88837539323E+01 -0.13558975876E+02  0.12613846305E+03  0.12509180092E+03 0.  0.
          5    1    3    3  502    0 -0.15176477040E+00 -0.48128538117E+02 -0.40407933355E+02  0.62981367815E+02  0.41800000000E+01 0. -1.
         -5    1    3    3    0  502 -0.27985007291E+00  0.57012292049E+02  0.26848957479E+02  0.63157095235E+02  0.41800000000E+01 0. -1.
        -11    1    1    2    0    0 -0.14069263537E+02  0.37522017232E+02  0.14091182987E+02  0.42478316723E+02  0.00000000000E+00 0.  1.
         11    1    1    2    0    0  0.14500878380E+02 -0.46405771165E+02 -0.94572234807E+01  0.49529891451E+02  0.00000000000E+00 0. -1.
</event>
<event>
 7    1  0.2522928E-009  0.1744335E+03  0.7561462E-02  0.1173302E+00
         -1   -1    0    0    0  501 -0.00000000000E+00  0.00000000000E+00  0.54640539050E+02  0.54640539050E+02  0.00000000000E+00 0.  1.
          1   -1    0    0  501    0  0.00000000000E+00 -0.00000000000E+00 -0.86277166065E+03  0.86277166065E+03  0.00000000000E+00 0. -1.
         25    2    1    2    0    0 -0.11515470739E+03 -0.11275992507E+03 -0.62032797933E+03  0.65301584237E+03  0.12508989211E+03 0.  0.
          5    1    3    3  502    0 -0.39043841946E+02 -0.18551041134E+02 -0.39310878732E+03  0.39550038406E+03  0.41800000000E+01 0.  1.
         -5    1    3    3    0  502 -0.76110865444E+02 -0.94208883934E+02 -0.22721919201E+03  0.25751545831E+03  0.41800000000E+01 0.  1.
        -11    1    1    2    0    0  0.69074719448E+02  0.76621700132E+01 -0.53250008913E+02  0.87553350394E+02  0.00000000000E+00 0.  1.
         11    1    1    2    0    0  0.46079987942E+02  0.10509775505E+03 -0.13455313335E+03  0.17684300693E+03  0.00000000000E+00 0. -1.
</event>
<event>
 7    1  0.2522928E-009  0.1129921E+03  0.7561462E-02  0.1255127E+00
         -1   -1    0    0    0  501 -0.00000000000E+00  0.00000000000E+00  0.40537517273E+02  0.40537517273E+02  0.00000000000E+00 0.  1.
          1   -1    0    0  501    0  0.00000000000E+00 -0.00000000000E+00 -0.43344736708E+03  0.43344736708E+03  0.00000000000E+00 0. -1.
         25    2    1    2    0    0 -0.30982618767E+02  0.15723534903E+02 -0.33709298618E+03  0.36122759205E+03  0.12508612916E+03 0.  0.
          5    1    3    3  502    0  0.42883170441E+02 -0.19759702298E+02 -0.11059817013E+03  0.12032805067E+03  0.41800000000E+01 0. -1.
         -5    1    3    3    0  502 -0.73865789207E+02  0.35483237201E+02 -0.22649481605E+03  0.24089954137E+03  0.41800000000E+01 0. -1.
        -11    1    1    2    0    0  0.31802073050E+02 -0.51616810212E+02 -0.25519251444E+02  0.65779169507E+02  0.00000000000E+00 0.  1.
         11    1    1    2    0    0 -0.81945428306E+00  0.35893275310E+02 -0.30297612181E+02  0.46978122798E+02  0.00000000000E+00 0. -1.
</event>
<event>
 7    1  0.2522928E-009  0.1214109E+03  0.7561462E-02  0.1240787E+00
         -1   -1    0    0    0  501 -0.00000000000E+00  0.00000000000E+00  0.76866757437E+02  0.76866757437E+02  0.00000000000E+00 0.  1.
          1   -1    0    0  501    0  0.00000000000E+00 -0.00000000000E+00 -0.29334773891E+03  0.29334773891E+03  0.00000000000E+00 0. -1.
         25    2    1    2    0    0  0.53269924117E+02 -0.85238332549E+02 -0.89433556518E+02  0.18370801387E+03  0.12508802972E+03 0.  0.
          5    1    3    3  502    0 -0.26427835453E+02 -0.31500617208E+02 -0.76068141465E+02  0.86571091694E+02  0.41800000000E+01 0. -1.
         -5    1    3    3    0  502  0.79697759570E+02 -0.53737715341E+02 -0.13365415053E+02  0.97136922178E+02  0.41800000000E+01 0. -1.
        -11    1    1    2    0    0 -0.43144887864E+02  0.39708726299E+02 -0.12697968208E+03  0.13986459150E+03  0.00000000000E+00 0. -1.
         11    1    1    2    0    0 -0.10125036253E+02  0.45529606250E+02 -0.67742868270E-01  0.46641890972E+02  0.00000000000E+00 0.  1.
</event>
<event>
 7    1  0.2522928E-009  0.7372529E+02  0.7561462E-02  0.1347864E+00
         -1   -1    0    0    0  501 -0.00000000000E+00  0.00000000000E+00  0.16931495054E+02  0.16931495054E+02  0.00000000000E+00 0.  1.
          1   -1    0    0  501    0  0.00000000000E+00 -0.00000000000E+00 -0.75951403037E+03  0.75951403037E+03  0.00000000000E+00 0. -1.
         25    2    1    2    0    0  0.89961996431E+01 -0.29086544593E+02 -0.50088618424E+03  0.51716047456E+03  0.12506409636E+03 0.  0.
          5    1    3    3  502    0 -0.37802420996E+01 -0.54093779700E+02 -0.89034834469E+02  0.10433168925E+03  0.41800000000E+01 0. -1.
         -5    1    3    3    0  502  0.12776441743E+02  0.25007235108E+02 -0.41185134977E+03  0.41282878531E+03  0.41800000000E+01 0. -1.
        -11    1    1    2    0    0 -0.62645368482E+01  0.46563719618E+02 -0.23610317977E+03  0.24073249865E+03  0.00000000000E+00 0. -1.
         11    1    1    2    0    0 -0.27316627949E+01 -0.17477175026E+02 -0.55931713006E+01  0.18552552215E+02  0.00000000000E+00 0.  1.
</event>
<event>
 6    1  0.2522928E-009  0.1092474E+03  0.7561462E-02  0.1261970E+00
          1   -1    0    0  501    0  0.00000000000E+00  0.00000000000E+00  0.12138005782E+04  0.12138005782E+04  0.00000000000E+00 0. -1.
         -1   -1    0    0    0  501 -0.00000000000E+00 -0.00000000000E+00 -0.18169141677E+02  0.18169141677E+02  0.00000000000E+00 0.  1.
          5    1    1    2  502    0 -0.73666949134E+01 -0.10123663635E+00  0.38706238298E+03  0.38715505829E+03  0.41800000000E+01 0. -1.
         -5    1    1    2    0  502  0.93300984758E+02  0.52243908852E+02  0.30442207363E+03  0.32268370129E+03  0.41800000000E+01 0. -1.
        -11    1    1    2    0    0 -0.73608353374E+02 -0.34011499326E+02  0.48852930648E+03  0.49521293911E+03  0.00000000000E+00 0. -1.
         11    1    1    2    0    0 -0.12325936470E+02 -0.18131172890E+02  0.15617673413E+02  0.26918021158E+02  0.00000000000E+00 0.  1.
</event>
<event>
 7    1  0.2522928E-009  0.1204390E+03  0.7561462E-02  0.1242375E+00
          1   -1    0    0  501    0  0.00000000000E+00  0.00000000000E+00  0.35612756272E+02  0.35612756272E+02  0.00000000000E+00 0. -1.
         -1   -1    0    0    0  501 -0.00000000000E+00 -0.00000000000E+00 -0.75808106279E+03  0.75808106279E+03  0.00000000000E+00 0.  1.
         25    2    1    2    0    0  0.26324070669E+02  0.85714685075E+02 -0.65262698860E+03  0.67052907614E+03  0.12508913532E+03 0.  0.
          5    1    3    3  502    0 -0.40585072409E+02  0.46346687409E+02 -0.15466891381E+03  0.16653861064E+03  0.41800000000E+01 0.  1.
         -5    1    3    3    0  502  0.66909143078E+02  0.39367997666E+02 -0.49795807479E+03  0.50399046550E+03  0.41800000000E+01 0.  1.
        -11    1    1    2    0    0 -0.28571741349E+02 -0.18288385732E+02 -0.25395856828E+02  0.42376396737E+02  0.00000000000E+00 0.  1.
         11    1    1    2    0    0  0.22476706801E+01 -0.67426299343E+02 -0.44445461087E+02  0.80788346176E+02  0.00000000000E+00 0. -1.
</event>
<event>
 7    1  0.2522928E-009  0.2459617E+03  0.7561462E-02  0.1115884E+00
          2   -1    0    0  501    0  0.00000000000E+00  0.00000000000E+00  0.10938167187E+04  0.10938167187E+04  0.00000000000E+00 0. -1.
         -2   -1    0    0    0  501 -0.00000000000E+00 -0.00000000000E+00 -0.60016651675E+02  0.60016651675E+02  0.00000000000E+00 0.  1.
         25    2    1    2    0    0  0.16217925362E+03  0.16012079712E+03  0.62531218344E+03  0.67720227566E+03  0.12508723126E+03 0.  0.
          5    1    3    3  502    0  0.17266907460E+03  0.17131857361E+03  0.59812554006E+03  0.64570604540E+03  0.41800000000E+01 0. -1.
         -5    1    3    3    0  502 -0.10489820982E+02 -0.11197776490E+02  0.27186643373E+02  0.31496230258E+02  0.41800000000E+01 0. -1.
        -11    1    1    2    0    0 -0.21952327010E+02 -0.49467020302E+02  0.40551908439E+02  0.67626533526E+02  0.00000000000E+00 0.  1.
         11    1    1    2    0    0 -0.14022692661E+03 -0.11065377682E+03  0.36793597518E+03  0.40900456122E+03  0.00000000000E+00 0. -1.
</event>
<event>
 6    1  0.2522928E-009  0.9602757E+02  0.7561462E-02  0.1288878E+00
          1   -1    0    0  501    0  0.00000000000E+00  0.00000000000E+00  0.26239529793E+03  0.26239529793E+03  0.00000000000E+00 0. -1.
         -1   -1    0    0    0  501 -0.00000000000E+00 -0.00000000000E+00 -0.54784060281E+02  0.54784060281E+02  0.00000000000E+00 0.  1.
          5    1    1    2  502    0 -0.40391885130E+02  0.11631243988E+02 -0.51341461790E+01  0.42551405124E+02  0.41800000000E+01 0.  1.
         -5    1    1    2    0  502  0.74125063313E+02  0.38562511322E+01  0.73687497412E+02  0.10467432999E+03  0.41800000000E+01 0.  1.
        -11    1    1    2    0    0 -0.10598689590E+02  0.25940353245E+02  0.11174408675E+03  0.11520405840E+03  0.00000000000E+00 0. -1.
         11    1    1    2    0    0 -0.23134488593E+02 -0.41427848365E+02  0.27313799666E+02  0.54749564700E+02  0.00000000000E+00 0.  1.
</event>
<event>
 7    1  0.2522928E-009  0.1104775E+03  0.7561462E-02  0.1259688E+00
          1   -1    0    0  501    0  0.00000000000E+00  0.00000000000E+00  0.59044418837E+02  0.59044418837E+02  0.00000000000E+00 0. -1.
         -1   -1    0    0    0  501 -0.00000000000E+00 -0.00000000000E+00 -0.27996043321E+03  0.27996043321E+03  0.00000000000E+00 0.  1.
         25    2    1    2    0    0 -0.50078012310E+02 -0.13458702795E+02 -0.62726511424E+02  0.14923445635E+03  0.12508942292E+03 0.  0.
          5    1    3    3  502    0  0.44973193681E+01  0.41406587159E+02 -0.58084624537E+02  0.71596280275E+02  0.41800000000E+01 0.  1.
         -5    1    3    3    0  502 -0.54575331678E+02 -0.54865289954E+02 -0.46418868867E+01  0.77638176070E+02  0.41800000000E+01 0.  1.
        -11    1    1    2    0    0  0.39221627996E+02 -0.34615157971E+02 -0.10467649837E+03  0.11702014602E+03  0.00000000000E+00 0.  1.
         11    1    1    2    0    0  0.10856384314E+02  0.48073860767E+02 -0.53513004579E+02  0.72750249679E+02  0.00000000000E+00 0. -1.
</event>
<event>
 7    1  0.2522928E-009  0.7392321E+02  0.7561462E-02  0.1347238E+00
         -1   -1    0    0    0  501 -0.00000000000E+00  0.00000000000E+00  0.69476545510E+02  0.69476545510E+02  0.00000000000E+00 0.  1.
          1   -1    0    0  501    0  0.00000000000E+00 -0.00000000000E+00 -0.21812585627E+03  0.21812585627E+03  0.00000000000E+00 0. -1.
         25    2    1    2    0    0  0.29893767049E+02  0.40658400844E+02 -0.49460214469E+02  0.14366933867E+03  0.12509125946E+03 0.  0.
          5    1    3    3  502    0 -0.22227720161E+02  0.11448524501E+02 -0.74542565140E+02  0.78735040957E+02  0.41800000000E+01 0.  1.
         -5    1    3    3    0  502  0.52121487210E+02  0.29209876343E+02  0.25082350670E+02  0.64934297718E+02  0.41800000000E+01 0.  1.
        -11    1    1    2    0    0 -0.11462865026E+02 -0.42557037249E+02 -0.10772032398E+01  0.44086948872E+02  0.00000000000E+00 0.  1.
         11    1    1    2    0    0 -0.18430902023E+02  0.18986364049E+01 -0.98111893051E+02  0.99846114234E+02  0.00000000000E+00 0. -1.
</event>
<event>
 7    1  0.2522928E-009  0.1091207E+03  0.7561462E-02  0.1262207E+00
          2   -1    0    0  501    0  0.00000000000E+00  0.00000000000E+00  0.12380480106E+03  0.12380480106E+03  0.00000000000E+00 0. -1.
         -2   -1    0    0    0  501 -0.00000000000E+00 -0.00000000000E+00 -0.13940716111E+03  0.13940716111E+03  0.00000000000E+00 0.  1.
         25    2    1    2    0    0 -0.69362418662E+02 -0.26057626464E+02  0.14502264933E+02  0.14610719169E+03  0.12508737249E+03 0.  0.
          5    1    3    3  502    0 -0.88250547330E+02 -0.56411690298E+02  0.26579563685E+02  0.10814057292E+03  0.41800000000E+01 0. -1.
         -5    1    3    3    0  502  0.18888128667E+02  0.30354063834E+02 -0.12077298752E+02  0.37966618771E+02  0.41800000000E+01 0. -1.
        -11    1    1    2    0    0  0.41978888991E+02  0.27192655263E+02 -0.58953852531E+02  0.77312510950E+02  0.00000000000E+00 0.  1.
         11    1    1    2    0    0  0.27383529671E+02 -0.11350287992E+01  0.28849227549E+02  0.39792259521E+02  0.00000000000E+00 0. -1.
</event>
<event>
 7    1  0.2522928E-009  0.1423740E+03  0.7561462E-02  0.1210170E+00
          1   -1    0    0  501    0  0.00000000000E+00  0.00000000000E+00  0.43362684387E+03  0.43362684387E+03  0.00000000000E+00 0. -1.
         -1   -1    0    0    0  501 -0.00000000000E+00 -0.00000000000E+00 -0.10109834921E+03  0.10109834921E+03  0.00000000000E+00 0.  1.
         25    2    1    2    0    0 -0.95125019732E+02  0.44317870433E+02  0.35695122370E+03  0.39252357815E+03  0.12509092805E+03 0.  0.
          5    1    3    3  502    0 -0.74974052450E+02 -0.19520144925E+02  0.27948773314E+03  0.29005690817E+03  0.41800000000E+01 0.  1.
         -5    1    3    3    0  502 -0.20150967282E+02  0.63838015358E+02  0.77463490557E+02  0.10246666998E+03  0.41800000000E+01 0.  1.
        -11    1    1    2    0    0  0.10528627635E+03 -0.11711573095E+02 -0.18400729915E+02  0.10752184798E+03  0.00000000000E+00 0. -1.
         11    1    1    2    0    0 -0.10161256618E+02 -0.32606297338E+02 -0.60219991308E+01  0.34679766950E+02  0.00000000000E+00 0.  1.
</event>
<event>
 7    1  0.2522928E-009  0.1182431E+03  0.7561462E-02  0.1246024E+00
          2   -1    0    0  501    0  0.00000000000E+00  0.00000000000E+00  0.73578087234E+03  0.73578087234E+03  0.00000000000E+00 0.  1.
         -2   -1    0    0    0  501 -0.00000000000E+00 -0.00000000000E+00 -0.30694625528E+02  0.30694625528E+02  0.00000000000E+00 0. -1.
         25    2    1    2    0    0 -0.75926604986E+02 -0.68990445747E+02  0.41906360205E+03  0.44920677945E+03  0.12509155524E+03 0.  0.
          5    1    3    3  502    0 -0.51246677220E+02 -0.33632147550E+02  0.54652503334E+02  0.82229628453E+02  0.41800000000E+01 0.  1.
         -5    1    3    3    0  502 -0.24679927766E+02 -0.35358298197E+02  0.36441109872E+03  0.36697715100E+03  0.41800000000E+01 0.  1.
        -11    1    1    2    0    0 -0.15648902789E+02  0.26491572677E+02  0.11131614701E+03  0.11549015614E+03  0.00000000000E+00 0.  1.
         11    1    1    2    0    0  0.91575507775E+02  0.42498873071E+02  0.17470649776E+03  0.20177856228E+03  0.00000000000E+00 0. -1.
</event>
<event>
 7    1  0.3247412E-009  0.1785482E+03  0.7561462E-02  0.1169216E+00
         -2   -1    0    0    0  501 -0.00000000000E+00  0.00000000000E+00  0.33634485108E+02  0.33634485108E+02  0.00000000000E+00 0. -1.
          2   -1    0    0  501    0  0.00000000000E+00 -0.00000000000E+00 -0.99251264535E+03  0.99251264535E+03  0.00000000000E+00 0.  1.
         25    2    1    2    0    0  0.98957416920E+02  0.10234297769E+03 -0.60429119013E+03  0.63331115823E+03  0.12509406547E+03 0.  0.
          5    1    3    3  502    0  0.26773623300E+02 -0.28545534757E+02 -0.10621417950E+03  0.11327223308E+03  0.41800000000E+01 0.  1.
         -5    1    3    3    0  502  0.72183793620E+02  0.13088851244E+03 -0.49807701063E+03  0.52003892515E+03  0.41800000000E+01 0.  1.
        -11    1    1    2    0    0 -0.72491217196E+02 -0.11266820537E+02 -0.17468122867E+03  0.18946094443E+03  0.00000000000E+00 0. -1.
         11    1    1    2    0    0 -0.26466199724E+02 -0.91076157150E+02 -0.17990574144E+03  0.20337502780E+03  0.00000000000E+00 0.  1.
</event>
<event>
 7    1  0.2522928E-009  0.1329540E+03  0.7561462E-02  0.1223137E+00
          2   -1    0    0  501    0  0.00000000000E+00  0.00000000000E+00  0.42479719362E+03  0.42479719362E+03  0.00000000000E+00 0. -1.
         -2   -1    0    0    0  501 -0.00000000000E+00 -0.00000000000E+00 -0.82258001959E+02  0.82258001959E+02  0.00000000000E+00 0.  1.
         25    2    1    2    0    0  0.49809216656E+02 -0.57978351636E+02  0.35377836778E+03  0.38294890773E+03  0.12509310573E+03 0.  0.
          5    1    3    3  502    0  0.16664063419E+02  0.39710450911E+02  0.11055773223E+03  0.11872276731E+03  0.41800000000E+01 0.  1.
         -5    1    3    3    0  502  0.33145153237E+02 -0.97688802547E+02  0.24322063554E+03  0.26422614042E+03  0.41800000000E+01 0.  1.
        -11    1    1    2    0    0 -0.74508825595E+02  0.25836706635E+02 -0.22549985462E+02  0.82021962581E+02  0.00000000000E+00 0. -1.
         11    1    1    2    0    0  0.24699608939E+02  0.32141645002E+02  0.11310809344E+02  0.42084325267E+02  0.00000000000E+00 0.  1.
</event>
<event>
 7    1  0.2522928E-009  0.1194558E+03  0.7561462E-02  0.1243998E+00
         -1   -1    0    0    0  501 -0.00000000000E+00  0.00000000000E+00  0.14614633115E+02  0.14614633115E+02  0.00000000000E+00 0.  1.
          1   -1    0    0  501    0  0.00000000000E+00 -0.00000000000E+00 -0.10400473424E+04  0.10400473424E+04  0.00000000000E+00 0. -1.
         25    2    1    2    0    0  0.10098482260E+02  0.62241159865E+02 -0.55471868984E+03  0.57214611356E+03  0.12514954686E+03 0.  0.
          5    1    3    3  502    0  0.53934461229E+02 -0.29620963374E+01 -0.14178094434E+03  0.15177947391E+03  0.41800000000E+01 0. -1.
         -5    1    3    3    0  502 -0.43835978970E+02  0.65203256203E+02 -0.41293774550E+03  0.42036663965E+03  0.41800000000E+01 0. -1.
        -11    1    1    2    0    0 -0.45803442265E+02 -0.51163047137E+02 -0.30809472177E+03  0.31565482778E+03  0.00000000000E+00 0.  1.
         11    1    1    2    0    0  0.35704960005E+02 -0.11078112728E+02 -0.16261929767E+03  0.16686103417E+03  0.00000000000E+00 0. -1.
</event>
<event>
 7    1  0.2522928E-009  0.9997574E+02  0.7561462E-02  0.1280347E+00
         -1   -1    0    0    0  501 -0.00000000000E+00  0.00000000000E+00  0.45698520242E+03  0.45698520242E+03  0.00000000000E+00 0.  1.
          1   -1    0    0  501    0  0.00000000000E+00 -0.00000000000E+00 -0.24643661043E+02  0.24643661043E+02  0.00000000000E+00 0. -1.
         25    2    1    2    0    0 -0.12613740324E+01 -0.42365040146E+01  0.20598178116E+03  0.24103073828E+03  0.12509110117E+03 0.  0.
          5    1    3    3  502    0 -0.58840206451E+02 -0.23396995876E+02  0.90854226212E+02  0.11082216444E+03  0.41800000000E+01 0. -1.
         -5    1    3    3    0  502  0.57578832419E+02  0.19160491861E+02  0.11512755495E+03  0.13020857384E+03  0.41800000000E+01 0. -1.
        -11    1    1    2    0    0  0.37719567812E+02 -0.50155496042E+01  0.15857663163E+03  0.16307810899E+03  0.00000000000E+00 0.  1.
         11    1    1    2    0    0 -0.36458193779E+02  0.92520536188E+01  0.67783128580E+02  0.77520016189E+02  0.00000000000E+00 0. -1.
</event>
<event>
 7    1  0.2522928E-009  0.1051368E+03  0.7561462E-02  0.1269850E+00
          2   -1    0    0  501    0  0.00000000000E+00  0.00000000000E+00  0.31582853924E+02  0.31582853924E+02  0.00000000000E+00 0. -1.
         -2   -1    0    0    0  501 -0.00000000000E+00 -0.00000000000E+00 -0.41621887059E+03  0.41621887059E+03  0.00000000000E+00 0.  1.
         25    2    1    2    0    0  0.30599427442E+02 -0.17836712759E+02 -0.19999818840E+03  0.23854019297E+03  0.12509066718E+03 0.  0.
          5    1    3    3  502    0  0.31279218558E+02  0.43167161231E+02 -0.15097590465E+03  0.16016550661E+03  0.41800000000E+01 0.  1.
         -5    1    3    3    0  502 -0.67979111632E+00 -0.61003873990E+02 -0.49022283753E+02  0.78374686360E+02  0.41800000000E+01 0.  1.
        -11    1    1    2    0    0 -0.47639363336E+02  0.43721211864E+02 -0.14639176624E+03  0.16003625380E+03  0.00000000000E+00 0.  1.
         11    1    1    2    0    0  0.17039935894E+02 -0.25884499105E+02 -0.38246062021E+02  0.49225277747E+02  0.00000000000E+00 0. -1.
</event>
<event>
 7    1  0.2522928E-009  0.1566707E+03  0.7561462E-02  0.1192508E+00
         -2   -1    0    0    0  501 -0.00000000000E+00  0.00000000000E+00  0.43956905662E+02  0.43956905662E+02  0.00000000000E+00 0.  1.
          2   -1    0    0  501    0  0.00000000000E+00 -0.00000000000E+00 -0.92445427769E+03  0.92445427769E+03  0.00000000000E+00 0. -1.
         25    2    1    2    0    0  0.11977262271E+03  0.62122449766E+01 -0.74817590636E+03  0.76798329312E+03  0.12508828292E+03 0.  0.
          5    1    3    3  502    0 -0.12035095230E+02 -0.33221601826E+02 -0.14500151391E+03  0.14930314726E+03  0.41800000000E+01 0. -1.
         -5    1    3    3    0  502  0.13180771794E+03  0.39433846803E+02 -0.60317439245E+03  0.61868014586E+03  0.41800000000E+01 0. -1.
        -11    1    1    2    0    0 -0.36939463515E+02 -0.36490164758E+02 -0.15762553716E+02  0.54263377968E+02  0.00000000000E+00 0.  1.
         11    1    1    2    0    0 -0.82833159197E+02  0.30277919781E+02 -0.11655891196E+03  0.14616451226E+03  0.00000000000E+00 0. -1.
</event>
<event>
 7    1  0.2522928E-009  0.1652686E+03  0.7561462E-02  0.1182874E+00
          1   -1    0    0  501    0  0.00000000000E+00  0.00000000000E+00  0.89437122227E+02  0.89437122227E+02  0.00000000000E+00 0. -1.
         -1   -1    0    0    0  501 -0.00000000000E+00 -0.00000000000E+00 -0.56569252661E+03  0.56569252661E+03  0.00000000000E+00 0.  1.
         25    2    1    2    0    0  0.65240883633E+01  0.14005249935E+03 -0.45549774935E+02  0.19333814084E+03  0.12509032099E+03 0.  0.
          5    1    3    3  502    0 -0.46638170385E+02  0.12340970820E+03 -0.33785517604E+02  0.13624980225E+03  0.41800000000E+01 0.  1.
         -5    1    3    3    0  502  0.53162258748E+02  0.16642791149E+02 -0.11764257331E+02  0.57088338590E+02  0.41800000000E+01 0.  1.
        -11    1    1    2    0    0 -0.15221340581E+02 -0.51533584738E+02 -0.59910978853E+02  0.80478102315E+02  0.00000000000E+00 0. -1.
         11    1    1    2    0    0  0.86972522172E+01 -0.88518914610E+02 -0.37079465059E+03  0.38131340568E+03  0.00000000000E+00 0.  1.
</event>
<event>
 7    1  0.2522928E-009  0.9005003E+02  0.7561462E-02  0.1302731E+00
         -4   -1    0    0    0  501 -0.00000000000E+00  0.00000000000E+00  0.32470509687E+03  0.32470509687E+03  0.00000000000E+00 0. -1.
          4   -1    0    0  501    0  0.00000000000E+00 -0.00000000000E+00 -0.39419491468E+02  0.39419491468E+02  0.00000000000E+00 0.  1.
         25    2    1    2    0    0  0.22135129295E+02 -0.25783644223E+02  0.17006209505E+03  0.21383208651E+03  0.12509310448E+03 0.  0.
          5    1    3    3  502    0 -0.27187445417E+02  0.79762808889E+01  0.14678577928E+03  0.14955372160E+03  0.41800000000E+01 0. -1.
         -5    1    3    3    0  502  0.49322574712E+02 -0.33759925112E+02  0.23276315774E+02  0.64278364912E+02  0.41800000000E+01 0. -1.
        -11    1    1    2    0    0 -0.53836048273E+02  0.59831191666E+01  0.43722393681E+02  0.69611532937E+02  0.00000000000E+00 0.  1.
         11    1    1    2    0    0  0.31700918978E+02  0.19800525056E+02  0.71501116668E+02  0.80680968892E+02  0.00000000000E+00 0. -1.
</event>
<event>
 7    1  0.2522928E-009  0.1146000E+03  0.7561462E-02  0.1252281E+00
         -2   -1    0    0    0  501 -0.00000000000E+00  0.00000000000E+00  0.27489318543E+02  0.27489318543E+02  0.00000000000E+00 0.  1.
          2   -1    0    0  501    0  0.00000000000E+00 -0.00000000000E+00 -0.73883878949E+03  0.73883878949E+03  0.00000000000E+00 0. -1.
         25    2    1    2    0    0 -0.51411875601E+02 -0.10248867283E+02 -0.18335743368E+03  0.22807316788E+03  0.12509676730E+03 0.  0.
          5    1    3    3  502    0  0.13883744712E+02 -0.47585074070E+02 -0.11905173428E+03  0.12902668513E+03  0.41800000000E+01 0.  1.
         -5    1    3    3    0  502 -0.65295620313E+02  0.37336206787E+02 -0.64305699396E+02  0.99046482745E+02  0.41800000000E+01 0.  1.
        -11    1    1    2    0    0 -0.71404602898E+01  0.38467809959E+02 -0.22409389456E+03  0.22748369646E+03  0.00000000000E+00 0. -1.
         11    1    1    2    0    0  0.58552335891E+02 -0.28218942677E+02 -0.30389814271E+03  0.31077124370E+03  0.00000000000E+00 0.  1.
</event>
<event>
 7    1  0.2522928E-009  0.1225675E+03  0.7561462E-02  0.1238921E+00
         -2   -1    0    0    0  501 -0.00000000000E+00  0.00000000000E+00  0.86495119584E+02  0.86495119584E+02  0.00000000000E+00 0.  1.
          2   -1    0    0  501    0  0.00000000000E+00 -0.00000000000E+00 -0.62812151612E+03  0.62812151612E+03  0.00000000000E+00 0. -1.
         25    2    1    2    0    0 -0.82112326937E+02 -0.77223067896E+02 -0.54229310013E+03  0.56783330320E+03  0.12508803831E+03 0.  0.
          5    1    3    3  502    0 -0.50129847254E+02 -0.21449316992E+02 -0.59709083401E+02  0.80967412122E+02  0.41800000000E+01 0. -1.
         -5    1    3    3    0  502 -0.31982479682E+02 -0.55773750904E+02 -0.48258401673E+03  0.48686589108E+03  0.41800000000E+01 0. -1.
        -11    1    1    2    0    0  0.50981139529E+02  0.79894777605E+02  0.34379508584E+02  0.10081767051E+03  0.00000000000E+00 0.  1.
         11    1    1    2    0    0  0.31131187408E+02 -0.26717097086E+01 -0.33712804993E+02  0.45965661996E+02  0.00000000000E+00 0. -1.
</event>
<event>
 7    1  0.2522928E-009  0.1323312E+03  0.7561462E-02  0.1224037E+00
          2   -1    0    0  501    0  0.00000000000E+00  0.00000000000E+00  0.14412297559E+03  0.14412297559E+03  0.00000000000E+00 0. -1.
         -2   -1    0    0    0  501 -0.00000000000E+00 -0.00000000000E+00 -0.15308113393E+03  0.15308113393E+03  0.00000000000E+00 0.  1.
         25    2    1    2    0    0 -0.38291070415E+02  0.77207023566E+02 -0.54903111341E+02  0.16152188995E+03  0.12509132159E+03 0.  0.
          5    1    3    3  502    0 -0.37121135661E+02 -0.27944961411E+02 -0.15953959103E+02  0.49304166073E+02  0.41800000000E+01 0. -1.
         -5    1    3    3    0  502 -0.11699347539E+01  0.10515198498E+03 -0.38949152238E+02  0.11221772388E+03  0.41800000000E+01 0. -1.
        -11    1    1    2    0    0 -0.14458282689E+02 -0.52621937160E+02  0.54186379756E+02  0.76904316913E+02  0.00000000000E+00 0. -1.
         11    1    1    2    0    0  0.52749353104E+02 -0.24585086406E+02 -0.82414267519E+01  0.58777902662E+02  0.00000000000E+00 0.  1.
</event>
<event>
 7    1  0.2522928E-009  0.1445796E+03  0.7561462E-02  0.1207296E+00
          2   -1    0    0  501    0  0.00000000000E+00  0.00000000000E+00  0.23947676847E+04  0.23947676847E+04  0.00000000000E+00 0. -1.
         -2   -1    0    0    0  501 -0.00000000000E+00 -0.00000000000E+00 -0.12088980940E+02  0.12088980940E+02  0.00000000000E+00 0.  1.
         25    2    1    2    0    0  0.56883000895E+02  0.88860470176E+02  0.18340263410E+04  0.18413126014E+04  0.12509043875E+03 0.  0.
          5    1    3    3  502    0  0.41121205920E+02 -0.22347165785E+02  0.75132596832E+03  0.75279381803E+03  0.41800000000E+01 0. -1.
         -5    1    3    3    0  502  0.15761794975E+02  0.11120763596E+03  0.10827003727E+04  0.10885187834E+04  0.41800000000E+01 0. -1.
        -11    1    1    2    0    0 -0.47525032860E+02 -0.77817942608E+01  0.12210718145E+03  0.13126061417E+03  0.00000000000E+00 0.  1.
         11    1    1    2    0    0 -0.93579680352E+01 -0.81078675915E+02  0.42654518129E+03  0.43428344999E+03  0.00000000000E+00 0. -1.
</event>
<event>
 7    1  0.2522928E-009  0.1025102E+03  0.7561462E-02  0.1275104E+00
         -2   -1    0    0    0  501 -0.00000000000E+00  0.00000000000E+00  0.17938057974E+02  0.17938057974E+02  0.00000000000E+00 0.  1.
          2   -1    0    0  501    0  0.00000000000E+00 -0.00000000000E+00 -0.92423983080E+03  0.92423983080E+03  0.00000000000E+00 0. -1.
         25    2    1    2    0    0  0.66330793441E+01 -0.53043670141E+02 -0.63546586250E+03  0.64986309380E+03  0.12509016584E+03 0.  0.
          5    1    3    3  502    0 -0.13711838372E+02  0.29783391311E+02 -0.63790548683E+02  0.71845468965E+02  0.41800000000E+01 0.  1.
         -5    1    3    3    0  502  0.20344917716E+02 -0.82827061452E+02 -0.57167531382E+03  0.57801762483E+03  0.41800000000E+01 0.  1.
        -11    1    1    2    0    0  0.29618539114E+02  0.35704455401E+02 -0.51438053111E+02  0.69267158904E+02  0.00000000000E+00 0. -1.
         11    1    1    2    0    0 -0.36251618458E+02  0.17339214740E+02 -0.21939785721E+03  0.22304763607E+03  0.00000000000E+00 0.  1.
</event>
<event>
 7    1  0.2522928E-009  0.1450823E+03  0.7561462E-02  0.1206649E+00
          2   -1    0    0  501    0  0.00000000000E+00  0.00000000000E+00  0.48980268796E+03  0.48980268796E+03  0.00000000000E+00 0. -1.
         -2   -1    0    0    0  501 -0.00000000000E+00 -0.00000000000E+00 -0.59832148885E+02  0.59832148885E+02  0.00000000000E+00 0.  1.
         25    2    1    2    0    0 -0.43291081466E+02 -0.11368173127E+03  0.31350123247E+03  0.35878652314E+03  0.12508833945E+03 0.  0.
          5    1    3    3  502    0  0.47388433690E+01 -0.11965219326E+03  0.26138938248E+03  0.28754301533E+03  0.41800000000E+01 0. -1.
         -5    1    3    3    0  502 -0.48029924835E+02  0.59704619933E+01  0.52111849988E+02  0.71243507811E+02  0.41800000000E+01 0. -1.
        -11    1    1    2    0    0  0.17482069142E+02  0.38664365319E+02 -0.80640399567E+01  0.43192414003E+02  0.00000000000E+00 0.  1.
         11    1    1    2    0    0  0.25809012324E+02  0.75017365951E+02  0.12453334657E+03  0.14765589971E+03  0.00000000000E+00 0. -1.
</event>
<event>
 7    1  0.2522928E-009  0.1131938E+03  0.7561462E-02  0.1254767E+00
         -1   -1    0    0    0  501 -0.00000000000E+00  0.00000000000E+00  0.28871067749E+03  0.28871067749E+03  0.00000000000E+00 0.  1.
          1   -1    0    0  501    0  0.00000000000E+00 -0.00000000000E+00 -0.57479564857E+02  0.57479564857E+02  0.00000000000E+00 0. -1.
         25    2    1    2    0    0 -0.44986558182E+02  0.47872527568E+02  0.97106160653E+02  0.17144105225E+03  0.12508740403E+03 0.  0.
          5    1    3    3  502    0 -0.74859388149E+02  0.32790882166E+02  0.15699381678E+02  0.83325343878E+02  0.41800000000E+01 0. -1.
         -5    1    3    3    0  502  0.29872829967E+02  0.15081645403E+02  0.81406778975E+02  0.88115708369E+02  0.41800000000E+01 0. -1.
        -11    1    1    2    0    0  0.55751563441E+02 -0.68043482850E+02  0.11594627110E+03  0.14553930798E+03  0.00000000000E+00 0. -1.
         11    1    1    2    0    0 -0.10765005259E+02  0.20170955282E+02  0.18178680883E+02  0.29209882127E+02  0.00000000000E+00 0.  1.
</event>
<event>
 7    1  0.2522928E-009  0.9515049E+02  0.7561462E-02  0.1290838E+00
         -2   -1    0    0    0  501 -0.00000000000E+00  0.00000000000E+00  0.65489516392E+02  0.65489516392E+02  0.00000000000E+00 0.  1.
          2   -1    0    0  501    0  0.00000000000E+00 -0.00000000000E+00 -0.25670904123E+03  0.25670904123E+03  0.00000000000E+00 0. -1.
         25    2    1    2    0    0 -0.36254314534E+02  0.48609724975E+02 -0.53972222853E+02  0.14911904389E+03  0.12508480214E+03 0.  0.
          5    1    3    3  502    0 -0.71570759577E+02  0.34620551702E+01 -0.56868108504E+02  0.91574088132E+02  0.41800000000E+01 0.  1.
         -5    1    3    3    0  502  0.35316445043E+02  0.45147669805E+02  0.28958856506E+01  0.57544955756E+02  0.41800000000E+01 0.  1.
        -11    1    1    2    0    0  0.12775755906E+02 -0.22994438480E+02  0.48906286625E+01  0.26755978559E+02  0.00000000000E+00 0.  1.
         11    1    1    2    0    0  0.23478558628E+02 -0.25615286495E+02 -0.14213793064E+03  0.14632353517E+03  0.00000000000E+00 0. -1.
</event>
<event>
 7    1  0.2522928E-009  0.9452960E+02  0.7561462E-02  0.1292239E+00
          1   -1    0    0  501    0  0.00000000000E+00  0.00000000000E+00  0.68356872838E+03  0.68356872838E+03  0.00000000000E+00 0. -1.
         -1   -1    0    0    0  501 -0.00000000000E+00 -0.00000000000E+00 -0.18221874681E+02  0.18221874681E+02  0.00000000000E+00 0.  1.
         25    2    1    2    0    0  0.22618680204E+02 -0.51522635960E+01  0.41021583912E+03  0.42949080260E+03  0.12508862592E+03 0.  0.
          5    1    3    3  502    0  0.52313449296E+02  0.28906209638E+02  0.10476355948E+03  0.12068612898E+03  0.41800000000E+01 0. -1.
         -5    1    3    3    0  502 -0.29694769093E+02 -0.34058473234E+02  0.30545227964E+03  0.30880467362E+03  0.41800000000E+01 0. -1.
        -11    1    1    2    0    0 -0.37350060373E+02 -0.28532158693E+02  0.20386966960E+03  0.20921747841E+03  0.00000000000E+00 0. -1.
         11    1    1    2    0    0  0.14731380169E+02  0.33684422289E+02  0.51261344972E+02  0.63082322048E+02  0.00000000000E+00 0.  1.
</event>
<event>
 7    1  0.2522928E-009  0.1219944E+03  0.7561462E-02  0.1239843E+00
          2   -1    0    0  501    0  0.00000000000E+00  0.00000000000E+00  0.82998714930E+03  0.82998714930E+03  0.00000000000E+00 0. -1.
         -2   -1    0    0    0  501 -0.00000000000E+00 -0.00000000000E+00 -0.26956793648E+02  0.26956793648E+02  0.00000000000E+00 0.  1.
         25    2    1    2    0    0  0.87545126712E+02 -0.19948311448E+02  0.57820015126E+03  0.59835184080E+03  0.12508967236E+03 0.  0.
          5    1    3    3  502    0  0.97368011720E+02 -0.33417855592E+01  0.56765548715E+03  0.57597041740E+03  0.41800000000E+01 0.  1.
         -5    1    3    3    0  502 -0.98228850084E+01 -0.16606525889E+02  0.10544664114E+02  0.22381423397E+02  0.41800000000E+01 0.  1.
        -11    1    1    2    0    0 -0.17460238391E+02 -0.34044739420E+02  0.83599590874E+02  0.91939087450E+02  0.00000000000E+00 0. -1.
         11    1    1    2    0    0 -0.70084888321E+02  0.53993050868E+02  0.14123061352E+03  0.16665301470E+03  0.00000000000E+00 0.  1.
</event>
<event>
 7    1  0.2522928E-009  0.1045958E+03  0.7561462E-02  0.1270918E+00
         -2   -1    0    0    0  501 -0.00000000000E+00  0.00000000000E+00  0.30041632163E+02  0.30041632163E+02  0.00000000000E+00 0.  1.
          2   -1    0    0  501    0  0.00000000000E+00 -0.00000000000E+00 -0.44959857127E+03  0.44959857127E+03  0.00000000000E+00 0. -1.
         25    2    1    2    0    0  0.23344114181E+02 -0.30636471913E+01 -0.16774810755E+03  0.21057219308E+03  0.12508751861E+03 0.  0.
          5    1    3    3  502    0  0.56651113970E+02  0.39117586923E+02 -0.66190938762E+02  0.95594179190E+02  0.41800000000E+01 0.  1.
         -5    1    3    3    0  502 -0.33306999789E+02 -0.42181234115E+02 -0.10155716879E+03  0.11497801389E+03  0.41800000000E+01 0.  1.
        -11    1    1    2    0    0  0.58380695991E+01 -0.36604195798E+02 -0.55960710322E+02  0.67123403567E+02  0.00000000000E+00 0.  1.
         11    1    1    2    0    0 -0.29182183780E+02  0.39667842989E+02 -0.19584812124E+03  0.20194460679E+03  0.00000000000E+00 0. -1.
</event>
<event>
 7    1  0.2522928E-009  0.1191187E+03  0.7561462E-02  0.1244558E+00
          1   -1    0    0  501    0  0.00000000000E+00  0.00000000000E+00  0.71425341747E+03  0.71425341747E+03  0.00000000000E+00 0. -1.
         -1   -1    0    0    0  501 -0.00000000000E+00 -0.00000000000E+00 -0.26807097727E+02  0.26807097727E+02  0.00000000000E+00 0.  1.
         25    2    1    2    0    0  0.36492730600E+02  0.76415652237E+02  0.40199897062E+03  0.42944538330E+03  0.12509633714E+03 0.  0.
          5    1    3    3  502    0 -0.17192910228E+02  0.58574050626E+02  0.33979165895E+03  0.34525694702E+03  0.41800000000E+01 0.  1.
         -5    1    3    3    0  502  0.53685640828E+02  0.17841601611E+02  0.62207311669E+02  0.84188436286E+02  0.41800000000E+01 0.  1.
        -11    1    1    2    0    0 -0.40934567804E+02  0.27550491870E+01  0.60484476825E+02  0.73086257765E+02  0.00000000000E+00 0. -1.
         11    1    1    2    0    0  0.44418372041E+01 -0.79170701424E+02  0.22496287229E+03  0.23852887413E+03  0.00000000000E+00 0.  1.
</event>
<event>
 7    1  0.2522928E-009  0.9148977E+02  0.7561462E-02  0.1299284E+00
         -4   -1    0    0    0  501 -0.00000000000E+00  0.00000000000E+00  0.35884736473E+03  0.35884736473E+03  0.00000000000E+00 0.  1.
          4   -1    0    0  501    0  0.00000000000E+00 -0.00000000000E+00 -0.40655010836E+02  0.40655010836E+02  0.00000000000E+00 0. -1.
         25    2    1    2    0    0  0.49874806600E+02  0.12201652276E+02  0.15390640859E+03  0.20486647869E+03  0.12508682918E+03 0.  0.
          5    1    3    3  502    0 -0.20985751673E+02  0.33510955050E+02  0.70662885298E+01  0.40383049850E+02  0.41800000000E+01 0. -1.
         -5    1    3    3    0  502  0.70860558273E+02 -0.21309302774E+02  0.14684012006E+03  0.16448342884E+03  0.41800000000E+01 0. -1.
        -11    1    1    2    0    0 -0.55773526509E+00 -0.19276273362E+02 -0.35086250463E+01  0.19600924291E+02  0.00000000000E+00 0. -1.
         11    1    1    2    0    0 -0.49317071335E+02  0.70746210858E+01  0.16779457035E+03  0.17503497259E+03  0.00000000000E+00 0.  1.
</event>
<event>
 7    1  0.2522928E-009  0.6834191E+02  0.7561462E-02  0.1365824E+00
          2   -1    0    0  501    0  0.00000000000E+00  0.00000000000E+00  0.26303522880E+02  0.26303522880E+02  0.00000000000E+00 0.  1.
         -2   -1    0    0    0  501 -0.00000000000E+00 -0.00000000000E+00 -0.60930818092E+03  0.60930818092E+03  0.00000000000E+00 0. -1.
         25    2    1    2    0    0  0.18589495144E+02 -0.58253249769E+02 -0.37959518011E+03  0.40432598718E+03  0.12509193703E+03 0.  0.
          5    1    3    3  502    0 -0.52873527510E+01 -0.17628781807E+02 -0.34549490415E+03  0.34601001610E+03  0.41800000000E+01 0. -1.
         -5    1    3    3    0  502  0.23876847895E+02 -0.40624467962E+02 -0.34100275956E+02  0.58315971079E+02  0.41800000000E+01 0. -1.
        -11    1    1    2    0    0 -0.23086124612E+02  0.16181359786E+02 -0.52721584666E+01  0.28681025243E+02  0.00000000000E+00 0.  1.
         11    1    1    2    0    0  0.44966294675E+01  0.42071889983E+02 -0.19813731947E+03  0.20260469138E+03  0.00000000000E+00 0. -1.
</event>
<event>
 7    1  0.2522928E-009  0.1231045E+03  0.7561462E-02  0.1238062E+00
         -2   -1    0    0    0  501 -0.00000000000E+00  0.00000000000E+00  0.39629488378E+03  0.39629488378E+03  0.00000000000E+00 0.  1.
          2   -1    0    0  501    0  0.00000000000E+00 -0.00000000000E+00 -0.56206378115E+02  0.56206378115E+02  0.00000000000E+00 0. -1.
         25    2    1    2    0    0 -0.58918858201E+02  0.79490926874E+02  0.22115281194E+03  0.27266390107E+03  0.12508715927E+03 0.  0.
          5    1    3    3  502    0 -0.51687890246E+00 -0.17013058064E+02  0.11944461255E+03  0.12072364796E+03  0.41800000000E+01 0. -1.
         -5    1    3    3    0  502 -0.58401979299E+02  0.96503984937E+02  0.10170819939E+03  0.15194025312E+03  0.41800000000E+01 0. -1.
        -11    1    1    2    0    0  0.45029559562E+02 -0.11588745721E+02  0.96281186637E+02  0.10692065826E+03  0.00000000000E+00 0.  1.
         11    1    1    2    0    0  0.13889298640E+02 -0.67902181152E+02  0.22654507096E+02  0.72916702570E+02  0.00000000000E+00 0. -1.
</event>
<event>
 7    1  0.2522928E-009  0.1622925E+03  0.7561462E-02  0.1186133E+00
         -4   -1    0    0    0  501 -0.00000000000E+00  0.00000000000E+00  0.28873545862E+03  0.28873545862E+03  0.00000000000E+00 0.  1.
          4   -1    0    0  501    0  0.00000000000E+00 -0.00000000000E+00 -0.10589911344E+03  0.10589911344E+03  0.00000000000E+00 0. -1.
         25    2    1    2    0    0 -0.12480319176E+03 -0.27856386804E+02  0.42729202137E+02  0.18391629405E+03  0.12509038149E+03 0.  0.
          5    1    3    3  502    0 -0.10052366244E+03 -0.68455832294E+02  0.56929320782E+02  0.13434890267E+03  0.41800000000E+01 0.  1.
         -5    1    3    3    0  502 -0.24279529316E+02  0.40599445489E+02 -0.14200118645E+02  0.49567391372E+02  0.41800000000E+01 0.  1.
        -11    1    1    2    0    0  0.43423443020E+02 -0.32371358303E+02  0.65289505888E+02  0.84830535901E+02  0.00000000000E+00 0.  1.
         11    1    1    2    0    0  0.81379748735E+02  0.60227745107E+02  0.74817637149E+02  0.12588774211E+03  0.00000000000E+00 0. -1.
</event>
<event>
 7    1  0.2522928E-009  0.1305141E+03  0.7561462E-02  0.1226695E+00
          2   -1    0    0  501    0  0.00000000000E+00  0.00000000000E+00  0.19072085357E+04  0.19072085357E+04  0.00000000000E+00 0. -1.
         -2   -1    0    0    0  501 -0.00000000000E+00 -0.00000000000E+00 -0.14365380401E+02  0.14365380401E+02  0.00000000000E+00 0.  1.
         25    2    1    2    0    0 -0.84522414630E+02 -0.52180001634E+02  0.14607730025E+04  0.14694787565E+04  0.12507301839E+03 0.  0.
          5    1    3    3  502    0  0.24258484285E+02  0.99792944222E+01  0.12246038890E+03  0.12530793920E+03  0.41800000000E+01 0. -1.
         -5    1    3    3    0  502 -0.10878089892E+03 -0.62159296056E+02  0.13383126136E+04  0.13441708173E+04  0.41800000000E+01 0. -1.
        -11    1    1    2    0    0  0.10187644101E+02  0.29776776321E+02  0.33225096214E+02  0.45764085470E+02  0.00000000000E+00 0.  1.
         11    1    1    2    0    0  0.74334770530E+02  0.22403225312E+02  0.39884505660E+03  0.40633107412E+03  0.00000000000E+00 0. -1.
</event>
<event>
 7    1  0.2522928E-009  0.1012285E+03  0.7561462E-02  0.1277734E+00
         -1   -1    0    0    0  501 -0.00000000000E+00  0.00000000000E+00  0.77800798773E+03  0.77800798773E+03  0.00000000000E+00 0.  1.
          1   -1    0    0  501    0  0.00000000000E+00 -0.00000000000E+00 -0.15953937295E+02  0.15953937295E+02  0.00000000000E+00 0. -1.
         25    2    1    2    0    0  0.12487737063E+02  0.18614935004E+02  0.48706998975E+03  0.50337406684E+03  0.12508323977E+03 0.  0.
          5    1    3    3  502    0 -0.36524376601E+02  0.40908804980E+02  0.37452528183E+03  0.37854222954E+03  0.41800000000E+01 0.  1.
         -5    1    3    3    0  502  0.49012113664E+02 -0.22293869976E+02  0.11254470792E+03  0.12483183730E+03  0.41800000000E+01 0.  1.
        -11    1    1    2    0    0 -0.22170393724E+02 -0.53147364674E+02  0.15467778231E+03  0.16504964426E+03  0.00000000000E+00 0. -1.
         11    1    1    2    0    0  0.96826566611E+01  0.34532429670E+02  0.12030627837E+03  0.12553821392E+03  0.00000000000E+00 0.  1.
</event>
<event>
 7    1  0.2522928E-009  0.1208418E+03  0.7561462E-02  0.1241715E+00
          2   -1    0    0  501    0  0.00000000000E+00  0.00000000000E+00  0.94049441231E+02  0.94049441231E+02  0.00000000000E+00 0. -1.
         -2   -1    0    0    0  501 -0.00000000000E+00 -0.00000000000E+00 -0.28188897673E+03  0.28188897673E+03  0.00000000000E+00 0.  1.
         25    2    1    2    0    0  0.23056718970E+02 -0.67730156185E+02  0.11887664183E+02  0.14459346132E+03  0.12508783375E+03 0.  0.
          5    1    3    3  502    0  0.88193265597E+01  0.34508666289E+02 -0.13314147506E+02  0.38253986640E+02  0.41800000000E+01 0. -1.
         -5    1    3    3    0  502  0.14237392411E+02 -0.10223882247E+03  0.25201811688E+02  0.10633947468E+03  0.41800000000E+01 0. -1.
        -11    1    1    2    0    0 -0.21515532667E+02  0.83723515143E+02 -0.19688757537E+03  0.21502851548E+03  0.00000000000E+00 0.  1.
         11    1    1    2    0    0 -0.15411863036E+01 -0.15993358958E+02 -0.28396243171E+01  0.16316441164E+02  0.00000000000E+00 0. -1.
</event>
<event>
 6    1  0.2522928E-009  0.1055879E+03  0.7561462E-02  0.1268966E+00
         -2   -1    0    0    0  501 -0.00000000000E+00  0.00000000000E+00  0.21890349712E+03  0.21890349712E+03  0.00000000000E+00 0.  1.
          2   -1    0    0  501    0  0.00000000000E+00 -0.00000000000E+00 -0.68742228302E+02  0.68742228302E+02  0.00000000000E+00 0. -1.
          5    1    1    2  502    0 -0.51638931985E+02  0.56087413641E+02 -0.10998992885E+02  0.77141606867E+02  0.41800000000E+01 0. -1.
         -5    1    1    2    0  502  0.20717213788E+02 -0.27280784223E+02  0.49744473289E+02  0.60542787826E+02  0.41800000000E+01 0. -1.
        -11    1    1    2    0    0 -0.17305004466E+02 -0.45972838576E+02  0.51943009429E+02  0.71491547016E+02  0.00000000000E+00 0.  1.
         11    1    1    2    0    0  0.48226722663E+02  0.17166209157E+02  0.59472778985E+02  0.78469783713E+02  0.00000000000E+00 0. -1.
</event>
<event>
 7    1  0.2665022E-009  0.9246667E+02  0.7561462E-02  0.1296986E+00
          1   -1    0    0  501    0  0.00000000000E+00  0.00000000000E+00  0.19016794544E+04  0.19016794544E+04  0.00000000000E+00 0. -1.
         -1   -1    0    0    0  501 -0.00000000000E+00 -0.00000000000E+00 -0.10744952569E+02  0.10744952569E+02  0.00000000000E+00 0.  1.
         25    2    1    2    0    0  0.59341226098E+02 -0.77345360718E+01  0.15023784486E+04  0.15087644516E+04  0.12509182045E+03 0.  0.
          5    1    3    3  502    0  0.57432883329E+02  0.21873481863E+02  0.31274036064E+03  0.31874910333E+03  0.41800000000E+01 0. -1.
         -5    1    3    3    0  502  0.19083427693E+01 -0.29608017935E+02  0.11896380879E+04  0.11900153483E+04  0.41800000000E+01 0. -1.
        -11    1    1    2    0    0  0.88402376365E+01  0.22003672044E+02  0.29205309659E+02  0.37619961419E+02  0.00000000000E+00 0.  1.
         11    1    1    2    0    0 -0.68181463734E+02 -0.14269135972E+02  0.35935074363E+03  0.36603999398E+03  0.00000000000E+00 0. -1.
</event>
<event>
 7    1  0.2522928E-009  0.9999685E+02  0.7561462E-02  0.1280303E+00
         -2   -1    0    0    0  501 -0.00000000000E+00  0.00000000000E+00  0.47462015376E+02  0.47462015376E+02  0.00000000000E+00 0.  1.
          2   -1    0    0  501    0  0.00000000000E+00 -0.00000000000E+00 -0.26777401774E+03  0.26777401774E+03  0.00000000000E+00 0. -1.
         25    2    1    2    0    0 -0.32141769364E+02  0.11235006487E+02 -0.10383267424E+03  0.16609870153E+03  0.12509290828E+03 0.  0.
          5    1    3    3  502    0 -0.69792249817E+02 -0.19116266564E+02 -0.90130966980E+02  0.11566094151E+03  0.41800000000E+01 0.  1.
         -5    1    3    3    0  502  0.37650480454E+02  0.30351273052E+02 -0.13701707259E+02  0.50437760022E+02  0.41800000000E+01 0.  1.
        -11    1    1    2    0    0  0.54425750340E+02 -0.96960219254E+00 -0.36649467817E+02  0.65622297429E+02  0.00000000000E+00 0.  1.
         11    1    1    2    0    0 -0.22283980977E+02 -0.10265404295E+02 -0.79829860307E+02  0.83515034156E+02  0.00000000000E+00 0. -1.
</event>
<event>
 7    1  0.2522928E-009  0.1063540E+03  0.7561462E-02  0.1267475E+00
         -3   -1    0    0    0  501 -0.00000000000E+00  0.00000000000E+00  0.11359075947E+03  0.11359075947E+03  0.00000000000E+00 0.  1.
          3   -1    0    0  501    0  0.00000000000E+00 -0.00000000000E+00 -0.13602251435E+03  0.13602251435E+03  0.00000000000E+00 0. -1.
         25    2    1    2    0    0  0.66693366871E+01 -0.41458140709E+02 -0.58630286683E+02  0.14439056492E+03  0.12509143551E+03 0.  0.
          5    1    3    3  502    0  0.44738195796E+02  0.26689666796E+02 -0.34329780849E+02  0.62528799204E+02  0.41800000000E+01 0.  1.
         -5    1    3    3    0  502 -0.38068859109E+02 -0.68147807504E+02 -0.24300505833E+02  0.81861765711E+02  0.41800000000E+01 0.  1.
        -11    1    1    2    0    0  0.30506115547E+02  0.31363481903E+02 -0.10191446942E+02  0.44923898692E+02  0.00000000000E+00 0. -1.
         11    1    1    2    0    0 -0.37175452235E+02  0.10094658806E+02  0.46389978747E+02  0.60298810216E+02  0.00000000000E+00 0.  1.
</event>
<event>
 7    1  0.2522928E-009  0.1118866E+03  0.7561462E-02  0.1257116E+00
         -2   -1    0    0    0  501 -0.00000000000E+00  0.00000000000E+00  0.20776359839E+02  0.20776359839E+02  0.00000000000E+00 0.  1.
          2   -1    0    0  501    0  0.00000000000E+00 -0.00000000000E+00 -0.74596075653E+03  0.74596075653E+03  0.00000000000E+00 0. -1.
         25    2    1    2    0    0 -0.22060068444E+02 -0.58059812063E+02 -0.42878960828E+03  0.45096084303E+03  0.12509022896E+03 0.  0.
          5    1    3    3  502    0  0.17941605125E+02 -0.77217408678E+02 -0.16118360131E+03  0.17967207665E+03  0.41800000000E+01 0.  1.
         -5    1    3    3    0  502 -0.40001673569E+02  0.19157596616E+02 -0.26760600697E+03  0.27128876638E+03  0.41800000000E+01 0.  1.
        -11    1    1    2    0    0 -0.26590641016E+02  0.36317721908E+01 -0.14780767592E+03  0.15022436893E+03  0.00000000000E+00 0. -1.
         11    1    1    2    0    0  0.48650709460E+02  0.54428039872E+02 -0.14858711249E+03  0.16555190441E+03  0.00000000000E+00 0.  1.
</event>
<event>
 7    1  0.2522928E-009  0.1410299E+03  0.7561462E-02  0.1211950E+00
         -1   -1    0    0    0  501 -0.00000000000E+00  0.00000000000E+00  0.34454099207E+02  0.34454099207E+02  0.00000000000E+00 0.  1.
          1   -1    0    0  501    0  0.00000000000E+00 -0.00000000000E+00 -0.62216729187E+03  0.62216729187E+03  0.00000000000E+00 0. -1.
         25    2    1    2    0    0  0.77769573039E+02 -0.60983503187E+02 -0.31628143269E+03  0.35418671459E+03  0.12508872842E+03 0.  0.
          5    1    3    3  502    0  0.76271941064E+02  0.19279129594E+02 -0.16649486985E+03  0.18419312668E+03  0.41800000000E+01 0. -1.
         -5    1    3    3    0  502  0.14976319755E+01 -0.80262632781E+02 -0.14978656284E+03  0.16999358791E+03  0.41800000000E+01 0. -1.
        -11    1    1    2    0    0 -0.92138425900E+02  0.55166776265E+02 -0.26446887627E+03  0.28544114848E+03  0.00000000000E+00 0. -1.
         11    1    1    2    0    0  0.14368852860E+02  0.58167269228E+01 -0.69628837065E+01  0.16993528007E+02  0.00000000000E+00 0.  1.
</event>
<event>
 7    1  0.2522928E-009  0.1412950E+03  0.7561462E-02  0.1211597E+00
          3   -1    0    0  501    0  0.00000000000E+00  0.00000000000E+00  0.24227236277E+03  0.24227236277E+03  0.00000000000E+00 0. -1.
         -3   -1    0    0    0  501 -0.00000000000E+00 -0.00000000000E+00 -0.12415099187E+03  0.12415099187E+03  0.00000000000E+00 0.  1.
         25    2    1    2    0    0 -0.51868641979E+02  0.10232734064E+03 -0.11812457874E+02  0.17014255114E+03  0.12509081854E+03 0.  0.
          5    1    3    3  502    0 -0.30750613773E+02  0.12745112138E+03 -0.26695424468E+02  0.13386376162E+03  0.41800000000E+01 0. -1.
         -5    1    3    3    0  502 -0.21118028206E+02 -0.25123780740E+02  0.14882966593E+02  0.36278789514E+02  0.41800000000E+01 0. -1.
        -11    1    1    2    0    0  0.85484197796E+01 -0.48440353743E+02  0.11565548954E+03  0.12568108693E+03  0.00000000000E+00 0. -1.
         11    1    1    2    0    0  0.43320222199E+02 -0.53886986898E+02  0.14278339236E+02  0.70599716570E+02  0.00000000000E+00 0.  1.
</event>
<event>
 7    1  0.2522928E-009  0.1002084E+03  0.7561462E-02  0.1279858E+00
          3   -1    0    0  501    0  0.00000000000E+00  0.00000000000E+00  0.21447969690E+03  0.21447969690E+03  0.00000000000E+00 0. -1.
         -3   -1    0    0    0  501 -0.00000000000E+00 -0.00000000000E+00 -0.69745051829E+02  0.69745051829E+02  0.00000000000E+00 0.  1.
         25    2    1    2    0    0  0.16674177318E+02 -0.45542581716E+02  0.48668464503E+02  0.14272074387E+03  0.12509371029E+03 0.  0.
          5    1    3    3  502    0  0.21766945426E+02  0.33726833622E+02  0.48607452910E+02  0.63177971618E+02  0.41800000000E+01 0. -1.
         -5    1    3    3    0  502 -0.50927681080E+01 -0.79269415338E+02  0.61011592337E-01  0.79542772252E+02  0.41800000000E+01 0. -1.
        -11    1    1    2    0    0 -0.57839388438E+01 -0.16521015716E+02  0.71927662448E+02  0.74026931140E+02  0.00000000000E+00 0. -1.
         11    1    1    2    0    0 -0.10890238474E+02  0.62063597432E+02  0.24138518117E+02  0.67477073714E+02  0.00000000000E+00 0.  1.
</event>
<event>
 7    1  0.2522928E-009  0.1835978E+03  0.7561462E-02  0.1164366E+00
          1   -1    0    0  501    0  0.00000000000E+00  0.00000000000E+00  0.10619800237E+04  0.10619800237E+04  0.00000000000E+00 0. -1.
         -1   -1    0    0    0  501 -0.00000000000E+00 -0.00000000000E+00 -0.44102162719E+02  0.44102162719E+02  0.00000000000E+00 0.  1.
         25    2    1    2    0    0 -0.11410495202E+03 -0.13891051116E+03  0.66139323927E+03  0.69671021528E+03  0.12509211380E+03 0.  0.
          5    1    3    3  502    0 -0.10518624162E+03 -0.11424123244E+03  0.33531907557E+03  0.36955589490E+03  0.41800000000E+01 0.  1.
         -5    1    3    3    0  502 -0.89187103938E+01 -0.24669278720E+02  0.32607416371E+03  0.32715432038E+03  0.41800000000E+01 0.  1.
        -11    1    1    2    0    0  0.46187353068E+02  0.91377168096E+02  0.27366624814E+03  0.29219218641E+03  0.00000000000E+00 0. -1.
         11    1    1    2    0    0  0.67917598949E+02  0.47533343063E+02  0.82818373617E+02  0.11717978477E+03  0.00000000000E+00 0.  1.
</event>
<event>
 7    1  0.2522928E-009  0.1210365E+03  0.7561462E-02  0.1241397E+00
          1   -1    0    0  501    0  0.00000000000E+00  0.00000000000E+00  0.45933991924E+03  0.45933991924E+03  0.00000000000E+00 0. -1.
         -1   -1    0    0    0  501 -0.00000000000E+00 -0.00000000000E+00 -0.36563450252E+02  0.36563450252E+02  0.00000000000E+00 0.  1.
         25    2    1    2    0    0  0.68984755742E+02 -0.23235526288E+02  0.26808076851E+03  0.30465145496E+03  0.12508566807E+03 0.  0.
          5    1    3    3  502    0  0.31430746430E+02  0.47659991462E+02  0.16037134970E+03  0.17028155746E+03  0.41800000000E+01 0.  1.
         -5    1    3    3    0  502  0.37554009313E+02 -0.70895517749E+02  0.10770941881E+03  0.13436989749E+03  0.41800000000E+01 0.  1.
        -11    1    1    2    0    0 -0.54327726335E+00  0.35037026501E+02  0.21706147710E+02  0.41219476278E+02  0.00000000000E+00 0.  1.
         11    1    1    2    0    0 -0.68441478479E+02 -0.11801500213E+02  0.13298955277E+03  0.15003243826E+03  0.00000000000E+00 0. -1.
</event>
<event>
 7    1  0.2522928E-009  0.2025638E+03  0.7561462E-02  0.1147594E+00
          1   -1    0    0  501    0  0.00000000000E+00  0.00000000000E+00  0.51676221829E+03  0.51676221829E+03  0.00000000000E+00 0. -1.
         -1   -1    0    0    0  501 -0.00000000000E+00 -0.00000000000E+00 -0.11093822495E+03  0.11093822495E+03  0.00000000000E+00 0.  1.
         25    2    1    2    0    0 -0.16804640828E+03 -0.90941524083E+02  0.84089015096E+02  0.24337337439E+03  0.12509868409E+03 0.  0.
          5    1    3    3  502    0 -0.15962376492E+03 -0.66900703143E+02  0.19996846063E+02  0.17427792936E+03  0.41800000000E+01 0. -1.
         -5    1    3    3    0  502 -0.84226433609E+01 -0.24040820940E+02  0.64092169033E+02  0.69095445031E+02  0.41800000000E+01 0. -1.
        -11    1    1    2    0    0  0.95300618284E+02  0.93346747725E+02  0.17047481284E+03  0.21646589794E+03  0.00000000000E+00 0. -1.
         11    1    1    2    0    0  0.72745789997E+02 -0.24052236426E+01  0.15126016540E+03  0.16786117091E+03  0.00000000000E+00 0.  1.
</event>
<event>
 7    1  0.2522928E-009  0.1262213E+03  0.7561462E-02  0.1233173E+00
          2   -1    0    0  501    0  0.00000000000E+00  0.00000000000E+00  0.67133006824E+02  0.67133006824E+02  0.00000000000E+00 0. -1.
         -2   -1    0    0    0  501 -0.00000000000E+00 -0.00000000000E+00 -0.24433678086E+03  0.24433678086E+03  0.00000000000E+00 0.  1.
         25    2    1    2    0    0 -0.50940017650E+02  0.44856800780E+02 -0.90811370734E+02  0.16882563535E+03  0.12509345355E+03 0.  0.
          5    1    3    3  502    0 -0.39803954788E+02 -0.38036035498E+02 -0.54398211177E+02  0.77509564522E+02  0.41800000000E+01 0. -1.
         -5    1    3    3    0  502 -0.11136062862E+02  0.82892836279E+02 -0.36413159558E+02  0.91316070828E+02  0.41800000000E+01 0. -1.
        -11    1    1    2    0    0  0.50299616166E+02 -0.71178476026E+02 -0.67456324600E+02  0.11021244287E+03  0.00000000000E+00 0.  1.
         11    1    1    2    0    0  0.64040148339E+00  0.26321675246E+02 -0.18936078698E+02  0.32431709456E+02  0.00000000000E+00 0. -1.
</event>
<event>
 7    1  0.2522928E-009  0.7959080E+02  0.7561462E-02  0.1330217E+00
         -2   -1    0    0    0  501 -0.00000000000E+00  0.00000000000E+00  0.57776431265E+02  0.57776431265E+02  0.00000000000E+00 0.  1.
          2   -1    0    0  501    0  0.00000000000E+00 -0.00000000000E+00 -0.24176226130E+03  0.24176226130E+03  0.00000000000E+00 0. -1.
         25    2    1    2    0    0 -0.40732722908E+02  0.52889432192E+01 -0.13370362229E+03  0.18764597732E+03  0.12508887462E+03 0.  0.
          5    1    3    3  502    0 -0.13137022135E+01 -0.23938259256E+02 -0.13617651391E+03  0.13833394887E+03  0.41800000000E+01 0. -1.
         -5    1    3    3    0  502 -0.39419020695E+02  0.29227202475E+02  0.24728916148E+01  0.49312028451E+02  0.41800000000E+01 0. -1.
        -11    1    1    2    0    0 -0.12276115901E+02 -0.25946372164E+02  0.86511333590E+01  0.29979315511E+02  0.00000000000E+00 0.  1.
         11    1    1    2    0    0  0.53008838810E+02  0.20657428945E+02 -0.58933341103E+02  0.81913399735E+02  0.00000000000E+00 0. -1.
</event>
<event>
 7    1  0.2522928E-009  0.1119246E+03  0.7561462E-02  0.1257047E+00
          1   -1    0    0  501    0  0.00000000000E+00  0.00000000000E+00  0.47622495790E+03  0.47622495790E+03  0.00000000000E+00 0. -1.
         -1   -1    0    0    0  501 -0.00000000000E+00 -0.00000000000E+00 -0.33795520374E+02  0.33795520374E+02  0.00000000000E+00 0.  1.
         25    2    1    2    0    0  0.11454536350E+02  0.55986763893E+02  0.17814555995E+03  0.22505384833E+03  0.12509064707E+03 0.  0.
          5    1    3    3  502    0  0.10032907316E+02 -0.30677010568E+02  0.11001393011E+03  0.11472696032E+03  0.41800000000E+01 0.  1.
         -5    1    3    3    0  502  0.14216290334E+01  0.86663774461E+02  0.68131629843E+02  0.11032688801E+03  0.41800000000E+01 0.  1.
        -11    1    1    2    0    0 -0.49734376375E+02 -0.27677262793E+02  0.11571428267E+03  0.12895477612E+03  0.00000000000E+00 0. -1.
         11    1    1    2    0    0  0.38279840025E+02 -0.28309501100E+02  0.14856959490E+03  0.15601185382E+03  0.00000000000E+00 0.  1.
</event>
<event>
 7    1  0.2522928E-009  0.2003718E+03  0.7561462E-02  0.1149426E+00
          2   -1    0    0  501    0  0.00000000000E+00  0.00000000000E+00  0.62326155868E+03  0.62326155868E+03  0.00000000000E+00 0. -1.
         -2   -1    0    0    0  501 -0.00000000000E+00 -0.00000000000E+00 -0.79664510930E+02  0.79664510930E+02  0.00000000000E+00 0.  1.
         25    2    1    2    0    0 -0.18143000197E+03  0.28305689845E+02  0.18172432410E+03  0.28703604396E+03  0.12509157792E+03 0.  0.
          5    1    3    3  502    0 -0.75868371599E+02 -0.31523316884E+02  0.19731783104E+02  0.84596365057E+02  0.41800000000E+01 0.  1.
         -5    1    3    3    0  502 -0.10556163037E+03  0.59829006729E+02  0.16199254100E+03  0.20243967890E+03  0.41800000000E+01 0.  1.
        -11    1    1    2    0    0  0.12049448138E+03  0.16247999600E+02  0.27576726507E+03  0.30138099147E+03  0.00000000000E+00 0.  1.
         11    1    1    2    0    0  0.60935520594E+02 -0.44553689445E+02  0.86105458576E+02  0.11450903418E+03  0.00000000000E+00 0. -1.
</event>
<event>
 7    1  0.2522928E-009  0.1627266E+03  0.7561462E-02  0.1185652E+00
          1   -1    0    0  501    0  0.00000000000E+00  0.00000000000E+00  0.16326959054E+03  0.16326959054E+03  0.00000000000E+00 0. -1.
         -1   -1    0    0    0  501 -0.00000000000E+00 -0.00000000000E+00 -0.35194065232E+03  0.35194065232E+03  0.00000000000E+00 0.  1.
         25    2    1    2    0    0  0.52073324650E+02  0.12731733717E+03  0.77495772692E+02  0.20143111096E+03  0.12509021621E+03 0.  0.
          5    1    3    3  502    0  0.70725327890E+02  0.70868983830E+02  0.96257002221E+02  0.13895095448E+03  0.41800000000E+01 0.  1.
         -5    1    3    3    0  502 -0.18652003240E+02  0.56448353343E+02 -0.18761229529E+02  0.62480156477E+02  0.41800000000E+01 0.  1.
        -11    1    1    2    0    0 -0.48649868106E+02 -0.11776051570E+02 -0.92195522069E+02  0.10490709865E+03  0.00000000000E+00 0. -1.
         11    1    1    2    0    0 -0.34234565431E+01 -0.11554128560E+03 -0.17397131241E+03  0.20887203325E+03  0.00000000000E+00 0.  1.
</event>
<event>
 7    1  0.2522928E-009  0.1312507E+03  0.7561462E-02  0.1225612E+00
          3   -1    0    0  501    0  0.00000000000E+00  0.00000000000E+00  0.34402212531E+03  0.34402212531E+03  0.00000000000E+00 0. -1.
         -3   -1    0    0    0  501 -0.00000000000E+00 -0.00000000000E+00 -0.66865065681E+02  0.66865065681E+02  0.00000000000E+00 0.  1.
         25    2    1    2    0    0 -0.82250685115E+02 -0.21239735304E+02  0.23620989510E+03  0.28046113984E+03  0.12508810838E+03 0.  0.
          5    1    3    3  502    0  0.30571499096E+02  0.87751715676E+01  0.73127199006E+02  0.79854115908E+02  0.41800000000E+01 0. -1.
         -5    1    3    3    0  502 -0.11282218421E+03 -0.30014906871E+02  0.16308269609E+03  0.20060702393E+03  0.41800000000E+01 0. -1.
        -11    1    1    2    0    0 -0.47745971890E+01  0.26010139336E+02  0.33887417061E+02  0.42984661935E+02  0.00000000000E+00 0. -1.
         11    1    1    2    0    0  0.87025282304E+02 -0.47704040320E+01  0.70597474719E+01  0.87441389222E+02  0.00000000000E+00 0.  1.
</event>
<event>
 7    1  0.2522928E-009  0.9505532E+02  0.7561462E-02  0.1291052E+00
         -1   -1    0    0    0  501 -0.00000000000E+00  0.00000000000E+00  0.42600802434E+02  0.42600802434E+02  0.00000000000E+00 0. -1.
          1   -1    0    0  501    0  0.00000000000E+00 -0.00000000000E+00 -0.56214675894E+03  0.56214675894E+03  0.00000000000E+00 0.  1.
         25    2    1    2    0    0  0.68856948517E+02  0.42160220828E+02 -0.13292775704E+03  0.19959014822E+03  0.12509066750E+03 0.  0.
          5    1    3    3  502    0  0.67000810830E+02  0.52873898381E+02 -0.22251675219E+02  0.88302702292E+02  0.41800000000E+01 0. -1.
         -5    1    3    3    0  502  0.18561376866E+01 -0.10713677553E+02 -0.11067608182E+03  0.11128744593E+03  0.41800000000E+01 0. -1.
        -11    1    1    2    0    0 -0.62522542309E+02 -0.51990091970E+02 -0.38483045004E+03  0.39332748853E+03  0.00000000000E+00 0.  1.
         11    1    1    2    0    0 -0.63344062083E+01  0.98298711413E+01 -0.17877494356E+01  0.11829924628E+02  0.00000000000E+00 0. -1.
</event>
<event>
 7    1  0.2522928E-009  0.8290737E+02  0.7561462E-02  0.1320997E+00
          2   -1    0    0  501    0  0.00000000000E+00  0.00000000000E+00  0.17044856401E+03  0.17044856401E+03  0.00000000000E+00 0. -1.
         -2   -1    0    0    0  501 -0.00000000000E+00 -0.00000000000E+00 -0.15596349484E+03  0.15596349484E+03  0.00000000000E+00 0.  1.
         25    2    1    2    0    0 -0.53439173759E+01  0.28759277303E+02 -0.10914505090E+03  0.16856598698E+03  0.12508475665E+03 0.  0.
          5    1    3    3  502    0  0.32049391231E+02 -0.27884711436E+02 -0.87238788149E+02  0.97122598647E+02  0.41800000000E+01 0. -1.
         -5    1    3    3    0  502 -0.37393308607E+02  0.56643988739E+02 -0.21906262756E+02  0.71443388335E+02  0.41800000000E+01 0. -1.
        -11    1    1    2    0    0 -0.69966466801E+00  0.12955952268E+02 -0.10850851811E+02  0.16914112890E+02  0.00000000000E+00 0.  1.
         11    1    1    2    0    0  0.60435820439E+01 -0.41715229571E+02  0.13448097189E+03  0.14093195898E+03  0.00000000000E+00 0. -1.
</event>
<event>
 7    1  0.2522928E-009  0.8923024E+02  0.7561462E-02  0.1304727E+00
         -3   -1    0    0    0  501 -0.00000000000E+00  0.00000000000E+00  0.25241228686E+03  0.25241228686E+03  0.00000000000E+00 0.  1.
          3   -1    0    0  501    0  0.00000000000E+00 -0.00000000000E+00 -0.66719409342E+02  0.66719409342E+02  0.00000000000E+00 0. -1.
         25    2    1    2    0    0  0.39281991165E+02 -0.30809281974E+02  0.16846238853E+03  0.21568539195E+03  0.12509326628E+03 0.  0.
          5    1    3    3  502    0 -0.11232964282E+02  0.32274163226E+02  0.11157705607E+03  0.11676777355E+03  0.41800000000E+01 0.  1.
         -5    1    3    3    0  502  0.50514955447E+02 -0.63083445200E+02  0.56885332460E+02  0.98917618406E+02  0.41800000000E+01 0.  1.
        -11    1    1    2    0    0 -0.46978482525E+02  0.23644822139E+02 -0.26202186930E+02  0.58758914509E+02  0.00000000000E+00 0. -1.
         11    1    1    2    0    0  0.76964913602E+01  0.71644598341E+01  0.43432675924E+02  0.44687389742E+02  0.00000000000E+00 0.  1.
</event>
<event>
 7    1  0.2522928E-009  0.5683989E+02  0.7561462E-02  0.1411593E+00
          2   -1    0    0  501    0  0.00000000000E+00  0.00000000000E+00  0.93706528941E+02  0.93706528941E+02  0.00000000000E+00 0. -1.
         -2   -1    0    0    0  501 -0.00000000000E+00 -0.00000000000E+00 -0.13244677020E+03  0.13244677020E+03  0.00000000000E+00 0.  1.
         25    2    1    2    0    0  0.23011046196E+02  0.89957589981E+00 -0.37154872511E+02  0.13250440779E+03  0.12508643431E+03 0.  0.
          5    1    3    3  502    0 -0.22358987171E+00  0.35132403166E+02  0.34653578562E+02  0.49524525760E+02  0.41800000000E+01 0.  1.
         -5    1    3    3    0  502  0.23234636067E+02 -0.34232827266E+02 -0.71808451073E+02  0.82979882027E+02  0.41800000000E+01 0.  1.
        -11    1    1    2    0    0 -0.22737928300E+02  0.10687806176E+02 -0.43460010972E+02  0.50199752369E+02  0.00000000000E+00 0.  1.
         11    1    1    2    0    0 -0.27311789536E+00 -0.11587382076E+02  0.41874642226E+02  0.43449138983E+02  0.00000000000E+00 0. -1.
</event>
<event>
 7    1  0.2522928E-009  0.1947280E+03  0.7561462E-02  0.1154265E+00
         -1   -1    0    0    0  501 -0.00000000000E+00  0.00000000000E+00  0.80670301290E+02  0.80670301290E+02  0.00000000000E+00 0.  1.
          1   -1    0    0  501    0  0.00000000000E+00 -0.00000000000E+00 -0.62466303321E+03  0.62466303321E+03  0.00000000000E+00 0. -1.
         25    2    1    2    0    0  0.17291536030E+03 -0.56899820743E+02 -0.16666947487E+03  0.27672357380E+03  0.12513956614E+03 0.  0.
          5    1    3    3  502    0  0.13922491099E+03 -0.53424828299E+01 -0.16358235030E+03  0.21491574092E+03  0.41800000000E+01 0.  1.
         -5    1    3    3    0  502  0.33690449303E+02 -0.51557337913E+02 -0.30871245676E+01  0.61807832877E+02  0.41800000000E+01 0.  1.
        -11    1    1    2    0    0 -0.65520589220E+02  0.46693786444E+02 -0.85111397990E+02  0.11712048229E+03  0.00000000000E+00 0.  1.
         11    1    1    2    0    0 -0.10739477108E+03  0.10206034299E+02 -0.29221185906E+03  0.31148927841E+03  0.00000000000E+00 0. -1.
</event>
<event>
 7    1  0.2522928E-009  0.7454758E+02  0.7561462E-02  0.1345278E+00
         -2   -1    0    0    0  501 -0.00000000000E+00  0.00000000000E+00  0.34786769430E+02  0.34786769430E+02  0.00000000000E+00 0.  1.
          2   -1    0    0  501    0  0.00000000000E+00 -0.00000000000E+00 -0.42685718276E+03  0.42685718276E+03  0.00000000000E+00 0. -1.
         25    2    1    2    0    0  0.41191643268E+02 -0.55590330117E+01 -0.14842138835E+03  0.19850575672E+03  0.12509185669E+03 0.  0.
          5    1    3    3  502    0  0.49143699228E+02  0.15234623190E+02 -0.34067774809E+01  0.51732730939E+02  0.41800000000E+01 0. -1.
         -5    1    3    3    0  502 -0.79520559607E+01 -0.20793656202E+02 -0.14501461087E+03  0.14677302579E+03  0.41800000000E+01 0. -1.
        -11    1    1    2    0    0 -0.47624682181E+02 -0.17611239503E+02 -0.22989532178E+03  0.23543603184E+03  0.00000000000E+00 0. -1.
         11    1    1    2    0    0  0.64330389134E+01  0.23170272515E+02 -0.13753703196E+02  0.27702163628E+02  0.00000000000E+00 0.  1.
</event>
<event>
 7    1  0.2522928E-009  0.9550895E+02  0.7561462E-02  0.1290034E+00
          1   -1    0    0  501    0  0.00000000000E+00  0.00000000000E+00  0.11873006865E+03  0.11873006865E+03  0.00000000000E+00 0. -1.
         -1   -1    0    0    0  501 -0.00000000000E+00 -0.00000000000E+00 -0.16355663310E+03  0.16355663310E+03  0.00000000000E+00 0.  1.
         25    2    1    2    0    0 -0.29228496157E+02 -0.39293250614E+02  0.47921300364E+02  0.14262466853E+03  0.12508829088E+03 0.  0.
          5    1    3    3  502    0  0.23274412073E+01  0.32338866205E+02 -0.20491884928E+02  0.38582496004E+02  0.41800000000E+01 0.  1.
         -5    1    3    3    0  502 -0.31555937365E+02 -0.71632116819E+02  0.68413185291E+02  0.10404217253E+03  0.41800000000E+01 0.  1.
        -11    1    1    2    0    0  0.37103039265E+02  0.52665179648E+02 -0.10269513322E+03  0.12122931600E+03  0.00000000000E+00 0.  1.
         11    1    1    2    0    0 -0.78745431079E+01 -0.13371929034E+02  0.99472684131E+01  0.18432717220E+02  0.00000000000E+00 0. -1.
</event>
<event>
 7    1  0.2522928E-009  0.1064317E+03  0.7561462E-02  0.1267324E+00
          2   -1    0    0  501    0  0.00000000000E+00  0.00000000000E+00  0.22828414654E+03  0.22828414654E+03  0.00000000000E+00 0. -1.
         -2   -1    0    0    0  501 -0.00000000000E+00 -0.00000000000E+00 -0.83536196088E+02  0.83536196088E+02  0.00000000000E+00 0.  1.
         25    2    1    2    0    0 -0.75904843895E+02 -0.51835600613E+02  0.74666334588E+02  0.17225166885E+03  0.12508837309E+03 0.  0.
          5    1    3    3  502    0 -0.71176609910E+00  0.48104179379E+01  0.77703555497E+02  0.77967696315E+02  0.41800000000E+01 0.  1.
         -5    1    3    3    0  502 -0.75193077796E+02 -0.56646018550E+02 -0.30372209089E+01  0.94283972534E+02  0.41800000000E+01 0.  1.
        -11    1    1    2    0    0  0.36658690602E+01  0.38601005409E+02  0.50299138689E+02  0.63509680895E+02  0.00000000000E+00 0. -1.
         11    1    1    2    0    0  0.72238974834E+02  0.13234595204E+02  0.19782477174E+02  0.76058992884E+02  0.00000000000E+00 0.  1.
</event>
<event>
 7    1  0.2522928E-009  0.1075962E+03  0.7561462E-02  0.1265087E+00
          1   -1    0    0  501    0  0.00000000000E+00  0.00000000000E+00  0.21993409520E+02  0.21993409520E+02  0.00000000000E+00 0. -1.
         -1   -1    0    0    0  501 -0.00000000000E+00 -0.00000000000E+00 -0.77958607571E+03  0.77958607571E+03  0.00000000000E+00 0.  1.
         25    2    1    2    0    0 -0.41202481296E+02 -0.43143397472E+02 -0.29373895667E+03  0.32479093575E+03  0.12509028767E+03 0.  0.
          5    1    3    3  502    0  0.13201224252E+02  0.25037958046E+02 -0.17540578966E+03  0.17772404201E+03  0.41800000000E+01 0. -1.
         -5    1    3    3    0  502 -0.54403705548E+02 -0.68181355518E+02 -0.11833316701E+03  0.14706689374E+03  0.41800000000E+01 0. -1.
        -11    1    1    2    0    0  0.65262562387E+02  0.29841388962E+02 -0.41094218632E+03  0.41716086950E+03  0.00000000000E+00 0.  1.
         11    1    1    2    0    0 -0.24060081091E+02  0.13302008510E+02 -0.52911523208E+02  0.59627679988E+02  0.00000000000E+00 0. -1.
</event>
<event>
 7    1  0.2522928E-009  0.9989465E+02  0.7561462E-02  0.1280518E+00
         -1   -1    0    0    0  501 -0.00000000000E+00  0.00000000000E+00  0.69811039994E+01  0.69811039994E+01  0.00000000000E+00 0.  1.
          1   -1    0    0  501    0  0.00000000000E+00 -0.00000000000E+00 -0.24035270235E+04  0.24035270235E+04  0.00000000000E+00 0. -1.
         25    2    1    2    0    0 -0.77811376738E+01  0.97223406269E+01 -0.19694693515E+04  0.19734771497E+04  0.12508982287E+03 0.  0.
          5    1    3    3  502    0 -0.23167180269E+02  0.55768613373E+02 -0.57931940783E+03  0.58247343731E+03  0.41800000000E+01 0. -1.
         -5    1    3    3    0  502  0.15386042595E+02 -0.46046272746E+02 -0.13901499437E+04  0.13910037124E+04  0.41800000000E+01 0. -1.
        -11    1    1    2    0    0 -0.10196011689E+02 -0.47557544304E+02 -0.18132847911E+03  0.18773837118E+03  0.00000000000E+00 0. -1.
         11    1    1    2    0    0  0.17977149363E+02  0.37835203677E+02 -0.24574808885E+03  0.24929260661E+03  0.00000000000E+00 0.  1.
</event>
<event>
 7    1  0.2522928E-009  0.1861912E+03  0.7561462E-02  0.1161942E+00
          1   -1    0    0  501    0  0.00000000000E+00  0.00000000000E+00  0.26640826093E+03  0.26640826093E+03  0.00000000000E+00 0. -1.
         -1   -1    0    0    0  501 -0.00000000000E+00 -0.00000000000E+00 -0.24056474222E+03  0.24056474222E+03  0.00000000000E+00 0.  1.
         25    2    1    2    0    0  0.17980223723E+03 -0.90448914867E+01 -0.12729779700E+03  0.25350309273E+03  0.12509370218E+03 0.  0.
          5    1    3    3  502    0  0.12612937410E+03 -0.19391914206E+02 -0.14749352174E+03  0.19508069280E+03  0.41800000000E+01 0.  1.
         -5    1    3    3    0  502  0.53672863133E+02  0.10347022719E+02  0.20195724738E+02  0.58422399931E+02  0.41800000000E+01 0.  1.
        -11    1    1    2    0    0 -0.11813566335E+03 -0.23049664956E+02  0.13649901094E+03  0.18198709294E+03  0.00000000000E+00 0. -1.
         11    1    1    2    0    0 -0.61666573882E+02  0.32094556442E+02  0.16642304766E+02  0.71482817485E+02  0.00000000000E+00 0.  1.
</event>
<event>
 7    1  0.2522928E-009  0.9997755E+02  0.7561462E-02  0.1280343E+00
          2   -1    0    0  501    0  0.00000000000E+00  0.00000000000E+00  0.20648470860E+03  0.20648470860E+03  0.00000000000E+00 0. -1.
         -2   -1    0    0    0  501 -0.00000000000E+00 -0.00000000000E+00 -0.75834338410E+02  0.75834338410E+02  0.00000000000E+00 0.  1.
         25    2    1    2    0    0  0.59441460639E+02  0.17962041283E+01  0.51997185184E+02  0.14794727940E+03  0.12509267214E+03 0.  0.
          5    1    3    3  502    0 -0.26723151642E+02  0.38957841927E+01 -0.21363221995E+02  0.34686649048E+02  0.41800000000E+01 0.  1.
         -5    1    3    3    0  502  0.86164612281E+02 -0.20995800644E+01  0.73360407178E+02  0.11326063035E+03  0.41800000000E+01 0.  1.
        -11    1    1    2    0    0 -0.25928244893E+02 -0.32024260235E+02 -0.27481811378E+01  0.41296242279E+02  0.00000000000E+00 0.  1.
         11    1    1    2    0    0 -0.33513215746E+02  0.30228056107E+02  0.81401366144E+02  0.93075525331E+02  0.00000000000E+00 0. -1.
</event>
<event>
 7    1  0.2522928E-009  0.1074821E+03  0.7561462E-02  0.1265305E+00
         -2   -1    0    0    0  501 -0.00000000000E+00  0.00000000000E+00  0.15258145503E+02  0.15258145503E+02  0.00000000000E+00 0.  1.
          2   -1    0    0  501    0  0.00000000000E+00 -0.00000000000E+00 -0.97984137309E+03  0.97984137309E+03  0.00000000000E+00 0. -1.
         25    2    1    2    0    0  0.30355860374E+02  0.64950243356E+01 -0.73678111689E+03  0.74796900574E+03  0.12509019044E+03 0.  0.
          5    1    3    3  502    0 -0.15925369465E+02 -0.46147695677E+02 -0.45246185362E+03  0.45510705179E+03  0.41800000000E+01 0.  1.
         -5    1    3    3    0  502  0.46281229839E+02  0.52642720012E+02 -0.28431926327E+03  0.29286195395E+03  0.41800000000E+01 0.  1.
        -11    1    1    2    0    0 -0.26845474768E+02 -0.47517259003E+02 -0.12541550166E+03  0.13677579272E+03  0.00000000000E+00 0.  1.
         11    1    1    2    0    0 -0.35103856067E+01  0.41022234667E+02 -0.10238660904E+03  0.11035472013E+03  0.00000000000E+00 0. -1.
</event>
<event>
 7    1  0.2522928E-009  0.1832778E+03  0.7561462E-02  0.1164668E+00
          4   -1    0    0  501    0  0.00000000000E+00  0.00000000000E+00  0.57046411183E+02  0.57046411183E+02  0.00000000000E+00 0. -1.
         -4   -1    0    0    0  501 -0.00000000000E+00 -0.00000000000E+00 -0.77580899796E+03  0.77580899796E+03  0.00000000000E+00 0.  1.
         25    2    1    2    0    0  0.14190534738E+03  0.10336996388E+03 -0.29775026757E+03  0.36759575223E+03  0.12509571602E+03 0.  0.
          5    1    3    3  502    0  0.13552867816E+03  0.10188286131E+03 -0.30984142958E+03  0.35322418365E+03  0.41800000000E+01 0.  1.
         -5    1    3    3    0  502  0.63766692254E+01  0.14871025716E+01  0.12091162012E+02  0.14371568573E+02  0.41800000000E+01 0.  1.
        -11    1    1    2    0    0 -0.40081800508E+02 -0.72398721584E+02 -0.11820629550E+03  0.14429433085E+03  0.00000000000E+00 0. -1.
         11    1    1    2    0    0 -0.10182354687E+03 -0.30971242295E+02 -0.30280602370E+03  0.32096532606E+03  0.00000000000E+00 0.  1.
</event>
<event>
 7    1  0.2522928E-009  0.1145145E+03  0.7561462E-02  0.1252431E+00
         -2   -1    0    0    0  501 -0.00000000000E+00  0.00000000000E+00  0.21193494924E+03  0.21193494924E+03  0.00000000000E+00 0.  1.
          2   -1    0    0  501    0  0.00000000000E+00 -0.00000000000E+00 -0.84821935038E+02  0.84821935038E+02  0.00000000000E+00 0. -1.
         25    2    1    2    0    0  0.31168318566E+02  0.75161221255E+02  0.65898933654E+01  0.14938166936E+03  0.12510309022E+03 0.  0.
          5    1    3    3  502    0  0.99671234257E+01 -0.32586245880E+02 -0.14868374012E+02  0.37413205098E+02  0.41800000000E+01 0.  1.
         -5    1    3    3    0  502  0.21201195141E+02  0.10774746714E+03  0.21458267377E+02  0.11196846426E+03  0.41800000000E+01 0.  1.
        -11    1    1    2    0    0 -0.93385981038E+01 -0.52554916963E+02  0.77018438590E+02  0.93707356138E+02  0.00000000000E+00 0.  1.
         11    1    1    2    0    0 -0.21829720463E+02 -0.22606304292E+02  0.43504682247E+02  0.53667858785E+02  0.00000000000E+00 0. -1.
</event>
<event>
 7    1  0.2522928E-009  0.1265931E+03  0.7561462E-02  0.1232600E+00
          4   -1    0    0  501    0  0.00000000000E+00  0.00000000000E+00  0.97934274192E+02  0.97934274192E+02  0.00000000000E+00 0.  1.
         -4   -1    0    0    0  501 -0.00000000000E+00 -0.00000000000E+00 -0.16814230920E+03  0.16814230920E+03  0.00000000000E+00 0. -1.
         25    2    1    2    0    0 -0.58482281441E+02  0.38237237589E+02 -0.22562288842E+02  0.14504695912E+03  0.12508916776E+03 0.  0.
          5    1    3    3  502    0  0.20369599221E+02  0.57539812768E+02 -0.17340392169E+02  0.63591762252E+02  0.41800000000E+01 0.  1.
         -5    1    3    3    0  502 -0.78851880662E+02 -0.19302575178E+02 -0.52218966734E+01  0.81455196871E+02  0.41800000000E+01 0.  1.
        -11    1    1    2    0    0 -0.20878692254E+02 -0.20782264757E+02 -0.75149505164E+01  0.30402249915E+02  0.00000000000E+00 0.  1.
         11    1    1    2    0    0  0.79360973695E+02 -0.17454972832E+02 -0.40130795646E+02  0.90627374350E+02  0.00000000000E+00 0. -1.
</event>
<event>
 7    1  0.2522928E-009  0.2236486E+03  0.7561462E-02  0.1131192E+00
         -1   -1    0    0    0  501 -0.00000000000E+00  0.00000000000E+00  0.19543249341E+03  0.19543249341E+03  0.00000000000E+00 0.  1.
          1   -1    0    0  501    0  0.00000000000E+00 -0.00000000000E+00 -0.27991857010E+03  0.27991857010E+03  0.00000000000E+00 0. -1.
         25    2    1    2    0    0 -0.19565758469E+03  0.60050679884E+02 -0.11834187871E+02  0.24016046262E+03  0.12509606389E+03 0.  0.
          5    1    3    3  502    0 -0.46380397889E+02  0.71653743874E+02  0.18248842900E+02  0.87383596783E+02  0.41800000000E+01 0.  1.
         -5    1    3    3    0  502 -0.14927718680E+03 -0.11603063990E+02 -0.30083030771E+02  0.15277686584E+03  0.41800000000E+01 0.  1.
        -11    1    1    2    0    0  0.12321775946E+03 -0.92245530328E+01 -0.47581748934E+01  0.12365415016E+03  0.00000000000E+00 0. -1.
         11    1    1    2    0    0  0.72439825238E+02 -0.50826126851E+02 -0.67893713920E+02  0.11153645073E+03  0.00000000000E+00 0.  1.
</event>
<event>
 7    1  0.2522928E-009  0.8746791E+02  0.7561462E-02  0.1309102E+00
         -1   -1    0    0    0  501 -0.00000000000E+00  0.00000000000E+00  0.55579825066E+03  0.55579825066E+03  0.00000000000E+00 0.  1.
          1   -1    0    0  501    0  0.00000000000E+00 -0.00000000000E+00 -0.40615400134E+02  0.40615400134E+02  0.00000000000E+00 0. -1.
         25    2    1    2    0    0 -0.41672783393E+02  0.38047855914E+02  0.10706662774E+03  0.17405631492E+03  0.12509227704E+03 0.  0.
          5    1    3    3  502    0 -0.87041885007E+01 -0.96283241971E+01  0.11464110368E+03  0.11544922077E+03  0.41800000000E+01 0.  1.
         -5    1    3    3    0  502 -0.32968594893E+02  0.47676180111E+02 -0.75744759421E+01  0.58607094152E+02  0.41800000000E+01 0.  1.
        -11    1    1    2    0    0 -0.52446559918E+01 -0.53523936572E+02  0.27849631697E+03  0.28364152864E+03  0.00000000000E+00 0.  1.
         11    1    1    2    0    0  0.46917439385E+02  0.15476080658E+02  0.12961990582E+03  0.13871580723E+03  0.00000000000E+00 0. -1.
</event>
<event>
 7    1  0.2522928E-009  0.2267860E+03  0.7561462E-02  0.1128923E+00
          1   -1    0    0  501    0  0.00000000000E+00  0.00000000000E+00  0.35995821557E+03  0.35995821557E+03  0.00000000000E+00 0. -1.
         -1   -1    0    0    0  501 -0.00000000000E+00 -0.00000000000E+00 -0.17778832128E+03  0.17778832128E+03  0.00000000000E+00 0.  1.
         25    2    1    2    0    0  0.14333802768E+03 -0.16976449546E+03  0.14887858152E+03  0.29526018549E+03  0.12509185026E+03 0.  0.
          5    1    3    3  502    0  0.96754141682E+02 -0.83651929830E+02  0.14275710569E+02  0.12876442680E+03  0.41800000000E+01 0.  1.
         -5    1    3    3    0  502  0.46583886002E+02 -0.86112565630E+02  0.13460287095E+03  0.16649575869E+03  0.41800000000E+01 0.  1.
        -11    1    1    2    0    0 -0.10788443379E+03  0.15579103376E+03 -0.34789758888E+01  0.18953100149E+03  0.00000000000E+00 0.  1.
         11    1    1    2    0    0 -0.35453593895E+02  0.13973461701E+02  0.36770288654E+02  0.52955349868E+02  0.00000000000E+00 0. -1.
</event>
<event>
 7    1  0.2522928E-009  0.2291694E+03  0.7561462E-02  0.1127226E+00
          2   -1    0    0  501    0  0.00000000000E+00  0.00000000000E+00  0.83221360213E+03  0.83221360213E+03  0.00000000000E+00 0. -1.
         -2   -1    0    0    0  501 -0.00000000000E+00 -0.00000000000E+00 -0.73885016504E+02  0.73885016504E+02  0.00000000000E+00 0.  1.
         25    2    1    2    0    0 -0.74944615096E+02  0.20566326534E+03  0.46366837760E+03  0.52777874358E+03  0.12509182123E+03 0.  0.
          5    1    3    3  502    0 -0.29374955341E+02  0.16677121479E+03  0.22478939309E+03  0.28146628524E+03  0.41800000000E+01 0.  1.
         -5    1    3    3    0  502 -0.45569659755E+02  0.38892050548E+02  0.23887898452E+03  0.24631245833E+03  0.41800000000E+01 0.  1.
        -11    1    1    2    0    0  0.36775099474E+02 -0.17798527076E+03  0.18690078429E+03  0.26069727218E+03  0.00000000000E+00 0.  1.
         11    1    1    2    0    0  0.38169515621E+02 -0.27677994577E+02  0.10775942372E+03  0.11762260288E+03  0.00000000000E+00 0. -1.
</event>
<event>
 6    1  0.2522928E-009  0.1305996E+03  0.7561462E-02  0.1226569E+00
          1   -1    0    0  501    0  0.00000000000E+00  0.00000000000E+00  0.40519415671E+02  0.40519415671E+02  0.00000000000E+00 0. -1.
         -1   -1    0    0    0  501 -0.00000000000E+00 -0.00000000000E+00 -0.70650581480E+03  0.70650581480E+03  0.00000000000E+00 0.  1.
          5    1    1    2  502    0  0.10568825389E+03 -0.22776304608E+02 -0.38681163209E+03  0.40165840983E+03  0.41800000000E+01 0. -1.
         -5    1    1    2    0  502 -0.22264351555E+02  0.34157837955E+02 -0.20344909656E+03  0.20753666311E+03  0.41800000000E+01 0. -1.
        -11    1    1    2    0    0 -0.60746398289E+02  0.27753541196E+02 -0.60474221703E+02  0.90097255477E+02  0.00000000000E+00 0. -1.
         11    1    1    2    0    0 -0.22677504048E+02 -0.39135074543E+02 -0.15251448780E+02  0.47732902062E+02  0.00000000000E+00 0.  1.
</event>
<event>
 7    1  0.2522928E-009  0.1073558E+03  0.7561462E-02  0.1265546E+00
         -2   -1    0    0    0  501 -0.00000000000E+00  0.00000000000E+00  0.19525376663E+03  0.19525376663E+03  0.00000000000E+00 0.  1.
          2   -1    0    0  501    0  0.00000000000E+00 -0.00000000000E+00 -0.64904475743E+02  0.64904475743E+02  0.00000000000E+00 0. -1.
         25    2    1    2    0    0 -0.62898555589E+01  0.31128785690E+02  0.75961566196E+02  0.14975139888E+03  0.12508700311E+03 0.  0.
          5    1    3    3  502    0  0.58071911691E+02  0.55794139590E+01  0.44928854770E+02  0.73753313000E+02  0.41800000000E+01 0.  1.
         -5    1    3    3    0  502 -0.64361767250E+02  0.25549371731E+02  0.31032711427E+02  0.75998085883E+02  0.41800000000E+01 0.  1.
        -11    1    1    2    0    0 -0.37369757809E+02 -0.12844119646E+02  0.48726777301E+02  0.62735707809E+02  0.00000000000E+00 0.  1.
         11    1    1    2    0    0  0.43659613368E+02 -0.18284666044E+02  0.56609473912E+01  0.47671135682E+02  0.00000000000E+00 0. -1.
</event>
<event>
 7    1  0.2522928E-009  0.1076635E+03  0.7561462E-02  0.1264959E+00
         -1   -1    0    0    0  501 -0.00000000000E+00  0.00000000000E+00  0.36873459712E+03  0.36873459712E+03  0.00000000000E+00 0.  1.
          1   -1    0    0  501    0  0.00000000000E+00 -0.00000000000E+00 -0.34891214979E+02  0.34891214979E+02  0.00000000000E+00 0. -1.
         25    2    1    2    0    0 -0.11204659537E+02  0.27395227840E+02  0.21489453735E+03  0.25040776526E+03  0.12509334041E+03 0.  0.
          5    1    3    3  502    0 -0.19741695002E+02 -0.44351188740E+02  0.13010816318E+03  0.13893296581E+03  0.41800000000E+01 0. -1.
         -5    1    3    3    0  502  0.85370354653E+01  0.71746416580E+02  0.84786374178E+02  0.11147479945E+03  0.41800000000E+01 0. -1.
        -11    1    1    2    0    0  0.14748053158E+02 -0.59819224365E+02  0.92912929048E+02  0.11148388700E+03  0.00000000000E+00 0.  1.
         11    1    1    2    0    0 -0.35433936209E+01  0.32423996524E+02  0.26035915736E+02  0.41734159836E+02  0.00000000000E+00 0. -1.
</event>
<event>
 7    1  0.2522928E-009  0.7925740E+02  0.7561462E-02  0.1331172E+00
          1   -1    0    0  501    0  0.00000000000E+00  0.00000000000E+00  0.12997491938E+03  0.12997491938E+03  0.00000000000E+00 0. -1.
         -1   -1    0    0    0  501 -0.00000000000E+00 -0.00000000000E+00 -0.13443025349E+03  0.13443025349E+03  0.00000000000E+00 0.  1.
         25    2    1    2    0    0 -0.18509868478E+01 -0.34905058165E+02 -0.29198803452E+02  0.13312294020E+03  0.12508939941E+03 0.  0.
          5    1    3    3  502    0  0.86457078696E+01 -0.71199078748E+02 -0.52098933691E+02  0.88745863965E+02  0.41800000000E+01 0. -1.
         -5    1    3    3    0  502 -0.10496694717E+02  0.36294020582E+02  0.22900130239E+02  0.44377076233E+02  0.41800000000E+01 0. -1.
        -11    1    1    2    0    0 -0.15981757301E+02  0.14758594983E+02 -0.48553029952E+02  0.53203659741E+02  0.00000000000E+00 0.  1.
         11    1    1    2    0    0  0.17832744149E+02  0.20146463183E+02  0.73296499298E+02  0.78078572938E+02  0.00000000000E+00 0. -1.
</event>
<event>
 7    1  0.2522928E-009  0.8391775E+02  0.7561462E-02  0.1318287E+00
          1   -1    0    0  501    0  0.00000000000E+00  0.00000000000E+00  0.83472269691E+02  0.83472269691E+02  0.00000000000E+00 0. -1.
         -1   -1    0    0    0  501 -0.00000000000E+00 -0.00000000000E+00 -0.21963959089E+03  0.21963959089E+03  0.00000000000E+00 0.  1.
         25    2    1    2    0    0 -0.33925333176E+02  0.46614545574E+02 -0.13977637925E+03  0.19623674018E+03  0.12509027904E+03 0.  0.
          5    1    3    3  502    0 -0.16858257411E+02 -0.13053831829E+02  0.16989692430E+02  0.27581251190E+02  0.41800000000E+01 0. -1.
         -5    1    3    3    0  502 -0.17067075766E+02  0.59668377403E+02 -0.15676607168E+03  0.16865548899E+03  0.41800000000E+01 0. -1.
        -11    1    1    2    0    0  0.77861059251E+01 -0.55693613490E+02 -0.29680119293E+02  0.63587038855E+02  0.00000000000E+00 0.  1.
         11    1    1    2    0    0  0.26139227251E+02  0.90790679162E+01  0.33289177343E+02  0.43288081544E+02  0.00000000000E+00 0. -1.
</event>
<event>
 7    1  0.3368595E-009  0.1369337E+03  0.7561462E-02  0.1217515E+00
         -3   -1    0    0    0  501 -0.00000000000E+00  0.00000000000E+00  0.59417870755E+02  0.59417870755E+02  0.00000000000E+00 0.  1.
          3   -1    0    0  501    0  0.00000000000E+00 -0.00000000000E+00 -0.47049306460E+03  0.47049306460E+03  0.00000000000E+00 0. -1.
         25    2    1    2    0    0  0.37458260586E+02 -0.10229505188E+03 -0.31999943807E+03  0.36043646258E+03  0.12508958497E+03 0.  0.
          5    1    3    3  502    0 -0.44050649755E+02 -0.19052255094E+02 -0.75407146148E+02  0.89482726033E+02  0.41800000000E+01 0.  1.
         -5    1    3    3    0  502  0.81508910341E+02 -0.83242796790E+02 -0.24459229192E+03  0.27095373655E+03  0.41800000000E+01 0.  1.
        -11    1    1    2    0    0 -0.23638875295E+02  0.55613753341E+02  0.61496809378E+01  0.60741292064E+02  0.00000000000E+00 0.  1.
         11    1    1    2    0    0 -0.13819385291E+02  0.46681298543E+02 -0.97225436714E+02  0.10873318071E+03  0.00000000000E+00 0. -1.
</event>
<event>
 7    1  0.2522928E-009  0.1053833E+03  0.7561462E-02  0.1269366E+00
         -3   -1    0    0    0  501 -0.00000000000E+00  0.00000000000E+00  0.81617059015E+02  0.81617059015E+02  0.00000000000E+00 0.  1.
          3   -1    0    0  501    0  0.00000000000E+00 -0.00000000000E+00 -0.28458283614E+03  0.28458283614E+03  0.00000000000E+00 0. -1.
         25    2    1    2    0    0 -0.30967452234E+02  0.87331836638E+02 -0.50305555996E+02  0.16359670364E+03  0.12508956667E+03 0.  0.
          5    1    3    3  502    0 -0.86275472397E+01  0.78282631984E+02 -0.88309345670E+02  0.11840024482E+03  0.41800000000E+01 0.  1.
         -5    1    3    3    0  502 -0.22339904995E+02  0.90492046540E+01  0.38003789673E+02  0.45196458817E+02  0.41800000000E+01 0.  1.
        -11    1    1    2    0    0 -0.14491035541E+02 -0.95826361447E+01  0.74480707522E+01  0.18902137034E+02  0.00000000000E+00 0.  1.
         11    1    1    2    0    0  0.45458487775E+02 -0.77749200493E+02 -0.16010829188E+03  0.18370105448E+03  0.00000000000E+00 0. -1.
</event>
<event>
 7    1  0.2522928E-009  0.1108083E+03  0.7561462E-02  0.1259080E+00
          2   -1    0    0  501    0  0.00000000000E+00  0.00000000000E+00  0.23800317159E+04  0.23800317159E+04  0.00000000000E+00 0. -1.
         -2   -1    0    0    0  501 -0.00000000000E+00 -0.00000000000E+00 -0.98941049919E+01  0.98941049919E+01  0.00000000000E+00 0.  1.
         25    2    1    2    0    0  0.67979757661E+02 -0.30891318958E+02  0.18912398902E+04  0.18968423988E+04  0.12508893798E+03 0.  0.
          5    1    3    3  502    0  0.62787217013E+02 -0.57730013225E+02  0.17856641065E+04  0.17877048869E+04  0.41800000000E+01 0. -1.
         -5    1    3    3    0  502  0.51925406478E+01  0.26838694267E+02  0.10557578372E+03  0.10913751187E+03  0.41800000000E+01 0. -1.
        -11    1    1    2    0    0 -0.21615369250E+02  0.52972232342E+02  0.34431098316E+03  0.34903199669E+03  0.00000000000E+00 0. -1.
         11    1    1    2    0    0 -0.46364388411E+02 -0.22080913384E+02  0.13458673752E+03  0.14405142542E+03  0.00000000000E+00 0.  1.
</event>
<event>
 7    1  0.2522928E-009  0.9036810E+02  0.7561462E-02  0.1301963E+00
         -3   -1    0    0    0  501 -0.00000000000E+00  0.00000000000E+00  0.11098345153E+03  0.11098345153E+03  0.00000000000E+00 0.  1.
          3   -1    0    0  501    0  0.00000000000E+00 -0.00000000000E+00 -0.11636802655E+03  0.11636802655E+03  0.00000000000E+00 0. -1.
         25    2    1    2    0    0  0.28095274320E+02 -0.14738982116E+02  0.14483612800E+02  0.12986101247E+03  0.12509006950E+03 0.  0.
          5    1    3    3  502    0 -0.43627872836E+02  0.17869572502E+02 -0.75839662848E+01  0.47934349419E+02  0.41800000000E+01 0.  1.
         -5    1    3    3    0  502  0.71723147156E+02 -0.32608554618E+02  0.22067579085E+02  0.81926663053E+02  0.41800000000E+01 0.  1.
        -11    1    1    2    0    0 -0.39143606139E+02  0.44256001013E+01  0.27320976059E+02  0.47939999694E+02  0.00000000000E+00 0.  1.
         11    1    1    2    0    0  0.11048331819E+02  0.10313382015E+02 -0.47189163882E+02  0.49550465916E+02  0.00000000000E+00 0. -1.
</event>
<event>
 7    1  0.2522928E-009  0.9486561E+02  0.7561462E-02  0.1291479E+00
         -2   -1    0    0    0  501 -0.00000000000E+00  0.00000000000E+00  0.39543378200E+03  0.39543378200E+03  0.00000000000E+00 0. -1.
          2   -1    0    0  501    0  0.00000000000E+00 -0.00000000000E+00 -0.44397739471E+02  0.44397739471E+02  0.00000000000E+00 0.  1.
         25    2    1    2    0    0 -0.17040155046E+02  0.68575272815E+02  0.15546454344E+03  0.21168444208E+03  0.12509254104E+03 0.  0.
          5    1    3    3  502    0 -0.50983573571E+01 -0.44785296935E+01 -0.19821198674E+02  0.21363585674E+02  0.41800000000E+01 0.  1.
         -5    1    3    3    0  502 -0.11941797689E+02  0.73053802508E+02  0.17528574211E+03  0.19032085640E+03  0.41800000000E+01 0.  1.
        -11    1    1    2    0    0  0.44785911867E+02 -0.65991819421E+02  0.17839952294E+03  0.19541516808E+03  0.00000000000E+00 0. -1.
         11    1    1    2    0    0 -0.27745756822E+02 -0.25834533931E+01  0.17171976146E+02  0.32731911307E+02  0.00000000000E+00 0.  1.
</event>
<event>
 7    1  0.2522928E-009  0.1009930E+03  0.7561462E-02  0.1278222E+00
         -2   -1    0    0    0  501 -0.00000000000E+00  0.00000000000E+00  0.24834761288E+02  0.24834761288E+02  0.00000000000E+00 0.  1.
          2   -1    0    0  501    0  0.00000000000E+00 -0.00000000000E+00 -0.10106356652E+04  0.10106356652E+04  0.00000000000E+00 0. -1.
         25    2    1    2    0    0 -0.59211491939E+02  0.69268647521E+02 -0.72338115713E+03  0.73975098630E+03  0.12508827660E+03 0.  0.
          5    1    3    3  502    0 -0.62751615126E+02  0.72836630863E+02 -0.72626019257E+03  0.73260786217E+03  0.41800000000E+01 0.  1.
         -5    1    3    3    0  502  0.35401231870E+01 -0.35679833422E+01  0.28790354446E+01  0.71431241345E+01  0.41800000000E+01 0.  1.
        -11    1    1    2    0    0  0.42527542633E+02 -0.19609314124E+02 -0.22863801457E+03  0.23338478697E+03  0.00000000000E+00 0. -1.
         11    1    1    2    0    0  0.16683949306E+02 -0.49659333398E+02 -0.33781732178E+02  0.62334653178E+02  0.00000000000E+00 0.  1.
</event>
<event>
 7    1  0.2522928E-009  0.2039765E+03  0.7561462E-02  0.1146427E+00
          1   -1    0    0  501    0  0.00000000000E+00  0.00000000000E+00  0.44752623266E+03  0.44752623266E+03  0.00000000000E+00 0.  1.
         -1   -1    0    0    0  501 -0.00000000000E+00 -0.00000000000E+00 -0.10836245046E+03  0.10836245046E+03  0.00000000000E+00 0. -1.
         25    2    1    2    0    0  0.14834250333E+03  0.95264465356E+02  0.83361238359E+02  0.23168084708E+03  0.12508438028E+03 0.  0.
          5    1    3    3  502    0  0.16428784815E+03  0.10139289530E+03  0.59543686330E+02  0.20207409346E+03  0.41800000000E+01 0. -1.
         -5    1    3    3    0  502 -0.15945344822E+02 -0.61284299475E+01  0.23817552029E+02  0.29606753617E+02  0.41800000000E+01 0. -1.
        -11    1    1    2    0    0 -0.74053970255E+02  0.29569931518E+01  0.11849916166E+03  0.13976689748E+03  0.00000000000E+00 0.  1.
         11    1    1    2    0    0 -0.74288533073E+02 -0.98221458508E+02  0.13730338218E+03  0.18444093856E+03  0.00000000000E+00 0. -1.
</event>
<event>
 7    1  0.2522928E-009  0.7189128E+02  0.7561462E-02  0.1353777E+00
          2   -1    0    0  501    0  0.00000000000E+00  0.00000000000E+00  0.21575100726E+03  0.21575100726E+03  0.00000000000E+00 0. -1.
         -2   -1    0    0    0  501 -0.00000000000E+00 -0.00000000000E+00 -0.70668279907E+02  0.70668279907E+02  0.00000000000E+00 0.  1.
         25    2    1    2    0    0  0.20446865327E+02  0.33257357448E+02  0.13154956101E+03  0.18567851481E+03  0.12508835970E+03 0.  0.
          5    1    3    3  502    0  0.55330763994E+02  0.44912455715E+01  0.10846116860E+02  0.56716623506E+02  0.41800000000E+01 0.  1.
         -5    1    3    3    0  502 -0.34883898667E+02  0.28766111876E+02  0.12070344415E+03  0.12896189130E+03  0.41800000000E+01 0.  1.
        -11    1    1    2    0    0  0.18049875378E+01 -0.11301787765E+02 -0.38430806740E+02  0.40098819102E+02  0.00000000000E+00 0.  1.
         11    1    1    2    0    0 -0.22251852865E+02 -0.21955569682E+02  0.51963973087E+02  0.60641953259E+02  0.00000000000E+00 0. -1.
</event>
<event>
 7    1  0.2522928E-009  0.1361457E+03  0.7561462E-02  0.1218611E+00
         -1   -1    0    0    0  501 -0.00000000000E+00  0.00000000000E+00  0.10166032195E+03  0.10166032195E+03  0.00000000000E+00 0.  1.
          1   -1    0    0  501    0  0.00000000000E+00 -0.00000000000E+00 -0.23785143455E+03  0.23785143455E+03  0.00000000000E+00 0. -1.
         25    2    1    2    0    0 -0.97361680802E+02  0.51643425634E+02 -0.92276607461E+02  0.19054813777E+03  0.12508908914E+03 0.  0.
          5    1    3    3  502    0 -0.11044832135E+03  0.37880989544E+02 -0.11270930192E+03  0.16234118454E+03  0.41800000000E+01 0. -1.
         -5    1    3    3    0  502  0.13086640548E+02  0.13762436090E+02  0.20432694457E+02  0.28206953233E+02  0.41800000000E+01 0. -1.
        -11    1    1    2    0    0  0.64679293227E+02 -0.72561366964E+02 -0.50605283633E+02  0.10958767120E+03  0.00000000000E+00 0. -1.
         11    1    1    2    0    0  0.32682387575E+02  0.20917941330E+02  0.66907784849E+01  0.39375947529E+02  0.00000000000E+00 0.  1.
</event>
<event>
 7    1  0.2522928E-009  0.1216342E+03  0.7561462E-02  0.1240425E+00
          4   -1    0    0  501    0  0.00000000000E+00  0.00000000000E+00  0.66722991039E+03  0.66722991039E+03  0.00000000000E+00 0. -1.
         -4   -1    0    0    0  501 -0.00000000000E+00 -0.00000000000E+00 -0.35423623618E+02  0.35423623618E+02  0.00000000000E+00 0.  1.
         25    2    1    2    0    0  0.96199770896E+01  0.73978811252E+02  0.52358158724E+03  0.54345507382E+03  0.12506130613E+03 0.  0.
          5    1    3    3  502    0  0.58904865218E+01 -0.27747242713E+02  0.24786212800E+03  0.24951495788E+03  0.41800000000E+01 0.  1.
         -5    1    3    3    0  502  0.37294905678E+01  0.10172605397E+03  0.27571945924E+03  0.29394011594E+03  0.41800000000E+01 0.  1.
        -11    1    1    2    0    0 -0.24222379728E+02 -0.88719867103E+02  0.69533065200E+02  0.11529434355E+03  0.00000000000E+00 0. -1.
         11    1    1    2    0    0  0.14602402639E+02  0.14741055851E+02  0.38691634338E+02  0.43904116643E+02  0.00000000000E+00 0.  1.
</event>
<event>
 7    1  0.2522928E-009  0.1338603E+03  0.7561462E-02  0.1221838E+00
          2   -1    0    0  501    0  0.00000000000E+00  0.00000000000E+00  0.21613910213E+03  0.21613910213E+03  0.00000000000E+00 0. -1.
         -2   -1    0    0    0  501 -0.00000000000E+00 -0.00000000000E+00 -0.11187651137E+03  0.11187651137E+03  0.00000000000E+00 0.  1.
         25    2    1    2    0    0 -0.34388780610E+02  0.93384712415E+02  0.10952497324E+03  0.19376911339E+03  0.12508979493E+03 0.  0.
          5    1    3    3  502    0 -0.39898143590E+02 -0.20498714243E+02  0.39395833797E+02  0.59846163354E+02  0.41800000000E+01 0.  1.
         -5    1    3    3    0  502  0.55093629801E+01  0.11388342666E+03  0.70129139445E+02  0.13392295004E+03  0.41800000000E+01 0.  1.
        -11    1    1    2    0    0  0.61081877053E+01 -0.74090253825E+02 -0.40882568415E+02  0.84841381820E+02  0.00000000000E+00 0.  1.
         11    1    1    2    0    0  0.28280592905E+02 -0.19294458590E+02  0.35620185931E+02  0.49405118288E+02  0.00000000000E+00 0. -1.
</event>
<event>
 7    1  0.2522928E-009  0.9475239E+02  0.7561462E-02  0.1291735E+00
          2   -1    0    0  501    0  0.00000000000E+00  0.00000000000E+00  0.34123874186E+03  0.34123874186E+03  0.00000000000E+00 0.  1.
         -2   -1    0    0    0  501 -0.00000000000E+00 -0.00000000000E+00 -0.49059818495E+02  0.49059818495E+02  0.00000000000E+00 0. -1.
         25    2    1    2    0    0  0.87631804151E+01 -0.36104587189E+02  0.72083358497E+02  0.14907521925E+03  0.12508827233E+03 0.  0.
          5    1    3    3  502    0 -0.44744713928E+02 -0.55472925475E+02  0.52982855350E+02  0.88904388228E+02  0.41800000000E+01 0. -1.
         -5    1    3    3    0  502  0.53507894343E+02  0.19368338286E+02  0.19100503147E+02  0.60170831018E+02  0.41800000000E+01 0. -1.
        -11    1    1    2    0    0 -0.24408687256E+02  0.31977030797E+01  0.77997563118E+01  0.25823352165E+02  0.00000000000E+00 0. -1.
         11    1    1    2    0    0  0.15645506841E+02  0.32906884110E+02  0.21229580856E+03  0.21539998894E+03  0.00000000000E+00 0.  1.
</event>
<event>
 7    1  0.4402105E-009  0.1157240E+03  0.7561462E-02  0.1250323E+00
          1   -1    0    0  501    0  0.00000000000E+00  0.00000000000E+00  0.44940619168E+03  0.44940619168E+03  0.00000000000E+00 0. -1.
         -1   -1    0    0    0  501 -0.00000000000E+00 -0.00000000000E+00 -0.54368862657E+02  0.54368862657E+02  0.00000000000E+00 0.  1.
         25    2    1    2    0    0 -0.64446154442E+02 -0.86583566700E+02  0.25988040970E+03  0.30795257355E+03  0.12508772667E+03 0.  0.
          5    1    3    3  502    0 -0.39266621528E+02 -0.78540184819E+02  0.60337780427E+02  0.10662339492E+03  0.41800000000E+01 0.  1.
         -5    1    3    3    0  502 -0.25179532914E+02 -0.80433818814E+01  0.19954262927E+03  0.20132917863E+03  0.41800000000E+01 0.  1.
        -11    1    1    2    0    0  0.69274944922E+01  0.45669989182E+02  0.33603796851E+01  0.46314471210E+02  0.00000000000E+00 0.  1.
         11    1    1    2    0    0  0.57518659950E+02  0.40913577519E+02  0.13179653964E+03  0.14950800958E+03  0.00000000000E+00 0. -1.
</event>
<event>
 7    1  0.2522928E-009  0.2195508E+03  0.7561462E-02  0.1134218E+00
          2   -1    0    0  501    0  0.00000000000E+00  0.00000000000E+00  0.62315902332E+03  0.62315902332E+03  0.00000000000E+00 0. -1.
         -2   -1    0    0    0  501 -0.00000000000E+00 -0.00000000000E+00 -0.89298943374E+02  0.89298943374E+02  0.00000000000E+00 0.  1.
         25    2    1    2    0    0 -0.13935931122E+03 -0.15574959376E+03  0.26034685803E+03  0.35652319021E+03  0.12509734246E+03 0.  0.
          5    1    3    3  502    0 -0.45444178967E+02 -0.21443191859E+02  0.15167679186E+03  0.15983837295E+03  0.41800000000E+01 0. -1.
         -5    1    3    3    0  502 -0.93915132249E+02 -0.13430640190E+03  0.10867006617E+03  0.19668481725E+03  0.41800000000E+01 0. -1.
        -11    1    1    2    0    0  0.73062729716E+02  0.13793787739E+03  0.21528190064E+03  0.26591599657E+03  0.00000000000E+00 0.  1.
         11    1    1    2    0    0  0.66296581500E+02  0.17811716375E+02  0.58231321281E+02  0.90018779912E+02  0.00000000000E+00 0. -1.
</event>
<event>
 7    1  0.2522928E-009  0.1310853E+03  0.7561462E-02  0.1225854E+00
          4   -1    0    0  501    0  0.00000000000E+00  0.00000000000E+00  0.20397680759E+02  0.20397680759E+02  0.00000000000E+00 0. -1.
         -4   -1    0    0    0  501 -0.00000000000E+00 -0.00000000000E+00 -0.15281483411E+04  0.15281483411E+04  0.00000000000E+00 0.  1.
         25    2    1    2    0    0  0.10226460429E+03 -0.71552754682E+02 -0.10537723798E+04  0.10684855944E+04  0.12508953191E+03 0.  0.
          5    1    3    3  502    0  0.47098358015E+02 -0.85326119048E+01 -0.79529670737E+03  0.79674675145E+03  0.41800000000E+01 0.  1.
         -5    1    3    3    0  502  0.55166246273E+02 -0.63020142777E+02 -0.25847567247E+03  0.27173884298E+03  0.41800000000E+01 0.  1.
        -11    1    1    2    0    0 -0.77538289900E+02  0.71596787909E+02 -0.43819716160E+03  0.45072723334E+03  0.00000000000E+00 0.  1.
         11    1    1    2    0    0 -0.24726314388E+02 -0.44033227091E-01 -0.15781118913E+02  0.29333194103E+02  0.00000000000E+00 0. -1.
</event>
<event>
 7    1  0.2522928E-009  0.1671746E+03  0.7561462E-02  0.1180827E+00
         -1   -1    0    0    0  501 -0.00000000000E+00  0.00000000000E+00  0.11659447850E+03  0.11659447850E+03  0.00000000000E+00 0.  1.
          1   -1    0    0  501    0  0.00000000000E+00 -0.00000000000E+00 -0.49253545875E+03  0.49253545875E+03  0.00000000000E+00 0. -1.
         25    2    1    2    0    0 -0.13788596487E+03  0.32025820900E+02  0.84520266164E+01  0.18908558340E+03  0.12507489190E+03 0.  0.
          5    1    3    3  502    0 -0.10486626840E+03  0.61206094602E+02 -0.35635785645E+02  0.12661161828E+03  0.41800000000E+01 0. -1.
         -5    1    3    3    0  502 -0.33019696467E+02 -0.29180273703E+02  0.44087812261E+02  0.62473965122E+02  0.41800000000E+01 0. -1.
        -11    1    1    2    0    0  0.51998972632E+02  0.32364934057E+02 -0.15920283729E+03  0.17057820937E+03  0.00000000000E+00 0. -1.
         11    1    1    2    0    0  0.85886992240E+02 -0.64390754957E+02 -0.22519016958E+03  0.24946614447E+03  0.00000000000E+00 0.  1.
</event>
<event>
 7    1  0.2522928E-009  0.1929855E+03  0.7561462E-02  0.1155796E+00
          2   -1    0    0  501    0  0.00000000000E+00  0.00000000000E+00  0.92853554868E+02  0.92853554868E+02  0.00000000000E+00 0. -1.
         -2   -1    0    0    0  501 -0.00000000000E+00 -0.00000000000E+00 -0.48208985166E+03  0.48208985166E+03  0.00000000000E+00 0.  1.
         25    2    1    2    0    0  0.27467234109E+02 -0.16326909244E+03 -0.30646649837E+03  0.37010856093E+03  0.12508951498E+03 0.  0.
          5    1    3    3  502    0  0.65786408234E+02 -0.14388266376E+03 -0.19870395798E+03  0.25402914745E+03  0.41800000000E+01 0. -1.
         -5    1    3    3    0  502 -0.38319174125E+02 -0.19386428681E+02 -0.10776254039E+03  0.11607941348E+03  0.41800000000E+01 0. -1.
        -11    1    1    2    0    0 -0.49022092558E+02  0.52965597420E+02 -0.15383550578E+02  0.73791420214E+02  0.00000000000E+00 0.  1.
         11    1    1    2    0    0  0.21554858449E+02  0.11030349502E+03 -0.67386247842E+02  0.13104342538E+03  0.00000000000E+00 0. -1.
</event>
<event>
 7    1  0.2522928E-009  0.1809327E+03  0.7561462E-02  0.1166903E+00
          2   -1    0    0  501    0  0.00000000000E+00  0.00000000000E+00  0.11980050728E+04  0.11980050728E+04  0.00000000000E+00 0. -1.
         -2   -1    0    0    0  501 -0.00000000000E+00 -0.00000000000E+00 -0.27942874898E+02  0.27942874898E+02  0.00000000000E+00 0.  1.
         25    2    1    2    0    0 -0.14312681999E+03 -0.20057966007E+02  0.53413742825E+03  0.56730675300E+03  0.12508617488E+03 0.  0.
          5    1    3    3  502    0 -0.14170358024E+03  0.26006422851E+02  0.38195857996E+03  0.40824755711E+03  0.41800000000E+01 0. -1.
         -5    1    3    3    0  502 -0.14232397577E+01 -0.46064388858E+02  0.15217884829E+03  0.15905919589E+03  0.41800000000E+01 0. -1.
        -11    1    1    2    0    0  0.15271816238E+03  0.40190340844E+01  0.57026147976E+03  0.59037034567E+03  0.00000000000E+00 0.  1.
         11    1    1    2    0    0 -0.95913423851E+01  0.16038931922E+02  0.65663289926E+02  0.68270849049E+02  0.00000000000E+00 0. -1.
</event>
<event>
 7    1  0.2522928E-009  0.1266891E+03  0.7561462E-02  0.1232453E+00
          1   -1    0    0  501    0  0.00000000000E+00  0.00000000000E+00  0.61603132675E+03  0.61603132675E+03  0.00000000000E+00 0. -1.
         -1   -1    0    0    0  501 -0.00000000000E+00 -0.00000000000E+00 -0.26719823803E+02  0.26719823803E+02  0.00000000000E+00 0.  1.
         25    2    1    2    0    0  0.27073993898E+02  0.62622807345E+02  0.30353751157E+03  0.33531613136E+03  0.12508904779E+03 0.  0.
          5    1    3    3  502    0  0.30863198482E+02 -0.32358321917E+02  0.70350596051E+02  0.83464224567E+02  0.41800000000E+01 0.  1.
         -5    1    3    3    0  502 -0.37892045835E+01  0.94981129262E+02  0.23318691552E+03  0.25185190679E+03  0.41800000000E+01 0.  1.
        -11    1    1    2    0    0 -0.37543739169E+02  0.10867977185E+02  0.10237071907E+03  0.10957832542E+03  0.00000000000E+00 0.  1.
         11    1    1    2    0    0  0.10469745271E+02 -0.73490784530E+02  0.18340327231E+03  0.19785669378E+03  0.00000000000E+00 0. -1.
</event>
<event>
 7    1  0.2522928E-009  0.1225478E+03  0.7561462E-02  0.1238952E+00
          1   -1    0    0  501    0  0.00000000000E+00  0.00000000000E+00  0.34297869030E+02  0.34297869030E+02  0.00000000000E+00 0. -1.
         -1   -1    0    0    0  501 -0.00000000000E+00 -0.00000000000E+00 -0.78424195829E+03  0.78424195829E+03  0.00000000000E+00 0.  1.
         25    2    1    2    0    0 -0.81578836360E+02 -0.88831905858E+02 -0.45912023326E+03  0.49090088871E+03  0.12508429122E+03 0.  0.
          5    1    3    3  502    0 -0.37500170941E+02 -0.61897078307E+02 -0.41936283783E+03  0.42558215808E+03  0.41800000000E+01 0.  1.
         -5    1    3    3    0  502 -0.44078665420E+02 -0.26934827551E+02 -0.39757395434E+02  0.65318730637E+02  0.41800000000E+01 0.  1.
        -11    1    1    2    0    0  0.68170597921E+02  0.77571965792E+02 -0.29235971936E+03  0.31006264819E+03  0.00000000000E+00 0.  1.
         11    1    1    2    0    0  0.13408238439E+02  0.11259940066E+02  0.15358633660E+01  0.17576290411E+02  0.00000000000E+00 0. -1.
</event>
<event>
 7    1  0.2522928E-009  0.1712012E+03  0.7561462E-02  0.1176601E+00
         -1   -1    0    0    0  501 -0.00000000000E+00  0.00000000000E+00  0.71532764322E+02  0.71532764322E+02  0.00000000000E+00 0.  1.
          1   -1    0    0  501    0  0.00000000000E+00 -0.00000000000E+00 -0.50641580767E+03  0.50641580767E+03  0.00000000000E+00 0. -1.
         25    2    1    2    0    0 -0.13645047185E+03 -0.74322544889E+02 -0.25520714208E+03  0.32391846585E+03  0.12509962111E+03 0.  0.
          5    1    3    3  502    0 -0.11873992690E+03 -0.19672317525E+02 -0.23281438429E+03  0.26211863774E+03  0.41800000000E+01 0. -1.
         -5    1    3    3    0  502 -0.17710544954E+02 -0.54650227364E+02 -0.22392757794E+02  0.61799828116E+02  0.41800000000E+01 0. -1.
        -11    1    1    2    0    0  0.20376660585E+02  0.37357770830E+02 -0.99440338474E+02  0.10816280439E+03  0.00000000000E+00 0. -1.
         11    1    1    2    0    0  0.11607381127E+03  0.36964774059E+02 -0.80235562794E+02  0.14586730175E+03  0.00000000000E+00 0.  1.
</event>
<event>
 7    1  0.2522928E-009  0.3392796E+03  0.7561462E-02  0.1067103E+00
         -1   -1    0    0    0  501 -0.00000000000E+00  0.00000000000E+00  0.40598346164E+02  0.40598346164E+02  0.00000000000E+00 0.  1.
          1   -1    0    0  501    0  0.00000000000E+00 -0.00000000000E+00 -0.31135860583E+04  0.31135860583E+04  0.00000000000E+00 0. -1.
         25    2    1    2    0    0  0.18391918073E+03 -0.28351518317E+03 -0.16171372845E+04  0.16568005537E+04  0.12509178113E+03 0.  0.
          5    1    3    3  502    0  0.62709707317E+02 -0.11671302374E+03 -0.92943838818E+03  0.93884377142E+03  0.41800000000E+01 0.  1.
         -5    1    3    3    0  502  0.12120947342E+03 -0.16680215943E+03 -0.68769889634E+03  0.71795678231E+03  0.41800000000E+01 0.  1.
        -11    1    1    2    0    0 -0.79127921000E+02  0.91098337141E+02 -0.70372041644E+03  0.71399058777E+03  0.00000000000E+00 0.  1.
         11    1    1    2    0    0 -0.10479125973E+03  0.19241684603E+03 -0.75213001117E+03  0.78339326296E+03  0.00000000000E+00 0. -1.
</event>
<event>
 7    1  0.2522928E-009  0.1135164E+03  0.7561462E-02  0.1254193E+00
         -2   -1    0    0    0  501 -0.00000000000E+00  0.00000000000E+00  0.14140205958E+02  0.14140205958E+02  0.00000000000E+00 0.  1.
          2   -1    0    0  501    0  0.00000000000E+00 -0.00000000000E+00 -0.17512460147E+04  0.17512460147E+04  0.00000000000E+00 0. -1.
         25    2    1    2    0    0 -0.16098637469E+02  0.73525546983E+02 -0.13794396325E+04  0.13871384922E+04  0.12503729373E+03 0.  0.
          5    1    3    3  502    0 -0.58451261240E+02  0.82366908789E+02 -0.10471856789E+04  0.10520533143E+04  0.41800000000E+01 0. -1.
         -5    1    3    3    0  502  0.42352623772E+02 -0.88413618058E+01 -0.33225395356E+03  0.33508517794E+03  0.41800000000E+01 0. -1.
        -11    1    1    2    0    0 -0.85857815323E+01 -0.57086062926E+01  0.27549512456E+01  0.10672093829E+02  0.00000000000E+00 0.  1.
         11    1    1    2    0    0  0.24684419001E+02 -0.67816940691E+02 -0.36042112748E+03  0.36757563456E+03  0.00000000000E+00 0. -1.
</event>
<event>
 7    1  0.2522928E-009  0.1336122E+03  0.7561462E-02  0.1222192E+00
          1   -1    0    0  501    0  0.00000000000E+00  0.00000000000E+00  0.89917500071E+03  0.89917500071E+03  0.00000000000E+00 0. -1.
         -1   -1    0    0    0  501 -0.00000000000E+00 -0.00000000000E+00 -0.21255586843E+02  0.21255586843E+02  0.00000000000E+00 0.  1.
         25    2    1    2    0    0  0.83671880505E+02 -0.95982272933E+01  0.53312836684E+03  0.55404682132E+03  0.12509562397E+03 0.  0.
          5    1    3    3  502    0  0.44126438571E+02 -0.63263458264E+02  0.20236041261E+03  0.21660243933E+03  0.41800000000E+01 0.  1.
         -5    1    3    3    0  502  0.39545441934E+02  0.53665230971E+02  0.33076795423E+03  0.33744438200E+03  0.41800000000E+01 0.  1.
        -11    1    1    2    0    0 -0.93511058614E+01  0.41329997141E+02  0.13816788377E+03  0.14451981162E+03  0.00000000000E+00 0. -1.
         11    1    1    2    0    0 -0.74320774643E+02 -0.31731769848E+02  0.20662316325E+03  0.22186395461E+03  0.00000000000E+00 0.  1.
</event>
<event>
 7    1  0.2522928E-009  0.9726109E+02  0.7561462E-02  0.1286163E+00
          2   -1    0    0  501    0  0.00000000000E+00  0.00000000000E+00  0.11191378067E+03  0.11191378067E+03  0.00000000000E+00 0. -1.
         -2   -1    0    0    0  501 -0.00000000000E+00 -0.00000000000E+00 -0.12328014753E+03  0.12328014753E+03  0.00000000000E+00 0.  1.
         25    2    1    2    0    0  0.31631004087E+02 -0.80477727781E+01 -0.40005470747E+02  0.13532652843E+03  0.12509014566E+03 0.  0.
          5    1    3    3  502    0  0.65780235593E+02 -0.19308372822E+02  0.14209013604E+02  0.70137159362E+02  0.41800000000E+01 0.  1.
         -5    1    3    3    0  502 -0.34149231506E+02  0.11260600044E+02 -0.54214484351E+02  0.65189369066E+02  0.41800000000E+01 0.  1.
        -11    1    1    2    0    0  0.18051036525E+02 -0.24362000167E+02 -0.63778732753E+01  0.30984257927E+02  0.00000000000E+00 0.  1.
         11    1    1    2    0    0 -0.49682040612E+02  0.32409772945E+02  0.35016977164E+02  0.68883141852E+02  0.00000000000E+00 0. -1.
</event>
<event>
 7    1  0.2522928E-009  0.9372245E+02  0.7561462E-02  0.1294080E+00
         -1   -1    0    0    0  501 -0.00000000000E+00  0.00000000000E+00  0.63571337770E+02  0.63571337770E+02  0.00000000000E+00 0.  1.
          1   -1    0    0  501    0  0.00000000000E+00 -0.00000000000E+00 -0.20830746571E+03  0.20830746571E+03  0.00000000000E+00 0. -1.
         25    2    1    2    0    0  0.12504076241E+02 -0.24741866456E+02 -0.59540273910E+02  0.14128569222E+03  0.12509232882E+03 0.  0.
          5    1    3    3  502    0  0.14080048596E+01  0.45554607662E+02 -0.52501260511E+02  0.69649547825E+02  0.41800000000E+01 0.  1.
         -5    1    3    3    0  502  0.11096071382E+02 -0.70296474118E+02 -0.70390133990E+01  0.71636144390E+02  0.41800000000E+01 0.  1.
        -11    1    1    2    0    0  0.26665790336E+02  0.85475364161E+01  0.72225247368E+01  0.28918672456E+02  0.00000000000E+00 0.  1.
         11    1    1    2    0    0 -0.39169866577E+02  0.16194330039E+02 -0.92418378767E+02  0.10167443881E+03  0.00000000000E+00 0. -1.
</event>
<event>
 7    1  0.2522928E-009  0.1428706E+03  0.7561462E-02  0.1209518E+00
          1   -1    0    0  501    0  0.00000000000E+00  0.00000000000E+00  0.56948545610E+03  0.56948545610E+03  0.00000000000E+00 0. -1.
         -1   -1    0    0    0  501 -0.00000000000E+00 -0.00000000000E+00 -0.45904630354E+02  0.45904630354E+02  0.00000000000E+00 0.  1.
         25    2    1    2    0    0  0.10786513640E+03 -0.42321344028E+02  0.32233675496E+03  0.36465694226E+03  0.12509083952E+03 0.  0.
          5    1    3    3  502    0  0.96879579252E+02  0.26001402673E+02  0.17317819238E+03  0.20017463509E+03  0.41800000000E+01 0.  1.
         -5    1    3    3    0  502  0.10985557146E+02 -0.68322746700E+02  0.14915856258E+03  0.16448230718E+03  0.41800000000E+01 0.  1.
        -11    1    1    2    0    0 -0.76221424183E+02  0.27004795231E+02  0.19980487339E+03  0.21554802690E+03  0.00000000000E+00 0. -1.
         11    1    1    2    0    0 -0.31643712216E+02  0.15316548797E+02  0.14391973992E+01  0.35185117294E+02  0.00000000000E+00 0.  1.
</event>
<event>
 7    1  0.3494372E-009  0.1395552E+03  0.7561462E-02  0.1213929E+00
         -2   -1    0    0    0  501 -0.00000000000E+00  0.00000000000E+00  0.17932261777E+02  0.17932261777E+02  0.00000000000E+00 0. -1.
          2   -1    0    0  501    0  0.00000000000E+00 -0.00000000000E+00 -0.11726885234E+04  0.11726885234E+04  0.00000000000E+00 0.  1.
         25    2    1    2    0    0 -0.94788130331E+02 -0.12835051477E+02 -0.59994369737E+03  0.62026604364E+03  0.12509195292E+03 0.  0.
          5    1    3    3  502    0  0.32819853234E+01  0.38308853632E+02 -0.82483858218E+02  0.91101037101E+02  0.41800000000E+01 0.  1.
         -5    1    3    3    0  502 -0.98070115655E+02 -0.51143905109E+02 -0.51745983915E+03  0.52916500654E+03  0.41800000000E+01 0.  1.
        -11    1    1    2    0    0  0.58868383297E+02  0.50603781828E+02 -0.38394777273E+03  0.39171688944E+03  0.00000000000E+00 0.  1.
         11    1    1    2    0    0  0.35919747035E+02 -0.37768730351E+02 -0.17086479157E+03  0.17863785214E+03  0.00000000000E+00 0. -1.
</event>
<event>
 7    1  0.2522928E-009  0.1438391E+03  0.7561462E-02  0.1208255E+00
          1   -1    0    0  501    0  0.00000000000E+00  0.00000000000E+00  0.22168539132E+03  0.22168539132E+03  0.00000000000E+00 0. -1.
         -1   -1    0    0    0  501 -0.00000000000E+00 -0.00000000000E+00 -0.11149072188E+03  0.11149072188E+03  0.00000000000E+00 0.  1.
         25    2    1    2    0    0 -0.78294274530E+02 -0.76952885801E+02  0.91000221449E+02  0.18968349327E+03  0.12508815794E+03 0.  0.
          5    1    3    3  502    0 -0.11073270331E+03 -0.60264299140E+02  0.85906393772E+02  0.15261355846E+03  0.41800000000E+01 0. -1.
         -5    1    3    3    0  502  0.32438428781E+02 -0.16688586661E+02  0.50938276772E+01  0.37069934812E+02  0.41800000000E+01 0. -1.
        -11    1    1    2    0    0  0.41594851327E+02  0.23276211656E+01  0.40015119746E+02  0.57764688916E+02  0.00000000000E+00 0. -1.
         11    1    1    2    0    0  0.36699423202E+02  0.74625264636E+02 -0.20820671752E+02  0.85727931023E+02  0.00000000000E+00 0.  1.
</event>
<event>
 7    1  0.2522928E-009  0.2069975E+03  0.7561462E-02  0.1143966E+00
         -2   -1    0    0    0  501 -0.00000000000E+00  0.00000000000E+00  0.15228110673E+03  0.15228110673E+03  0.00000000000E+00 0.  1.
          2   -1    0    0  501    0  0.00000000000E+00 -0.00000000000E+00 -0.29256605350E+03  0.29256605350E+03  0.00000000000E+00 0. -1.
         25    2    1    2    0    0  0.17253423333E+03  0.46805739159E+02 -0.51353468804E+02  0.22415165331E+03  0.12509175047E+03 0.  0.
          5    1    3    3  502    0  0.96783581556E+02 -0.38304926842E+02 -0.23967603092E+02  0.10689362692E+03  0.41800000000E+01 0.  1.
         -5    1    3    3    0  502  0.75750651779E+02  0.85110666000E+02 -0.27385865711E+02  0.11725802639E+03  0.41800000000E+01 0.  1.
        -11    1    1    2    0    0 -0.10182761994E+03 -0.67460066377E+02 -0.28524942859E+02  0.12543283901E+03  0.00000000000E+00 0.  1.
         11    1    1    2    0    0 -0.70706613399E+02  0.20654327218E+02 -0.60406535109E+02  0.95262667898E+02  0.00000000000E+00 0. -1.
</event>
<event>
 7    1  0.2522928E-009  0.1535450E+03  0.7561462E-02  0.1196183E+00
         -1   -1    0    0    0  501 -0.00000000000E+00  0.00000000000E+00  0.99836298330E+02  0.99836298330E+02  0.00000000000E+00 0.  1.
          1   -1    0    0  501    0  0.00000000000E+00 -0.00000000000E+00 -0.37456834843E+03  0.37456834843E+03  0.00000000000E+00 0. -1.
         25    2    1    2    0    0 -0.12214587260E+03  0.31321118137E+02 -0.25580411651E+02  0.17945016712E+03  0.12508948151E+03 0.  0.
          5    1    3    3  502    0 -0.26550680479E+02 -0.43024152660E+02 -0.28604703644E+02  0.58238456510E+02  0.41800000000E+01 0. -1.
         -5    1    3    3    0  502 -0.95595192125E+02  0.74345270798E+02  0.30242919930E+01  0.12121171061E+03  0.41800000000E+01 0. -1.
        -11    1    1    2    0    0  0.77567838116E+02 -0.43555883805E+02 -0.80137250114E+02  0.11973246586E+03  0.00000000000E+00 0.  1.
         11    1    1    2    0    0  0.44578034488E+02  0.12234765667E+02 -0.16901438833E+03  0.17522201378E+03  0.00000000000E+00 0. -1.
</event>
<event>
 7    1  0.2522928E-009  0.1927931E+03  0.7561462E-02  0.1155966E+00
          2   -1    0    0  501    0  0.00000000000E+00  0.00000000000E+00  0.60350710129E+03  0.60350710129E+03  0.00000000000E+00 0. -1.
         -2   -1    0    0    0  501 -0.00000000000E+00 -0.00000000000E+00 -0.94848120666E+02  0.94848120666E+02  0.00000000000E+00 0.  1.
         25    2    1    2    0    0  0.92551521194E+02 -0.15191131798E+03  0.43240048922E+03  0.48400547271E+03  0.12509309308E+03 0.  0.
          5    1    3    3  502    0  0.91853805462E+02 -0.98335708327E+02  0.17360646475E+03  0.21969003189E+03  0.41800000000E+01 0.  1.
         -5    1    3    3    0  502  0.69771573276E+00 -0.53575609654E+02  0.25879402446E+03  0.26431544082E+03  0.41800000000E+01 0.  1.
        -11    1    1    2    0    0 -0.64395960024E+02  0.28128281327E+02  0.45552604008E+02  0.83744131792E+02  0.00000000000E+00 0.  1.
         11    1    1    2    0    0 -0.28155561171E+02  0.12378303665E+03  0.30705887399E+02  0.13060561745E+03  0.00000000000E+00 0. -1.
</event>
<event>
 6    1  0.2522928E-009  0.1027505E+03  0.7561462E-02  0.1274616E+00
         -2   -1    0    0    0  501 -0.00000000000E+00  0.00000000000E+00  0.47125600351E+03  0.47125600351E+03  0.00000000000E+00 0.  1.
          2   -1    0    0  501    0  0.00000000000E+00 -0.00000000000E+00 -0.32739315096E+02  0.32739315096E+02  0.00000000000E+00 0. -1.
          5    1    1    2  502    0  0.52660270776E+02  0.30201425946E+02  0.13391341084E+03  0.14709012288E+03  0.41800000000E+01 0. -1.
         -5    1    1    2    0  502 -0.59895341513E+02  0.22161341002E+02  0.48218754374E+02  0.80131751780E+02  0.41800000000E+01 0. -1.
        -11    1    1    2    0    0 -0.25655892217E+02 -0.11286315455E+02  0.19574534482E+02  0.34187250872E+02  0.00000000000E+00 0. -1.
         11    1    1    2    0    0  0.32890962954E+02 -0.41076451493E+02  0.23680998872E+03  0.24258619307E+03  0.00000000000E+00 0.  1.
</event>
<event>
 7    1  0.2522928E-009  0.8552534E+02  0.7561462E-02  0.1314064E+00
         -1   -1    0    0    0  501 -0.00000000000E+00  0.00000000000E+00  0.39888733436E+02  0.39888733436E+02  0.00000000000E+00 0. -1.
          1   -1    0    0  501    0  0.00000000000E+00 -0.00000000000E+00 -0.29849663735E+03  0.29849663735E+03  0.00000000000E+00 0.  1.
         25    2    1    2    0    0 -0.88525587896E+01 -0.13653739621E+00 -0.16569992126E+03  0.20780546199E+03  0.12509300415E+03 0.  0.
          5    1    3    3  502    0 -0.45285396953E+02  0.93171004654E+01 -0.16339830785E+03  0.16986481374E+03  0.41800000000E+01 0.  1.
         -5    1    3    3    0  502  0.36432838163E+02 -0.94536378616E+01 -0.23016134098E+01  0.37940648251E+02  0.41800000000E+01 0.  1.
        -11    1    1    2    0    0  0.29104585320E+02  0.35560835357E+02 -0.70140881687E+02  0.83853402923E+02  0.00000000000E+00 0.  1.
         11    1    1    2    0    0 -0.20252026531E+02 -0.35424297961E+02 -0.22767100968E+02  0.46726505873E+02  0.00000000000E+00 0. -1.
</event>
<event>
 7    1  0.2580422E-009  0.2458366E+03  0.7561462E-02  0.1115965E+00
         -1   -1    0    0    0  501 -0.00000000000E+00  0.00000000000E+00  0.63066375112E+02  0.63066375112E+02  0.00000000000E+00 0.  1.
          1   -1    0    0  501    0  0.00000000000E+00 -0.00000000000E+00 -0.13906621510E+04  0.13906621510E+04  0.00000000000E+00 0. -1.
         25    2    1    2    0    0  0.13728612609E+03 -0.18274645306E+03 -0.10549536892E+04  0.10866546986E+04  0.12508957244E+03 0.  0.
          5    1    3    3  502    0 -0.16943440318E+02 -0.73701222295E+00 -0.34411602567E+02  0.38590855757E+02  0.41800000000E+01 0. -1.
         -5    1    3    3    0  502  0.15422956640E+03 -0.18200944084E+03 -0.10205420866E+04  0.10480638429E+04  0.41800000000E+01 0. -1.
        -11    1    1    2    0    0 -0.30408799374E+02  0.86814230933E+02 -0.15998113608E+03  0.18454097018E+03  0.00000000000E+00 0. -1.
         11    1    1    2    0    0 -0.10687732671E+03  0.95932222126E+02 -0.11266095057E+03  0.18253285729E+03  0.00000000000E+00 0.  1.
</event>
<event>
 7    1  0.2522928E-009  0.1037478E+03  0.7561462E-02  0.1272607E+00
          4   -1    0    0  501    0  0.00000000000E+00  0.00000000000E+00  0.13391319284E+03  0.13391319284E+03  0.00000000000E+00 0. -1.
         -4   -1    0    0    0  501 -0.00000000000E+00 -0.00000000000E+00 -0.17968094155E+03  0.17968094155E+03  0.00000000000E+00 0.  1.
         25    2    1    2    0    0 -0.35866481845E+02 -0.38540599686E+02 -0.12298676075E+03  0.18315478322E+03  0.12509256154E+03 0.  0.
          5    1    3    3  502    0 -0.51470105925E+02  0.15828143662E+02 -0.11343671508E+03  0.12563861931E+03  0.41800000000E+01 0.  1.
         -5    1    3    3    0  502  0.15603624081E+02 -0.54368743348E+02 -0.95500456702E+01  0.57516163902E+02  0.41800000000E+01 0.  1.
        -11    1    1    2    0    0  0.48648997421E+02 -0.72854199695E+01  0.13671288025E+02  0.51055914549E+02  0.00000000000E+00 0.  1.
         11    1    1    2    0    0 -0.12782515576E+02  0.45826019656E+02  0.63547724016E+02  0.79383436619E+02  0.00000000000E+00 0. -1.
</event>
<event>
 7    1  0.2522928E-009  0.2652066E+03  0.7561462E-02  0.1104055E+00
         -2   -1    0    0    0  501 -0.00000000000E+00  0.00000000000E+00  0.83085325286E+02  0.83085325286E+02  0.00000000000E+00 0. -1.
          2   -1    0    0  501    0  0.00000000000E+00 -0.00000000000E+00 -0.92024683389E+03  0.92024683389E+03  0.00000000000E+00 0.  1.
         25    2    1    2    0    0 -0.20894703823E+03 -0.13416102767E+03 -0.52779110973E+03  0.59654737621E+03  0.12508904998E+03 0.  0.
          5    1    3    3  502    0 -0.21528019292E+03 -0.14331799549E+03 -0.46011373582E+03  0.52783305276E+03  0.41800000000E+01 0.  1.
         -5    1    3    3    0  502  0.63331546908E+01  0.91569678242E+01 -0.67677373911E+02  0.68714323452E+02  0.41800000000E+01 0.  1.
        -11    1    1    2    0    0  0.18644756432E+03  0.83222421882E+02 -0.27034694477E+03  0.33878626934E+03  0.00000000000E+00 0.  1.
         11    1    1    2    0    0  0.22499473912E+02  0.50938605784E+02 -0.39023454102E+02  0.67998513628E+02  0.00000000000E+00 0. -1.
</event>
<event>
 7    1  0.2522928E-009  0.1580710E+03  0.7561462E-02  0.1190892E+00
         -2   -1    0    0    0  501 -0.00000000000E+00  0.00000000000E+00  0.70153678941E+03  0.70153678941E+03  0.00000000000E+00 0.  1.
          2   -1    0    0  501    0  0.00000000000E+00 -0.00000000000E+00 -0.55244217885E+02  0.55244217885E+02  0.00000000000E+00 0. -1.
         25    2    1    2    0    0  0.11924830546E+03  0.11238509029E+02  0.12370008930E+03  0.21282317981E+03  0.12508209836E+03 0.  0.
          5    1    3    3  502    0  0.10201915431E+02  0.48667484828E+02  0.10096546021E+02  0.50911843411E+02  0.41800000000E+01 0. -1.
         -5    1    3    3    0  502  0.10904639003E+03 -0.37428975799E+02  0.11360354328E+03  0.16191133640E+03  0.41800000000E+01 0. -1.
        -11    1    1    2    0    0 -0.83760938919E+02 -0.50615225756E+02  0.33045727335E+03  0.34464446242E+03  0.00000000000E+00 0.  1.
         11    1    1    2    0    0 -0.35487366544E+02  0.39376716726E+02  0.19213520887E+03  0.19931336506E+03  0.00000000000E+00 0. -1.
</event>
<event>
 7    1  0.2522928E-009  0.1032268E+03  0.7561462E-02  0.1273653E+00
          1   -1    0    0  501    0  0.00000000000E+00  0.00000000000E+00  0.41619070043E+02  0.41619070043E+02  0.00000000000E+00 0. -1.
         -1   -1    0    0    0  501 -0.00000000000E+00 -0.00000000000E+00 -0.37597081062E+03  0.37597081062E+03  0.00000000000E+00 0.  1.
         25    2    1    2    0    0 -0.73140482311E+01 -0.29880643326E+01 -0.83755107173E+02  0.15075598832E+03  0.12510006477E+03 0.  0.
          5    1    3    3  502    0  0.26244689333E+02  0.52743590246E+02 -0.29899000170E+02  0.66197376393E+02  0.41800000000E+01 0. -1.
         -5    1    3    3    0  502 -0.33558737564E+02 -0.55731654578E+02 -0.53856107004E+02  0.84558611924E+02  0.41800000000E+01 0. -1.
        -11    1    1    2    0    0  0.44309329395E+02  0.74808683166E+01 -0.75885802672E+02  0.88192602350E+02  0.00000000000E+00 0. -1.
         11    1    1    2    0    0 -0.36995281164E+02 -0.44928039840E+01 -0.17471083074E+03  0.17864129000E+03  0.00000000000E+00 0.  1.
</event>
<event>
 7    1  0.2522928E-009  0.2045497E+03  0.7561462E-02  0.1145956E+00
         -2   -1    0    0    0  501 -0.00000000000E+00  0.00000000000E+00  0.10597215595E+03  0.10597215595E+03  0.00000000000E+00 0.  1.
          2   -1    0    0  501    0  0.00000000000E+00 -0.00000000000E+00 -0.68798093651E+03  0.68798093651E+03  0.00000000000E+00 0. -1.
         25    2    1    2    0    0 -0.37352843898E+02  0.19491070906E+03 -0.81884666012E+02  0.24847389274E+03  0.12509499347E+03 0.  0.
          5    1    3    3  502    0 -0.38782358015E+02  0.69648012391E+02 -0.93093961531E+02  0.12263309095E+03  0.41800000000E+01 0.  1.
         -5    1    3    3    0  502  0.14295141165E+01  0.12526269667E+03  0.11209295519E+02  0.12584080179E+03  0.41800000000E+01 0.  1.
        -11    1    1    2    0    0  0.13503883065E+02 -0.16557471321E+03 -0.46534419208E+03  0.49410784006E+03  0.00000000000E+00 0. -1.
         11    1    1    2    0    0  0.23848960833E+02 -0.29335995856E+02 -0.34779922476E+02  0.51371359658E+02  0.00000000000E+00 0.  1.
</event>
<event>
 7    1  0.2609423E-009  0.1591778E+03  0.7561462E-02  0.1189628E+00
         -2   -1    0    0    0  501 -0.00000000000E+00  0.00000000000E+00  0.73908745155E+02  0.73908745155E+02  0.00000000000E+00 0.  1.
          2   -1    0    0  501    0  0.00000000000E+00 -0.00000000000E+00 -0.39167845627E+03  0.39167845627E+03  0.00000000000E+00 0. -1.
         25    2    1    2    0    0  0.49534703707E+01 -0.12704676804E+03 -0.20999537844E+03  0.27551735513E+03  0.12508531440E+03 0.  0.
          5    1    3    3  502    0  0.58882404568E+02 -0.83476737170E+02 -0.86911156588E+02  0.13418839278E+03  0.41800000000E+01 0. -1.
         -5    1    3    3    0  502 -0.53928934197E+02 -0.43570030869E+02 -0.12308422185E+03  0.14132896236E+03  0.41800000000E+01 0. -1.
        -11    1    1    2    0    0 -0.24059017116E+02  0.12517110777E+03 -0.64769305886E+02  0.14297449251E+03  0.00000000000E+00 0.  1.
         11    1    1    2    0    0  0.19105546746E+02  0.18756602712E+01 -0.43005026797E+02  0.47095353780E+02  0.00000000000E+00 0. -1.
</event>
<event>
 7    1  0.2522928E-009  0.1005171E+03  0.7561462E-02  0.1279212E+00
         -3   -1    0    0    0  501 -0.00000000000E+00  0.00000000000E+00  0.26977822274E+02  0.26977822274E+02  0.00000000000E+00 0.  1.
          3   -1    0    0  501    0  0.00000000000E+00 -0.00000000000E+00 -0.42811345022E+03  0.42811345022E+03  0.00000000000E+00 0. -1.
         25    2    1    2    0    0 -0.46175873761E+01  0.94708000475E+01 -0.24567516551E+03  0.27588895809E+03  0.12508961620E+03 0.  0.
          5    1    3    3  502    0 -0.58992769199E+02 -0.19934187324E+02 -0.14202354931E+03  0.15513116901E+03  0.41800000000E+01 0. -1.
         -5    1    3    3    0  502  0.54375181823E+02  0.29404987372E+02 -0.10365161620E+03  0.12075778907E+03  0.41800000000E+01 0. -1.
        -11    1    1    2    0    0  0.39688924650E+02 -0.12111644870E+02 -0.12806825668E+03  0.13462310742E+03  0.00000000000E+00 0. -1.
         11    1    1    2    0    0 -0.35071337274E+02  0.26408448223E+01 -0.27392205755E+02  0.44579206988E+02  0.00000000000E+00 0.  1.
</event>
<event>
 7    1  0.2522928E-009  0.1811933E+03  0.7561462E-02  0.1166653E+00
         -2   -1    0    0    0  501 -0.00000000000E+00  0.00000000000E+00  0.17288432926E+03  0.17288432926E+03  0.00000000000E+00 0.  1.
          2   -1    0    0  501    0  0.00000000000E+00 -0.00000000000E+00 -0.21133361041E+03  0.21133361041E+03  0.00000000000E+00 0. -1.
         25    2    1    2    0    0  0.33005735961E+02 -0.14944707192E+03 -0.20322422683E+02  0.19870815696E+03  0.12509246527E+03 0.  0.
          5    1    3    3  502    0  0.27620956768E+02  0.15786208119E+02 -0.66579202588E+01  0.32770747958E+02  0.41800000000E+01 0.  1.
         -5    1    3    3    0  502  0.53847791928E+01 -0.16523328004E+03 -0.13664502424E+02  0.16593740900E+03  0.41800000000E+01 0.  1.
        -11    1    1    2    0    0 -0.43459855775E+02  0.14814790959E+03 -0.41500913709E+02  0.15987147344E+03  0.00000000000E+00 0. -1.
         11    1    1    2    0    0  0.10454119815E+02  0.12991623232E+01  0.23374055241E+02  0.25638309271E+02  0.00000000000E+00 0.  1.
</event>
<event>
 6    1  0.2522928E-009  0.1081442E+03  0.7561462E-02  0.1264046E+00
         -2   -1    0    0    0  501 -0.00000000000E+00  0.00000000000E+00  0.59513070772E+02  0.59513070772E+02  0.00000000000E+00 0.  1.
          2   -1    0    0  501    0  0.00000000000E+00 -0.00000000000E+00 -0.28953873950E+03  0.28953873950E+03  0.00000000000E+00 0. -1.
          5    1    1    2  502    0 -0.32957063875E+02 -0.91047792371E+01 -0.16039343109E+02  0.37997341902E+02  0.41800000000E+01 0. -1.
         -5    1    1    2    0  502  0.10385023309E+03  0.28118298930E+02 -0.11309943535E+03  0.15615525711E+03  0.41800000000E+01 0. -1.
        -11    1    1    2    0    0 -0.49982417673E+02 -0.82686487894E+01 -0.11625351747E+03  0.12681282645E+03  0.00000000000E+00 0. -1.
         11    1    1    2    0    0 -0.20910751538E+02 -0.10744870904E+02  0.15366627192E+02  0.28086384814E+02  0.00000000000E+00 0.  1.
</event>
<event>
 7    1  0.2522928E-009  0.7138487E+02  0.7561462E-02  0.1355446E+00
         -1   -1    0    0    0  501 -0.00000000000E+00  0.00000000000E+00  0.79370645171E+02  0.79370645171E+02  0.00000000000E+00 0.  1.
          1   -1    0    0  501    0  0.00000000000E+00 -0.00000000000E+00 -0.18390842731E+03  0.18390842731E+03  0.00000000000E+00 0. -1.
         25    2    1    2    0    0 -0.24512878032E+02 -0.23445306646E+02 -0.13175838721E+02  0.13027874640E+03  0.12509350681E+03 0.  0.
          5    1    3    3  502    0  0.20100089578E+02 -0.24722724238E+02  0.45955471304E+02  0.56076772710E+02  0.41800000000E+01 0. -1.
         -5    1    3    3    0  502 -0.44612967611E+02  0.12774175920E+01 -0.59131310024E+02  0.74201973693E+02  0.41800000000E+01 0. -1.
        -11    1    1    2    0    0  0.15751959458E+01  0.38395549680E+02 -0.84933870186E+00  0.38437232649E+02  0.00000000000E+00 0.  1.
         11    1    1    2    0    0  0.22937682087E+02 -0.14950243034E+02 -0.90512604720E+02  0.94563093432E+02  0.00000000000E+00 0. -1.
</event>
<event>
 7    1  0.2522928E-009  0.7089820E+02  0.7561462E-02  0.1357065E+00
         -1   -1    0    0    0  501 -0.00000000000E+00  0.00000000000E+00  0.23808248880E+03  0.23808248880E+03  0.00000000000E+00 0.  1.
          1   -1    0    0  501    0  0.00000000000E+00 -0.00000000000E+00 -0.59026764924E+02  0.59026764924E+02  0.00000000000E+00 0. -1.
         25    2    1    2    0    0 -0.19319400740E+02  0.45422560642E+02  0.10645557721E+03  0.17151647768E+03  0.12509461993E+03 0.  0.
          5    1    3    3  502    0 -0.29813338201E+02  0.43230115135E+02 -0.10735001845E+02  0.53762353500E+02  0.41800000000E+01 0. -1.
         -5    1    3    3    0  502  0.10493937461E+02  0.21924455075E+01  0.11719057906E+03  0.11775412418E+03  0.41800000000E+01 0. -1.
        -11    1    1    2    0    0 -0.12524088982E+02 -0.43985976037E+02 -0.61634100017E+00  0.45738373047E+02  0.00000000000E+00 0. -1.
         11    1    1    2    0    0  0.31843489722E+02 -0.14365846056E+01  0.73216487663E+02  0.79854403001E+02  0.00000000000E+00 0.  1.
</event>
<event>
 7    1  0.2522928E-009  0.1227448E+03  0.7561462E-02  0.1238637E+00
          2   -1    0    0  501    0  0.00000000000E+00  0.00000000000E+00  0.15187935328E+04  0.15187935328E+04  0.00000000000E+00 0.  1.
         -2   -1    0    0    0  501 -0.00000000000E+00 -0.00000000000E+00 -0.17003111269E+02  0.17003111269E+02  0.00000000000E+00 0. -1.
         25    2    1    2    0    0  0.77318174658E+02 -0.11795701463E+02  0.12537327839E+04  0.12623827763E+04  0.12508853517E+03 0.  0.
          5    1    3    3  502    0  0.88765538110E+02  0.36906018047E+02  0.74780984623E+03  0.75397507481E+03  0.41800000000E+01 0.  1.
         -5    1    3    3    0  502 -0.11447363452E+02 -0.48701719510E+02  0.50592293769E+03  0.50840770145E+03  0.41800000000E+01 0.  1.
        -11    1    1    2    0    0 -0.58532662498E+02  0.35776614812E+02  0.93982404187E+02  0.11635605289E+03  0.00000000000E+00 0. -1.
         11    1    1    2    0    0 -0.18785512160E+02 -0.23980913348E+02  0.15407523347E+03  0.15705781496E+03  0.00000000000E+00 0.  1.
</event>
<event>
 7    1  0.2522928E-009  0.1334657E+03  0.7561462E-02  0.1222402E+00
          2   -1    0    0  501    0  0.00000000000E+00  0.00000000000E+00  0.22905063361E+03  0.22905063361E+03  0.00000000000E+00 0. -1.
         -2   -1    0    0    0  501 -0.00000000000E+00 -0.00000000000E+00 -0.19610766440E+03  0.19610766440E+03  0.00000000000E+00 0.  1.
         25    2    1    2    0    0  0.96439724873E+02  0.55700775655E+02 -0.12513124710E+03  0.20906512531E+03  0.12508877119E+03 0.  0.
          5    1    3    3  502    0  0.19396807447E+02  0.46891313590E+02 -0.12102458255E+03  0.13129909904E+03  0.41800000000E+01 0.  1.
         -5    1    3    3    0  502  0.77042917426E+02  0.88094620642E+01 -0.41066645521E+01  0.77766026265E+02  0.41800000000E+01 0.  1.
        -11    1    1    2    0    0  0.14613049819E+02 -0.12386397116E+02  0.55912769838E+02  0.59103315385E+02  0.00000000000E+00 0. -1.
         11    1    1    2    0    0 -0.11105277469E+03 -0.43314378539E+02  0.10216144647E+03  0.15698985732E+03  0.00000000000E+00 0.  1.
</event>
<event>
 7    1  0.2522928E-009  0.1571743E+03  0.7561462E-02  0.1191924E+00
         -2   -1    0    0    0  501 -0.00000000000E+00  0.00000000000E+00  0.18898204535E+03  0.18898204535E+03  0.00000000000E+00 0.  1.
          2   -1    0    0  501    0  0.00000000000E+00 -0.00000000000E+00 -0.17123421138E+03  0.17123421138E+03  0.00000000000E+00 0. -1.
         25    2    1    2    0    0 -0.22660715359E+02  0.14217264723E+03  0.52550254840E+01  0.19079482814E+03  0.12509389078E+03 0.  0.
          5    1    3    3  502    0 -0.53219965232E+02  0.87415843893E+02  0.49672764126E+02  0.11383650714E+03  0.41800000000E+01 0.  1.
         -5    1    3    3    0  502  0.30559249873E+02  0.54756803336E+02 -0.44417738642E+02  0.76958320995E+02  0.41800000000E+01 0.  1.
        -11    1    1    2    0    0 -0.53145392446E+01 -0.87495179095E+02 -0.32285015769E+02  0.93412916320E+02  0.00000000000E+00 0.  1.
         11    1    1    2    0    0  0.27975254604E+02 -0.54677468133E+02  0.44777824257E+02  0.76008512266E+02  0.00000000000E+00 0. -1.
</event>
<event>
 7    1  0.2522928E-009  0.1180616E+03  0.7561462E-02  0.1246329E+00
          2   -1    0    0  501    0  0.00000000000E+00  0.00000000000E+00  0.19459927126E+03  0.19459927126E+03  0.00000000000E+00 0. -1.
         -2   -1    0    0    0  501 -0.00000000000E+00 -0.00000000000E+00 -0.84074485407E+02  0.84074485407E+02  0.00000000000E+00 0.  1.
         25    2    1    2    0    0  0.22560658626E+02 -0.50590168085E+02  0.88276564480E+02  0.16282306452E+03  0.12510095954E+03 0.  0.
          5    1    3    3  502    0 -0.51354873986E+02 -0.20650049034E+02  0.24738886825E+02  0.60771971571E+02  0.41800000000E+01 0. -1.
         -5    1    3    3    0  502  0.73915532613E+02 -0.29940119050E+02  0.63537677655E+02  0.10205109295E+03  0.41800000000E+01 0. -1.
        -11    1    1    2    0    0 -0.51185176635E+02  0.11765764390E+02  0.38313514365E+02  0.65009852344E+02  0.00000000000E+00 0. -1.
         11    1    1    2    0    0  0.28624518008E+02  0.38824403694E+02 -0.16065292990E+02  0.50840839807E+02  0.00000000000E+00 0.  1.
</event>
<event>
 7    1  0.2522928E-009  0.1427081E+03  0.7561462E-02  0.1209731E+00
          3   -1    0    0  501    0  0.00000000000E+00  0.00000000000E+00  0.71466507127E+03  0.71466507127E+03  0.00000000000E+00 0. -1.
         -3   -1    0    0    0  501 -0.00000000000E+00 -0.00000000000E+00 -0.52981962991E+02  0.52981962991E+02  0.00000000000E+00 0.  1.
         25    2    1    2    0    0 -0.90671329951E+02 -0.10203076257E+03  0.51506037401E+03  0.54732638083E+03  0.12508961465E+03 0.  0.
          5    1    3    3  502    0 -0.68383919005E+02 -0.46633628339E+02  0.45516139424E+03  0.46264502902E+03  0.41800000000E+01 0.  1.
         -5    1    3    3    0  502 -0.22287410946E+02 -0.55397134228E+02  0.59898979773E+02  0.84681351815E+02  0.41800000000E+01 0.  1.
        -11    1    1    2    0    0  0.13063857474E+02 -0.16545776028E+01  0.67017742982E+02  0.68299193799E+02  0.00000000000E+00 0. -1.
         11    1    1    2    0    0  0.77607472478E+02  0.10368534017E+03  0.79604991288E+02  0.15202145963E+03  0.00000000000E+00 0.  1.
</event>
<event>
 6    1  0.2522928E-009  0.1414386E+03  0.7561462E-02  0.1211406E+00
         -2   -1    0    0    0  501 -0.00000000000E+00  0.00000000000E+00  0.27603883547E+02  0.27603883547E+02  0.00000000000E+00 0.  1.
          2   -1    0    0  501    0  0.00000000000E+00 -0.00000000000E+00 -0.76611764097E+03  0.76611764097E+03  0.00000000000E+00 0. -1.
          5    1    1    2  502    0  0.80254799701E+02 -0.63814376437E+02 -0.25430013932E+03  0.27422461737E+03  0.41800000000E+01 0. -1.
         -5    1    1    2    0  502 -0.43746474986E+02 -0.23426187180E+02 -0.21010724682E+03  0.21592838602E+03  0.41800000000E+01 0. -1.
        -11    1    1    2    0    0  0.29598431064E+02  0.17587198512E+02 -0.72416513525E+02  0.80184338271E+02  0.00000000000E+00 0. -1.
         11    1    1    2    0    0 -0.66106755779E+02  0.69653365106E+02 -0.20168985775E+03  0.22338418286E+03  0.00000000000E+00 0.  1.
</event>
<event>
 7    1  0.2804650E-009  0.1321368E+03  0.7561462E-02  0.1224319E+00
         -1   -1    0    0    0  501 -0.00000000000E+00  0.00000000000E+00  0.42081062536E+02  0.42081062536E+02  0.00000000000E+00 0.  1.
          1   -1    0    0  501    0  0.00000000000E+00 -0.00000000000E+00 -0.70707743762E+03  0.70707743762E+03  0.00000000000E+00 0. -1.
         25    2    1    2    0    0 -0.26121757146E+02  0.11982106622E+03 -0.47004625127E+03  0.50162857237E+03  0.12509321392E+03 0.  0.
          5    1    3    3  502    0  0.99836829880E+01  0.94103379394E+02 -0.43435656569E+03  0.44456520163E+03  0.41800000000E+01 0.  1.
         -5    1    3    3    0  502 -0.36105440134E+02  0.25717686828E+02 -0.35689685586E+02  0.57063370740E+02  0.41800000000E+01 0.  1.
        -11    1    1    2    0    0  0.23043592736E+02 -0.49118116953E+02 -0.18344355578E+02  0.57272261705E+02  0.00000000000E+00 0.  1.
         11    1    1    2    0    0  0.30781644096E+01 -0.70702949269E+02 -0.17660576823E+03  0.19025766608E+03  0.00000000000E+00 0. -1.
</event>
<event>
 7    1  0.2522928E-009  0.8451873E+02  0.7561462E-02  0.1316696E+00
         -2   -1    0    0    0  501 -0.00000000000E+00  0.00000000000E+00  0.17074117256E+03  0.17074117256E+03  0.00000000000E+00 0.  1.
          2   -1    0    0  501    0  0.00000000000E+00 -0.00000000000E+00 -0.78150484493E+02  0.78150484493E+02  0.00000000000E+00 0. -1.
         25    2    1    2    0    0  0.35708935462E+02  0.16596356625E+02  0.41123960979E+02  0.13743790454E+03  0.12508968908E+03 0.  0.
          5    1    3    3  502    0 -0.25827524233E+02 -0.21606365937E+01  0.63886398852E+02  0.69070063825E+02  0.41800000000E+01 0.  1.
         -5    1    3    3    0  502  0.61536459695E+02  0.18756993219E+02 -0.22762437873E+02  0.68367840717E+02  0.41800000000E+01 0.  1.
        -11    1    1    2    0    0  0.18284779308E+02  0.67522176974E+01  0.48821300511E+02  0.52568478975E+02  0.00000000000E+00 0.  1.
         11    1    1    2    0    0 -0.53993714769E+02 -0.23348574322E+02  0.26454265757E+01  0.58885273535E+02  0.00000000000E+00 0. -1.
</event>
<event>
 7    1  0.2522928E-009  0.1287591E+03  0.7561462E-02  0.1229309E+00
          2   -1    0    0  501    0  0.00000000000E+00  0.00000000000E+00  0.75452809343E+02  0.75452809343E+02  0.00000000000E+00 0. -1.
         -2   -1    0    0    0  501 -0.00000000000E+00 -0.00000000000E+00 -0.30617835910E+03  0.30617835910E+03  0.00000000000E+00 0.  1.
         25    2    1    2    0    0  0.95772696672E+02 -0.44287543209E+02 -0.10044286056E+03  0.19201575116E+03  0.12508990585E+03 0.  0.
          5    1    3    3  502    0  0.40268755732E+02  0.13383367031E+02  0.20194093333E+02  0.47180091213E+02  0.41800000000E+01 0. -1.
         -5    1    3    3    0  502  0.55503940940E+02 -0.57670910239E+02 -0.12063695390E+03  0.14483565995E+03  0.41800000000E+01 0. -1.
        -11    1    1    2    0    0 -0.35611891636E+02  0.62445734567E+02 -0.49555009303E+02  0.87311943848E+02  0.00000000000E+00 0. -1.
         11    1    1    2    0    0 -0.60160805036E+02 -0.18158191358E+02 -0.80727679893E+02  0.10230347344E+03  0.00000000000E+00 0.  1.
</event>
<event>
 7    1  0.2522928E-009  0.1516929E+03  0.7561462E-02  0.1198408E+00
         -2   -1    0    0    0  501 -0.00000000000E+00  0.00000000000E+00  0.48506183839E+02  0.48506183839E+02  0.00000000000E+00 0. -1.
          2   -1    0    0  501    0  0.00000000000E+00 -0.00000000000E+00 -0.49091877516E+03  0.49091877516E+03  0.00000000000E+00 0.  1.
         25    2    1    2    0    0  0.88841487440E+02  0.62584415400E+02 -0.25944379783E+03  0.30784807256E+03  0.12509889129E+03 0.  0.
          5    1    3    3  502    0  0.10189750113E+03  0.31646658180E+01 -0.18812473025E+03  0.21401285564E+03  0.41800000000E+01 0. -1.
         -5    1    3    3    0  502 -0.13056013688E+02  0.59419749583E+02 -0.71319067580E+02  0.93835216919E+02  0.41800000000E+01 0. -1.
        -11    1    1    2    0    0 -0.84032514790E+02 -0.83766351432E+02 -0.14067792867E+03  0.18403408594E+03  0.00000000000E+00 0.  1.
         11    1    1    2    0    0 -0.48089726501E+01  0.21181936031E+02 -0.42290864819E+02  0.47542800497E+02  0.00000000000E+00 0. -1.
</event>
<event>
 7    1  0.2522928E-009  0.1255579E+03  0.7561462E-02  0.1234200E+00
         -2   -1    0    0    0  501 -0.00000000000E+00  0.00000000000E+00  0.12986335900E+03  0.12986335900E+03  0.00000000000E+00 0.  1.
          2   -1    0    0  501    0  0.00000000000E+00 -0.00000000000E+00 -0.14532957545E+03  0.14532957545E+03  0.00000000000E+00 0. -1.
         25    2    1    2    0    0  0.26297777437E+02  0.68595348090E+02 -0.48977185374E+02  0.15311065407E+03  0.12508881974E+03 0.  0.
          5    1    3    3  502    0 -0.24072543561E+02  0.80355866702E+02 -0.55705584311E+02  0.10078262345E+03  0.41800000000E+01 0. -1.
         -5    1    3    3    0  502  0.50370320997E+02 -0.11760518612E+02  0.67283989368E+01  0.52328030611E+02  0.41800000000E+01 0. -1.
        -11    1    1    2    0    0  0.27482086391E+02 -0.52230207993E+02  0.28798278519E+02  0.65670393215E+02  0.00000000000E+00 0.  1.
         11    1    1    2    0    0 -0.53779863827E+02 -0.16365140097E+02  0.47126904091E+01  0.56411887174E+02  0.00000000000E+00 0. -1.
</event>
<event>
 7    1  0.2522928E-009  0.1094890E+03  0.7561462E-02  0.1261519E+00
          1   -1    0    0  501    0  0.00000000000E+00  0.00000000000E+00  0.33419034375E+02  0.33419034375E+02  0.00000000000E+00 0. -1.
         -1   -1    0    0    0  501 -0.00000000000E+00 -0.00000000000E+00 -0.37895890701E+03  0.37895890701E+03  0.00000000000E+00 0.  1.
         25    2    1    2    0    0  0.77505240248E+01 -0.33636688548E+02 -0.19592301317E+03  0.23499833157E+03  0.12508753460E+03 0.  0.
          5    1    3    3  502    0 -0.22236876296E+02 -0.74181739571E+02 -0.13607672535E+03  0.15662616874E+03  0.41800000000E+01 0. -1.
         -5    1    3    3    0  502  0.29987400321E+02  0.40545051024E+02 -0.59846287829E+02  0.78372162835E+02  0.41800000000E+01 0. -1.
        -11    1    1    2    0    0  0.35938634144E+02  0.30293277024E+02 -0.10399624936E+03  0.11412487870E+03  0.00000000000E+00 0.  1.
         11    1    1    2    0    0 -0.43689158169E+02  0.33434115242E+01 -0.45620610100E+02  0.63254731112E+02  0.00000000000E+00 0. -1.
</event>
<event>
 7    1  0.2522928E-009  0.1124517E+03  0.7561462E-02  0.1256096E+00
          1   -1    0    0  501    0  0.00000000000E+00  0.00000000000E+00  0.84764211094E+03  0.84764211094E+03  0.00000000000E+00 0. -1.
         -1   -1    0    0    0  501 -0.00000000000E+00 -0.00000000000E+00 -0.16334787953E+02  0.16334787953E+02  0.00000000000E+00 0.  1.
         25    2    1    2    0    0  0.18533692088E+02 -0.27368886395E+02  0.58308292424E+03  0.59726553732E+03  0.12509145391E+03 0.  0.
          5    1    3    3  502    0 -0.51948218588E+02 -0.24041525765E+02  0.30400661271E+03  0.30937696318E+03  0.41800000000E+01 0.  1.
         -5    1    3    3    0  502  0.70481910676E+02 -0.33273606303E+01  0.27907631153E+03  0.28788857414E+03  0.41800000000E+01 0.  1.
        -11    1    1    2    0    0  0.34840150498E+02  0.25932829410E+02  0.12787994127E+03  0.13505416360E+03  0.00000000000E+00 0. -1.
         11    1    1    2    0    0 -0.53373842586E+02  0.14360569856E+01  0.12034445748E+03  0.13165719797E+03  0.00000000000E+00 0.  1.
</event>
<event>
 7    1  0.2522928E-009  0.6917527E+02  0.7561462E-02  0.1362920E+00
         -4   -1    0    0    0  501 -0.00000000000E+00  0.00000000000E+00  0.75783554854E+03  0.75783554854E+03  0.00000000000E+00 0.  1.
          4   -1    0    0  501    0  0.00000000000E+00 -0.00000000000E+00 -0.17270792509E+02  0.17270792509E+02  0.00000000000E+00 0. -1.
         25    2    1    2    0    0 -0.72172153103E+01 -0.21870623532E+02  0.49304244054E+03  0.50918679214E+03  0.12509967523E+03 0.  0.
          5    1    3    3  502    0 -0.20574934855E+02 -0.51221825559E+01  0.70898964658E+01  0.22744312043E+02  0.41800000000E+01 0. -1.
         -5    1    3    3    0  502  0.13357719545E+02 -0.16748440976E+02  0.48595254408E+03  0.48644248010E+03  0.41800000000E+01 0. -1.
        -11    1    1    2    0    0 -0.41268489218E+02  0.21260688286E+02  0.14979950904E+03  0.15682792474E+03  0.00000000000E+00 0. -1.
         11    1    1    2    0    0  0.48485704528E+02  0.60993524594E+00  0.97722806446E+02  0.10909162417E+03  0.00000000000E+00 0.  1.
</event>
<event>
 7    1  0.2522928E-009  0.1255185E+03  0.7561462E-02  0.1234261E+00
         -2   -1    0    0    0  501 -0.00000000000E+00  0.00000000000E+00  0.22783294417E+03  0.22783294417E+03  0.00000000000E+00 0.  1.
          2   -1    0    0  501    0  0.00000000000E+00 -0.00000000000E+00 -0.76096993345E+02  0.76096993345E+02  0.00000000000E+00 0. -1.
         25    2    1    2    0    0 -0.32107331727E+02 -0.59608467084E+02  0.49872668597E+02  0.15068903758E+03  0.12504340396E+03 0.  0.
          5    1    3    3  502    0 -0.33530723790E+02 -0.96798481496E+02  0.47958304351E+02  0.11318889881E+03  0.41800000000E+01 0. -1.
         -5    1    3    3    0  502  0.14233920627E+01  0.37190014413E+02  0.19143642455E+01  0.37500138765E+02  0.41800000000E+01 0. -1.
        -11    1    1    2    0    0  0.10466082200E+02 -0.23209565318E+02  0.91491228027E+01  0.27054190931E+02  0.00000000000E+00 0.  1.
         11    1    1    2    0    0  0.21641249527E+02  0.82818032402E+02  0.92714159427E+02  0.12618670901E+03  0.00000000000E+00 0. -1.
</event>
<event>
 7    1  0.2522928E-009  0.1444720E+03  0.7561462E-02  0.1207435E+00
          2   -1    0    0  501    0  0.00000000000E+00  0.00000000000E+00  0.48497506372E+03  0.48497506372E+03  0.00000000000E+00 0. -1.
         -2   -1    0    0    0  501 -0.00000000000E+00 -0.00000000000E+00 -0.10437622611E+03  0.10437622611E+03  0.00000000000E+00 0.  1.
         25    2    1    2    0    0 -0.17582083962E+02 -0.10229570846E+03 -0.21969230495E+02  0.16402363836E+03  0.12509022826E+03 0.  0.
          5    1    3    3  502    0 -0.53078482214E+02 -0.11057349621E+03 -0.30283447461E+02  0.12640562854E+03  0.41800000000E+01 0. -1.
         -5    1    3    3    0  502  0.35496398252E+02  0.82777877455E+01  0.83142169653E+01  0.37618009817E+02  0.41800000000E+01 0. -1.
        -11    1    1    2    0    0  0.42196192799E+02  0.26470623753E+02  0.91204874991E+02  0.10392084406E+03  0.00000000000E+00 0.  1.
         11    1    1    2    0    0 -0.24614108836E+02  0.75825084707E+02  0.31136319311E+03  0.32140680741E+03  0.00000000000E+00 0. -1.
</event>
<event>
 7    1  0.2522928E-009  0.1222901E+03  0.7561462E-02  0.1239366E+00
         -3   -1    0    0    0  501 -0.00000000000E+00  0.00000000000E+00  0.37237095844E+03  0.37237095844E+03  0.00000000000E+00 0.  1.
          3   -1    0    0  501    0  0.00000000000E+00 -0.00000000000E+00 -0.58679722056E+02  0.58679722056E+02  0.00000000000E+00 0. -1.
         25    2    1    2    0    0  0.71209104998E+02  0.73329178050E+01  0.26762435677E+03  0.30396438402E+03  0.12508813733E+03 0.  0.
          5    1    3    3  502    0  0.87403030750E+02 -0.29516264255E+02  0.12314109677E+03  0.15392108937E+03  0.41800000000E+01 0. -1.
         -5    1    3    3    0  502 -0.16193925752E+02  0.36849182060E+02  0.14448326000E+03  0.15004329465E+03  0.41800000000E+01 0. -1.
        -11    1    1    2    0    0 -0.51238264369E+02  0.36961087604E+02  0.46584003375E+02  0.78495548300E+02  0.00000000000E+00 0.  1.
         11    1    1    2    0    0 -0.19970840629E+02 -0.44294005409E+02 -0.51712376413E+00  0.48590748169E+02  0.00000000000E+00 0. -1.
</event>
<event>
 7    1  0.2522928E-009  0.1954165E+03  0.7561462E-02  0.1153665E+00
          1   -1    0    0  501    0  0.00000000000E+00  0.00000000000E+00  0.82387904593E+03  0.82387904593E+03  0.00000000000E+00 0. -1.
         -1   -1    0    0    0  501 -0.00000000000E+00 -0.00000000000E+00 -0.83159589515E+02  0.83159589515E+02  0.00000000000E+00 0.  1.
         25    2    1    2    0    0  0.10316684551E+03 -0.13514570876E+03  0.66981962177E+03  0.70229122824E+03  0.12508750116E+03 0.  0.
          5    1    3    3  502    0  0.50767870383E+02 -0.14188920961E+03  0.40334837929E+03  0.43060110537E+03  0.41800000000E+01 0. -1.
         -5    1    3    3    0  502  0.52398975124E+02  0.67435008544E+01  0.26647124248E+03  0.27169012287E+03  0.41800000000E+01 0. -1.
        -11    1    1    2    0    0 -0.65744687899E+00  0.59937696702E+02  0.45108899457E+02  0.75018481274E+02  0.00000000000E+00 0. -1.
         11    1    1    2    0    0 -0.10250939863E+03  0.75208012058E+02  0.25790935186E+02  0.12972892593E+03  0.00000000000E+00 0.  1.
</event>
<event>
 7    1  0.2522928E-009  0.2555000E+03  0.7561462E-02  0.1109877E+00
         -1   -1    0    0    0  501 -0.00000000000E+00  0.00000000000E+00  0.63489886269E+02  0.63489886269E+02  0.00000000000E+00 0.  1.
          1   -1    0    0  501    0  0.00000000000E+00 -0.00000000000E+00 -0.12070954761E+04  0.12070954761E+04  0.00000000000E+00 0. -1.
         25    2    1    2    0    0 -0.24683702039E+03 -0.64119541081E+01 -0.44441813542E+03  0.52356894441E+03  0.12508929879E+03 0.  0.
          5    1    3    3  502    0 -0.21137125012E+03 -0.36891662662E+02 -0.41755565645E+03  0.46947736770E+03  0.41800000000E+01 0.  1.
         -5    1    3    3    0  502 -0.35465770268E+02  0.30479708554E+02 -0.26862478966E+02  0.54091576705E+02  0.41800000000E+01 0.  1.
        -11    1    1    2    0    0  0.70330802557E+02  0.17867869604E+02 -0.10941129238E+03  0.13128790292E+03  0.00000000000E+00 0.  1.
         11    1    1    2    0    0  0.17650621783E+03 -0.11455915496E+02 -0.58977616206E+03  0.61572851507E+03  0.00000000000E+00 0. -1.
</event>
<event>
 7    1  0.2522928E-009  0.1041026E+03  0.7561462E-02  0.1271898E+00
          2   -1    0    0  501    0  0.00000000000E+00  0.00000000000E+00  0.58347339384E+03  0.58347339384E+03  0.00000000000E+00 0.  1.
         -2   -1    0    0    0  501 -0.00000000000E+00 -0.00000000000E+00 -0.21902519976E+02  0.21902519976E+02  0.00000000000E+00 0. -1.
         25    2    1    2    0    0  0.64908548879E+01 -0.32910929082E+02  0.30675374539E+03  0.33297230539E+03  0.12508970938E+03 0.  0.
          5    1    3    3  502    0  0.42122073398E+02 -0.66057796667E+02  0.15804129700E+03  0.17644383108E+03  0.41800000000E+01 0. -1.
         -5    1    3    3    0  502 -0.35631218510E+02  0.33146867585E+02  0.14871244839E+03  0.15652847431E+03  0.41800000000E+01 0. -1.
        -11    1    1    2    0    0 -0.31838967835E+02 -0.79530437144E+01  0.18335486390E+03  0.18626856120E+03  0.00000000000E+00 0.  1.
         11    1    1    2    0    0  0.25348112947E+02  0.40863972796E+02  0.71462264575E+02  0.86135047228E+02  0.00000000000E+00 0. -1.
</event>
<event>
 7    1  0.2522928E-009  0.8035090E+02  0.7561462E-02  0.1328059E+00
          4   -1    0    0  501    0  0.00000000000E+00  0.00000000000E+00  0.25585685981E+03  0.25585685981E+03  0.00000000000E+00 0. -1.
         -4   -1    0    0    0  501 -0.00000000000E+00 -0.00000000000E+00 -0.63657183491E+02  0.63657183491E+02  0.00000000000E+00 0.  1.
         25    2    1    2    0    0 -0.20373305259E+02 -0.20473808749E+02  0.16109497427E+03  0.20599380424E+03  0.12509040027E+03 0.  0.
          5    1    3    3  502    0  0.46680737499E+02 -0.36305668976E+02  0.77895709247E+02  0.97889768476E+02  0.41800000000E+01 0.  1.
         -5    1    3    3    0  502 -0.67054042758E+02  0.15831860227E+02  0.83199265024E+02  0.10810403577E+03  0.41800000000E+01 0.  1.
        -11    1    1    2    0    0  0.32902069268E+01  0.13577093802E+02 -0.38794941299E+02  0.41233607751E+02  0.00000000000E+00 0.  1.
         11    1    1    2    0    0  0.17083098332E+02  0.68967149473E+01  0.69899643353E+02  0.72286631313E+02  0.00000000000E+00 0. -1.
</event>
<event>
 7    1  0.2522928E-009  0.8863965E+02  0.7561462E-02  0.1306180E+00
          1   -1    0    0  501    0  0.00000000000E+00  0.00000000000E+00  0.93758407468E+03  0.93758407468E+03  0.00000000000E+00 0. -1.
         -1   -1    0    0    0  501 -0.00000000000E+00 -0.00000000000E+00 -0.23536217758E+02  0.23536217758E+02  0.00000000000E+00 0.  1.
         25    2    1    2    0    0  0.29169288070E+02 -0.10599005929E+01  0.84734897329E+03  0.85702962472E+03  0.12509006501E+03 0.  0.
          5    1    3    3  502    0  0.69484425534E+02  0.29689747159E+02  0.43226691936E+03  0.43884134770E+03  0.41800000000E+01 0. -1.
         -5    1    3    3    0  502 -0.40315137463E+02 -0.30749647752E+02  0.41508205393E+03  0.41818827702E+03  0.41800000000E+01 0. -1.
        -11    1    1    2    0    0  0.10766502626E+02  0.69791231047E+00 -0.11816892986E+02  0.16001363074E+02  0.00000000000E+00 0.  1.
         11    1    1    2    0    0 -0.39935790696E+02  0.36198828246E+00  0.78515776617E+02  0.88089304639E+02  0.00000000000E+00 0. -1.
</event>
<event>
 7    1  0.2522928E-009  0.1577692E+03  0.7561462E-02  0.1191239E+00
          2   -1    0    0  501    0  0.00000000000E+00  0.00000000000E+00  0.27452052728E+03  0.27452052728E+03  0.00000000000E+00 0. -1.
         -2   -1    0    0    0  501 -0.00000000000E+00 -0.00000000000E+00 -0.11439793969E+03  0.11439793969E+03  0.00000000000E+00 0.  1.
         25    2    1    2    0    0  0.12560340961E+03  0.57813502626E+00  0.21832838235E+02  0.17860756201E+03  0.12508971834E+03 0.  0.
          5    1    3    3  502    0  0.14787478274E+03 -0.73063806090E+01  0.30641623096E+01  0.14814586075E+03  0.41800000000E+01 0.  1.
         -5    1    3    3    0  502 -0.22271373122E+02  0.78845156353E+01  0.18768675925E+02  0.30461701258E+02  0.41800000000E+01 0.  1.
        -11    1    1    2    0    0 -0.55673839605E+02  0.34191562754E+02  0.19561962891E+02  0.68200511524E+02  0.00000000000E+00 0.  1.
         11    1    1    2    0    0 -0.69929570010E+02 -0.34769697781E+02  0.11872778646E+03  0.14211039344E+03  0.00000000000E+00 0. -1.
</event>
<event>
 7    1  0.2522928E-009  0.2479930E+03  0.7561462E-02  0.1114580E+00
         -2   -1    0    0    0  501 -0.00000000000E+00  0.00000000000E+00  0.18173680940E+03  0.18173680940E+03  0.00000000000E+00 0.  1.
          2   -1    0    0  501    0  0.00000000000E+00 -0.00000000000E+00 -0.39653475562E+03  0.39653475562E+03  0.00000000000E+00 0. -1.
         25    2    1    2    0    0  0.18600747969E+02 -0.23494875670E+03 -0.18195439525E+03  0.32295745376E+03  0.12508880402E+03 0.  0.
          5    1    3    3  502    0 -0.31451307591E+02 -0.56828852085E+02 -0.24418945961E+01  0.65131700636E+02  0.41800000000E+01 0.  1.
         -5    1    3    3    0  502  0.50052055560E+02 -0.17811990462E+03 -0.17951250065E+03  0.25782575313E+03  0.41800000000E+01 0.  1.
        -11    1    1    2    0    0 -0.43741219120E+02  0.10992874642E+03  0.14690851881E+02  0.11922015211E+03  0.00000000000E+00 0.  1.
         11    1    1    2    0    0  0.25140471151E+02  0.12502001028E+03 -0.47534402860E+02  0.13609395914E+03  0.00000000000E+00 0. -1.
</event>
<event>
 7    1  0.2522928E-009  0.1253866E+03  0.7561462E-02  0.1234466E+00
         -1   -1    0    0    0  501 -0.00000000000E+00  0.00000000000E+00  0.90048351665E+02  0.90048351665E+02  0.00000000000E+00 0.  1.
          1   -1    0    0  501    0  0.00000000000E+00 -0.00000000000E+00 -0.31598205161E+03  0.31598205161E+03  0.00000000000E+00 0. -1.
         25    2    1    2    0    0  0.90832025109E+02  0.59316819862E+02 -0.36513202219E+02  0.16955729797E+03  0.12509005338E+03 0.  0.
          5    1    3    3  502    0  0.10202014499E+03  0.57157374699E+02 -0.68329570301E+02  0.13550453145E+03  0.41800000000E+01 0.  1.
         -5    1    3    3    0  502 -0.11188119878E+02  0.21594451634E+01  0.31816368081E+02  0.34052766521E+02  0.41800000000E+01 0.  1.
        -11    1    1    2    0    0 -0.11188208846E+02  0.10770259970E+02  0.38492078242E+01  0.15999716181E+02  0.00000000000E+00 0.  1.
         11    1    1    2    0    0 -0.79643816263E+02 -0.70087079832E+02 -0.19326970555E+03  0.22047338912E+03  0.00000000000E+00 0. -1.
</event>
<event>
 7    1  0.2522928E-009  0.1625059E+03  0.7561462E-02  0.1185896E+00
         -4   -1    0    0    0  501 -0.00000000000E+00  0.00000000000E+00  0.77356310037E+03  0.77356310037E+03  0.00000000000E+00 0.  1.
          4   -1    0    0  501    0  0.00000000000E+00 -0.00000000000E+00 -0.41226149171E+02  0.41226149171E+02  0.00000000000E+00 0. -1.
         25    2    1    2    0    0 -0.13363242146E+03  0.44058434115E+02  0.42839698673E+03  0.46794325764E+03  0.12509254354E+03 0.  0.
          5    1    3    3  502    0 -0.14791882462E+03  0.25715992656E+02  0.41370263359E+03  0.44012342859E+03  0.41800000000E+01 0. -1.
         -5    1    3    3    0  502  0.14286403167E+02  0.18342441459E+02  0.14694353145E+02  0.27819829052E+02  0.41800000000E+01 0. -1.
        -11    1    1    2    0    0  0.50275201387E+02 -0.45524105489E+02  0.21270450414E+03  0.22325601030E+03  0.00000000000E+00 0.  1.
         11    1    1    2    0    0  0.83357220069E+02  0.14656713740E+01  0.91235460329E+02  0.12358998160E+03  0.00000000000E+00 0. -1.
</event>
<event>
 7    1  0.2522928E-009  0.1237286E+03  0.7561462E-02  0.1237070E+00
         -1   -1    0    0    0  501 -0.00000000000E+00  0.00000000000E+00  0.40821047688E+02  0.40821047688E+02  0.00000000000E+00 0.  1.
          1   -1    0    0  501    0  0.00000000000E+00 -0.00000000000E+00 -0.51380659672E+03  0.51380659672E+03  0.00000000000E+00 0. -1.
         25    2    1    2    0    0 -0.93222620256E+02 -0.17327446356E+02 -0.28058867740E+03  0.32151031664E+03  0.12509268762E+03 0.  0.
          5    1    3    3  502    0  0.12938631636E+02  0.53674828669E+01 -0.15401054103E+03  0.15470273821E+03  0.41800000000E+01 0. -1.
         -5    1    3    3    0  502 -0.10616125189E+03 -0.22694929223E+02 -0.12657813637E+03  0.16680757844E+03  0.41800000000E+01 0. -1.
        -11    1    1    2    0    0  0.10398577000E+03  0.21890882612E+00 -0.18374971824E+03  0.21113277158E+03  0.00000000000E+00 0. -1.
         11    1    1    2    0    0 -0.10763149740E+02  0.17108537530E+02 -0.86471533884E+01  0.21984556181E+02  0.00000000000E+00 0.  1.
</event>
<event>
 7    1  0.2522928E-009  0.6630041E+02  0.7561462E-02  0.1373146E+00
         -2   -1    0    0    0  501 -0.00000000000E+00  0.00000000000E+00  0.27963788130E+02  0.27963788130E+02  0.00000000000E+00 0.  1.
          2   -1    0    0  501    0  0.00000000000E+00 -0.00000000000E+00 -0.88975086339E+03  0.88975086339E+03  0.00000000000E+00 0. -1.
         25    2    1    2    0    0  0.24903548114E+02 -0.88507751232E+01 -0.77942230006E+03  0.78983850602E+03  0.12508885176E+03 0.  0.
          5    1    3    3  502    0  0.23828109119E+02 -0.16544447709E+02 -0.78041143464E+03  0.78096157220E+03  0.41800000000E+01 0. -1.
         -5    1    3    3    0  502  0.10754389954E+01  0.76936725861E+01  0.98913457918E+00  0.88769338237E+01  0.41800000000E+01 0. -1.
        -11    1    1    2    0    0 -0.16577284606E+02 -0.40845875138E+02 -0.55165450166E+02  0.70614579038E+02  0.00000000000E+00 0. -1.
         11    1    1    2    0    0 -0.83262635080E+01  0.49696650261E+02 -0.27199325034E+02  0.57261566460E+02  0.00000000000E+00 0.  1.
</event>
<event>
 7    1  0.2522928E-009  0.6005385E+02  0.7561462E-02  0.1397606E+00
         -3   -1    0    0    0  501 -0.00000000000E+00  0.00000000000E+00  0.35616110095E+02  0.35616110095E+02  0.00000000000E+00 0.  1.
          3   -1    0    0  501    0  0.00000000000E+00 -0.00000000000E+00 -0.43203436542E+03  0.43203436542E+03  0.00000000000E+00 0. -1.
         25    2    1    2    0    0  0.21783892549E+02  0.45694386200E+02 -0.27732604782E+03  0.30841544877E+03  0.12509131598E+03 0.  0.
          5    1    3    3  502    0 -0.83033052185E+01  0.13921395824E+00 -0.24429092721E+03  0.24446777655E+03  0.41800000000E+01 0.  1.
         -5    1    3    3    0  502  0.30087197767E+02  0.45555172242E+02 -0.33035120619E+02  0.63947672215E+02  0.41800000000E+01 0.  1.
        -11    1    1    2    0    0 -0.21563592873E+02 -0.17257621138E+02 -0.12679859854E+03  0.12977171732E+03  0.00000000000E+00 0. -1.
         11    1    1    2    0    0 -0.22029967572E+00 -0.28436765062E+02  0.77063910416E+01  0.29463309421E+02  0.00000000000E+00 0.  1.
</event>
<event>
 7    1  0.2522928E-009  0.1289591E+03  0.7561462E-02  0.1229008E+00
          2   -1    0    0  501    0  0.00000000000E+00  0.00000000000E+00  0.50255118055E+03  0.50255118055E+03  0.00000000000E+00 0. -1.
         -2   -1    0    0    0  501 -0.00000000000E+00 -0.00000000000E+00 -0.49226842554E+02  0.49226842554E+02  0.00000000000E+00 0.  1.
         25    2    1    2    0    0 -0.10409825901E+03 -0.21036990299E+02  0.17343039585E+03  0.23875538928E+03  0.12508809382E+03 0.  0.
          5    1    3    3  502    0  0.20091796188E+02 -0.79722429189E+01 -0.33583346683E+01  0.22270782271E+02  0.41800000000E+01 0.  1.
         -5    1    3    3    0  502 -0.12419005520E+03 -0.13064747380E+02  0.17678873052E+03  0.21648460701E+03  0.41800000000E+01 0.  1.
        -11    1    1    2    0    0  0.28537942198E+02  0.20940311117E+02  0.19980211452E+03  0.20291327148E+03  0.00000000000E+00 0. -1.
         11    1    1    2    0    0  0.75560316811E+02  0.96679182632E-01  0.80091827620E+02  0.11010936234E+03  0.00000000000E+00 0.  1.
</event>
<event>
 7    1  0.2522928E-009  0.6299337E+02  0.7561462E-02  0.1385683E+00
         -1   -1    0    0    0  501 -0.00000000000E+00  0.00000000000E+00  0.53092146596E+02  0.53092146596E+02  0.00000000000E+00 0. -1.
          1   -1    0    0  501    0  0.00000000000E+00 -0.00000000000E+00 -0.22274833111E+03  0.22274833111E+03  0.00000000000E+00 0.  1.
         25    2    1    2    0    0 -0.26701134327E+02  0.66467727064E+01 -0.69809699219E+02  0.14586971387E+03  0.12508976440E+03 0.  0.
          5    1    3    3  502    0 -0.52958201285E+02  0.46179598148E+01  0.16273535838E+02  0.55751206309E+02  0.41800000000E+01 0.  1.
         -5    1    3    3    0  502  0.26257066958E+02  0.20288128916E+01 -0.86083235057E+02  0.90118507560E+02  0.41800000000E+01 0.  1.
        -11    1    1    2    0    0 -0.34600412939E+00 -0.17025052755E+02 -0.99553496115E+02  0.10099936004E+03  0.00000000000E+00 0.  1.
         11    1    1    2    0    0  0.27047138456E+02  0.10378280049E+02 -0.29298918405E+00  0.28971403800E+02  0.00000000000E+00 0. -1.
</event>
<event>
 7    1  0.2522928E-009  0.2287199E+03  0.7561462E-02  0.1127544E+00
         -1   -1    0    0    0  501 -0.00000000000E+00  0.00000000000E+00  0.52001074280E+02  0.52001074280E+02  0.00000000000E+00 0.  1.
          1   -1    0    0  501    0  0.00000000000E+00 -0.00000000000E+00 -0.10917796764E+04  0.10917796764E+04  0.00000000000E+00 0. -1.
         25    2    1    2    0    0 -0.12205892680E+03 -0.17253788928E+03 -0.44460799746E+03  0.50792763052E+03  0.12508597680E+03 0.  0.
          5    1    3    3  502    0 -0.17380113595E+01  0.17172319666E+02 -0.15580366144E+02  0.23624763605E+02  0.41800000000E+01 0.  1.
         -5    1    3    3    0  502 -0.12032091544E+03 -0.18971020894E+03 -0.42902763131E+03  0.48430286691E+03  0.41800000000E+01 0.  1.
        -11    1    1    2    0    0  0.39610397919E+02  0.27708869451E+02 -0.71528611571E+02  0.86331380985E+02  0.00000000000E+00 0. -1.
         11    1    1    2    0    0  0.82448528885E+02  0.14482901982E+03 -0.52364199307E+03  0.54952173915E+03  0.00000000000E+00 0.  1.
</event>
<event>
 7    1  0.2522928E-009  0.1175929E+03  0.7561462E-02  0.1247122E+00
         -2   -1    0    0    0  501 -0.00000000000E+00  0.00000000000E+00  0.38010788551E+02  0.38010788551E+02  0.00000000000E+00 0.  1.
          2   -1    0    0  501    0  0.00000000000E+00 -0.00000000000E+00 -0.53646277398E+03  0.53646277398E+03  0.00000000000E+00 0. -1.
         25    2    1    2    0    0 -0.75221236147E+02 -0.46468587686E+02 -0.22068367029E+03  0.26863742161E+03  0.12508884020E+03 0.  0.
          5    1    3    3  502    0 -0.83642241766E+02 -0.15729493783E+02 -0.58645917661E+02  0.10344204967E+03  0.41800000000E+01 0.  1.
         -5    1    3    3    0  502  0.84210056192E+01 -0.30739093903E+02 -0.16203775263E+03  0.16519537193E+03  0.41800000000E+01 0.  1.
        -11    1    1    2    0    0  0.78938687366E+02  0.81799338747E+01 -0.23630737889E+03  0.24927776675E+03  0.00000000000E+00 0. -1.
         11    1    1    2    0    0 -0.37174512191E+01  0.38288653811E+02 -0.41460936243E+02  0.56558374167E+02  0.00000000000E+00 0.  1.
</event>
<event>
 7    1  0.2522928E-009  0.1237081E+03  0.7561462E-02  0.1237102E+00
          1   -1    0    0  501    0  0.00000000000E+00  0.00000000000E+00  0.52865638302E+02  0.52865638302E+02  0.00000000000E+00 0. -1.
         -1   -1    0    0    0  501 -0.00000000000E+00 -0.00000000000E+00 -0.31068203417E+03  0.31068203417E+03  0.00000000000E+00 0.  1.
         25    2    1    2    0    0  0.53540758964E+02  0.47596139035E+02 -0.11231656203E+03  0.18274146524E+03  0.12508967860E+03 0.  0.
          5    1    3    3  502    0  0.32637613244E+02  0.89296257531E+02 -0.59887205173E+02  0.11244102966E+03  0.41800000000E+01 0.  1.
         -5    1    3    3    0  502  0.20903145720E+02 -0.41700118496E+02 -0.52429356852E+02  0.70300435585E+02  0.41800000000E+01 0.  1.
        -11    1    1    2    0    0 -0.53848664690E+02 -0.67030320578E+02 -0.13039269629E+03  0.15618898108E+03  0.00000000000E+00 0.  1.
         11    1    1    2    0    0  0.30790572609E+00  0.19434181542E+02 -0.15107137554E+02  0.24617226149E+02  0.00000000000E+00 0. -1.
</event>
<event>
 7    1  0.2522928E-009  0.1194706E+03  0.7561462E-02  0.1243973E+00
          1   -1    0    0  501    0  0.00000000000E+00  0.00000000000E+00  0.14553667993E+03  0.14553667993E+03  0.00000000000E+00 0. -1.
         -1   -1    0    0    0  501 -0.00000000000E+00 -0.00000000000E+00 -0.14144774665E+03  0.14144774665E+03  0.00000000000E+00 0.  1.
         25    2    1    2    0    0  0.49119763541E+02  0.39602460696E+02 -0.67173240229E+02  0.15537234454E+03  0.12508882917E+03 0.  0.
          5    1    3    3  502    0 -0.33402776496E+02 -0.81015201168E+01 -0.46113563529E+02  0.57665529107E+02  0.41800000000E+01 0. -1.
         -5    1    3    3    0  502  0.82522540038E+02  0.47703980813E+02 -0.21059676700E+02  0.97706815435E+02  0.41800000000E+01 0. -1.
        -11    1    1    2    0    0 -0.73050497804E+02 -0.14979880939E+02  0.37543350300E+02  0.83488174097E+02  0.00000000000E+00 0. -1.
         11    1    1    2    0    0  0.23930734262E+02 -0.24622579757E+02  0.33718823210E+02  0.48123907935E+02  0.00000000000E+00 0.  1.
</event>
<event>
 7    1  0.3193428E-009  0.1848688E+03  0.7561462E-02  0.1163172E+00
         -4   -1    0    0    0  501 -0.00000000000E+00  0.00000000000E+00  0.57716221409E+02  0.57716221409E+02  0.00000000000E+00 0.  1.
          4   -1    0    0  501    0  0.00000000000E+00 -0.00000000000E+00 -0.77213473853E+03  0.77213473853E+03  0.00000000000E+00 0. -1.
         25    2    1    2    0    0 -0.15184070596E+03 -0.56969851490E+02 -0.21512077066E+03  0.29702883424E+03  0.12509203987E+03 0.  0.
          5    1    3    3  502    0 -0.23014534574E+02 -0.68080951182E+02 -0.51854078514E+02  0.88718670944E+02  0.41800000000E+01 0. -1.
         -5    1    3    3    0  502 -0.12882617139E+03  0.11111099692E+02 -0.16326669215E+03  0.20831016330E+03  0.41800000000E+01 0. -1.
        -11    1    1    2    0    0  0.62024658849E+02  0.11901226239E-01 -0.30575818205E+03  0.31198577585E+03  0.00000000000E+00 0. -1.
         11    1    1    2    0    0  0.89816047111E+02  0.56957950264E+02 -0.19353956441E+03  0.22083634984E+03  0.00000000000E+00 0.  1.
</event>
<event>
 7    1  0.2522928E-009  0.6150887E+02  0.7561462E-02  0.1391607E+00
         -1   -1    0    0    0  501 -0.00000000000E+00  0.00000000000E+00  0.30547077255E+02  0.30547077255E+02  0.00000000000E+00 0.  1.
          1   -1    0    0  501    0  0.00000000000E+00 -0.00000000000E+00 -0.77678870614E+03  0.77678870614E+03  0.00000000000E+00 0. -1.
         25    2    1    2    0    0  0.14740290720E+02 -0.32558189078E+02 -0.67205038468E+03  0.68452565852E+03  0.12508535394E+03 0.  0.
          5    1    3    3  502    0  0.17008772957E+02  0.84101101015E+01 -0.11274000029E+02  0.22463387680E+02  0.41800000000E+01 0.  1.
         -5    1    3    3    0  502 -0.22684822367E+01 -0.40968299180E+02 -0.66077638466E+03  0.66206227084E+03  0.41800000000E+01 0.  1.
        -11    1    1    2    0    0 -0.19254017317E+02 -0.84947116062E+01 -0.78512845976E+02  0.81284342227E+02  0.00000000000E+00 0. -1.
         11    1    1    2    0    0  0.45137265968E+01  0.41052900684E+02  0.43216017794E+01  0.41525782646E+02  0.00000000000E+00 0.  1.
</event>
<event>
 7    1  0.2522928E-009  0.1322937E+03  0.7561462E-02  0.1224091E+00
         -1   -1    0    0    0  501 -0.00000000000E+00  0.00000000000E+00  0.44580085812E+02  0.44580085812E+02  0.00000000000E+00 0.  1.
          1   -1    0    0  501    0  0.00000000000E+00 -0.00000000000E+00 -0.55982904269E+03  0.55982904269E+03  0.00000000000E+00 0. -1.
         25    2    1    2    0    0  0.65382916836E+02  0.96613402615E+02 -0.27362736511E+03  0.32268983219E+03  0.12509083691E+03 0.  0.
          5    1    3    3  502    0  0.23816841288E+01  0.19990814558E+02  0.95062116817E+01  0.22652716096E+02  0.41800000000E+01 0. -1.
         -5    1    3    3    0  502  0.63001232707E+02  0.76622588057E+02 -0.28313357679E+03  0.30003711609E+03  0.41800000000E+01 0. -1.
        -11    1    1    2    0    0 -0.35146868739E+02 -0.10711373745E+03 -0.19285895156E+03  0.22339030939E+03  0.00000000000E+00 0.  1.
         11    1    1    2    0    0 -0.30236048097E+02  0.10500334833E+02 -0.48762640200E+02  0.58328986922E+02  0.00000000000E+00 0. -1.
</event>
<event>
 7    1  0.2522928E-009  0.9260771E+02  0.7561462E-02  0.1296657E+00
         -1   -1    0    0    0  501 -0.00000000000E+00  0.00000000000E+00  0.16866473738E+03  0.16866473738E+03  0.00000000000E+00 0.  1.
          1   -1    0    0  501    0  0.00000000000E+00 -0.00000000000E+00 -0.11556587290E+03  0.11556587290E+03  0.00000000000E+00 0. -1.
         25    2    1    2    0    0  0.18090078903E+02  0.13294665188E+02  0.11642504645E+03  0.17235293915E+03  0.12508695022E+03 0.  0.
          5    1    3    3  502    0  0.45684401791E+02  0.37017743773E+02  0.99862497786E+01  0.59787753811E+02  0.41800000000E+01 0.  1.
         -5    1    3    3    0  502 -0.27594322888E+02 -0.23723078585E+02  0.10643879667E+03  0.11256518534E+03  0.41800000000E+01 0.  1.
        -11    1    1    2    0    0 -0.13470998819E+02  0.36873912470E+02 -0.14879616112E+02  0.41982808453E+02  0.00000000000E+00 0. -1.
         11    1    1    2    0    0 -0.46190800845E+01 -0.50168577658E+02 -0.48446565854E+02  0.69894862673E+02  0.00000000000E+00 0.  1.
</event>
<event>
 7    1  0.2522928E-009  0.1152826E+03  0.7561462E-02  0.1251089E+00
         -2   -1    0    0    0  501 -0.00000000000E+00  0.00000000000E+00  0.25626466061E+02  0.25626466061E+02  0.00000000000E+00 0.  1.
          2   -1    0    0  501    0  0.00000000000E+00 -0.00000000000E+00 -0.61355876384E+03  0.61355876384E+03  0.00000000000E+00 0. -1.
         25    2    1    2    0    0 -0.45527130867E+01 -0.66859158057E+02 -0.32468747718E+03  0.35434607297E+03  0.12509319479E+03 0.  0.
          5    1    3    3  502    0 -0.31485833695E+02 -0.85907219805E+02 -0.29785199677E+03  0.31161625843E+03  0.41800000000E+01 0. -1.
         -5    1    3    3    0  502  0.26933120608E+02  0.19048061748E+02 -0.26835480405E+02  0.42729814540E+02  0.41800000000E+01 0. -1.
        -11    1    1    2    0    0 -0.35528023472E+02  0.51995485521E+02 -0.12240094507E+03  0.13765087112E+03  0.00000000000E+00 0. -1.
         11    1    1    2    0    0  0.40080736558E+02  0.14863672536E+02 -0.14084387553E+03  0.14718828581E+03  0.00000000000E+00 0.  1.
</event>
<event>
 7    1  0.2522928E-009  0.8403785E+02  0.7561462E-02  0.1317968E+00
          1   -1    0    0  501    0  0.00000000000E+00  0.00000000000E+00  0.32986990528E+03  0.32986990528E+03  0.00000000000E+00 0. -1.
         -1   -1    0    0    0  501 -0.00000000000E+00 -0.00000000000E+00 -0.40306845920E+02  0.40306845920E+02  0.00000000000E+00 0.  1.
         25    2    1    2    0    0 -0.98798278273E+01 -0.37628148578E+02  0.18026223075E+03  0.22284304469E+03  0.12510420523E+03 0.  0.
          5    1    3    3  502    0 -0.41051617322E+02 -0.66070885466E+02  0.15502719420E+03  0.17349784014E+03  0.41800000000E+01 0. -1.
         -5    1    3    3    0  502  0.31171789495E+02  0.28442736889E+02  0.25235036554E+02  0.49345204548E+02  0.41800000000E+01 0. -1.
        -11    1    1    2    0    0  0.12108286128E+02  0.22383004826E+01 -0.14227822263E+02  0.18816256492E+02  0.00000000000E+00 0.  1.
         11    1    1    2    0    0 -0.22284583011E+01  0.35389848095E+02  0.12352865087E+03  0.12851745002E+03  0.00000000000E+00 0. -1.
</event>
<event>
 7    1  0.2522928E-009  0.2069065E+03  0.7561462E-02  0.1144039E+00
         -2   -1    0    0    0  501 -0.00000000000E+00  0.00000000000E+00  0.74751447435E+02  0.74751447435E+02  0.00000000000E+00 0.  1.
          2   -1    0    0  501    0  0.00000000000E+00 -0.00000000000E+00 -0.59549675156E+03  0.59549675156E+03  0.00000000000E+00 0. -1.
         25    2    1    2    0    0 -0.75956795516E+02 -0.16226578759E+03 -0.30642280794E+03  0.37635409006E+03  0.12509133972E+03 0.  0.
          5    1    3    3  502    0 -0.86147885023E+02 -0.47882534767E+02 -0.10234928875E+03  0.14215148447E+03  0.41800000000E+01 0. -1.
         -5    1    3    3    0  502  0.10191089506E+02 -0.11438325283E+03 -0.20407351919E+03  0.23420260559E+03  0.41800000000E+01 0. -1.
        -11    1    1    2    0    0  0.66099473491E+02  0.17328669798E+03 -0.20484612734E+03  0.27633196698E+03  0.00000000000E+00 0. -1.
         11    1    1    2    0    0  0.98573220259E+01 -0.11020910385E+02 -0.94763688559E+01  0.17562141952E+02  0.00000000000E+00 0.  1.
</event>
<event>
 7    1  0.2522928E-009  0.1041001E+03  0.7561462E-02  0.1271903E+00
         -2   -1    0    0    0  501 -0.00000000000E+00  0.00000000000E+00  0.14049851762E+03  0.14049851762E+03  0.00000000000E+00 0.  1.
          2   -1    0    0  501    0  0.00000000000E+00 -0.00000000000E+00 -0.11938784428E+03  0.11938784428E+03  0.00000000000E+00 0. -1.
         25    2    1    2    0    0  0.12850939882E+02  0.21267176845E+02  0.77841616354E+02  0.14941292285E+03  0.12508982697E+03 0.  0.
          5    1    3    3  502    0 -0.55499084909E+02 -0.23670872082E+00  0.36975015849E+02  0.66819373342E+02  0.41800000000E+01 0. -1.
         -5    1    3    3    0  502  0.68350024790E+02  0.21503885565E+02  0.40866600505E+02  0.82593549507E+02  0.41800000000E+01 0. -1.
        -11    1    1    2    0    0 -0.39449998940E+02  0.90112764025E+01 -0.57322255088E+02  0.70166562173E+02  0.00000000000E+00 0. -1.
         11    1    1    2    0    0  0.26599059058E+02 -0.30278453247E+02  0.59131207348E+00  0.40306876880E+02  0.00000000000E+00 0.  1.
</event>
<event>
 7    1  0.2522928E-009  0.1213156E+03  0.7561462E-02  0.1240942E+00
          2   -1    0    0  501    0  0.00000000000E+00  0.00000000000E+00  0.32383572053E+03  0.32383572053E+03  0.00000000000E+00 0. -1.
         -2   -1    0    0    0  501 -0.00000000000E+00 -0.00000000000E+00 -0.63123389588E+02  0.63123389588E+02  0.00000000000E+00 0.  1.
         25    2    1    2    0    0  0.42821849192E+02  0.71731780783E+02  0.19931780820E+03  0.24970883050E+03  0.12509097579E+03 0.  0.
          5    1    3    3  502    0 -0.19667890820E+02  0.82585960955E+02  0.13306382693E+03  0.15789465258E+03  0.41800000000E+01 0.  1.
         -5    1    3    3    0  502  0.62489740012E+02 -0.10854180173E+02  0.66253981266E+02  0.91814177922E+02  0.41800000000E+01 0.  1.
        -11    1    1    2    0    0 -0.47851053538E+01 -0.50068384369E+02 -0.12078155766E+02  0.51726416784E+02  0.00000000000E+00 0.  1.
         11    1    1    2    0    0 -0.38036743838E+02 -0.21663396413E+02  0.73472678516E+02  0.85523862835E+02  0.00000000000E+00 0. -1.
</event>
<event>
 7    1  0.3423853E-009  0.7471475E+02  0.7561462E-02  0.1344757E+00
         -2   -1    0    0    0  501 -0.00000000000E+00  0.00000000000E+00  0.27162410917E+02  0.27162410917E+02  0.00000000000E+00 0.  1.
          2   -1    0    0  501    0  0.00000000000E+00 -0.00000000000E+00 -0.76035024175E+03  0.76035024175E+03  0.00000000000E+00 0. -1.
         25    2    1    2    0    0  0.27196517791E+02  0.17265860006E+02 -0.64007346998E+03  0.65297684116E+03  0.12508775969E+03 0.  0.
          5    1    3    3  502    0  0.64449241502E+02  0.36134290527E+02 -0.25203876616E+03  0.26267927922E+03  0.41800000000E+01 0.  1.
         -5    1    3    3    0  502 -0.37252723711E+02 -0.18868430521E+02 -0.38803470382E+03  0.39029756195E+03  0.41800000000E+01 0.  1.
        -11    1    1    2    0    0 -0.20598834692E+02 -0.80359087466E+01 -0.11109554228E+03  0.11327447786E+03  0.00000000000E+00 0. -1.
         11    1    1    2    0    0 -0.65976830988E+01 -0.92299512597E+01  0.17981181429E+02  0.21261333639E+02  0.00000000000E+00 0.  1.
</event>
<event>
 7    1  0.2522928E-009  0.9836834E+02  0.7561462E-02  0.1283765E+00
          1   -1    0    0  501    0  0.00000000000E+00  0.00000000000E+00  0.54970498604E+03  0.54970498604E+03  0.00000000000E+00 0. -1.
         -1   -1    0    0    0  501 -0.00000000000E+00 -0.00000000000E+00 -0.20327350776E+02  0.20327350776E+02  0.00000000000E+00 0.  1.
         25    2    1    2    0    0  0.19746817320E+02 -0.14895811321E+02  0.33119541926E+03  0.35489369178E+03  0.12508918713E+03 0.  0.
          5    1    3    3  502    0  0.37330718321E+01  0.53375051215E+02  0.10319210462E+03  0.11631386321E+03  0.41800000000E+01 0. -1.
         -5    1    3    3    0  502  0.16013745488E+02 -0.68270862536E+02  0.22800331464E+03  0.23857982858E+03  0.41800000000E+01 0. -1.
        -11    1    1    2    0    0  0.23543497318E+01 -0.26121401711E+02  0.12959665518E+03  0.13222391472E+03  0.00000000000E+00 0. -1.
         11    1    1    2    0    0 -0.22101167052E+02  0.41017213033E+02  0.68585560822E+02  0.82914730315E+02  0.00000000000E+00 0.  1.
</event>
<event>
 7    1  0.2522928E-009  0.1065186E+03  0.7561462E-02  0.1267156E+00
         -2   -1    0    0    0  501 -0.00000000000E+00  0.00000000000E+00  0.16336118763E+03  0.16336118763E+03  0.00000000000E+00 0. -1.
          2   -1    0    0  501    0  0.00000000000E+00 -0.00000000000E+00 -0.76971725761E+02  0.76971725761E+02  0.00000000000E+00 0.  1.
         25    2    1    2    0    0 -0.28280637339E-01  0.15540449917E+02  0.25609784109E+02  0.12862423279E+03  0.12508727288E+03 0.  0.
          5    1    3    3  502    0  0.47217474520E+02 -0.28498954831E+02  0.31470694229E+02  0.63636132202E+02  0.41800000000E+01 0. -1.
         -5    1    3    3    0  502 -0.47245755157E+02  0.44039404748E+02 -0.58609101202E+01  0.64988100590E+02  0.41800000000E+01 0. -1.
        -11    1    1    2    0    0 -0.32602049638E+02 -0.40450057311E+02  0.40770356648E+02  0.66040311615E+02  0.00000000000E+00 0.  1.
         11    1    1    2    0    0  0.32630330275E+02  0.24909607394E+02  0.20009321116E+02  0.45668368986E+02  0.00000000000E+00 0. -1.
</event>
<event>
 7    1  0.2524377E-009  0.1132633E+03  0.7561462E-02  0.1254643E+00
         -1   -1    0    0    0  501 -0.00000000000E+00  0.00000000000E+00  0.18437441221E+02  0.18437441221E+02  0.00000000000E+00 0.  1.
          1   -1    0    0  501    0  0.00000000000E+00 -0.00000000000E+00 -0.12338847983E+04  0.12338847983E+04  0.00000000000E+00 0. -1.
         25    2    1    2    0    0 -0.75620974884E+02  0.61548532360E+02 -0.80399182491E+03  0.81948561347E+03  0.12508821878E+03 0.  0.
          5    1    3    3  502    0 -0.35563118801E+01 -0.18263826208E+02 -0.42725130882E+03  0.42767670967E+03  0.41800000000E+01 0.  1.
         -5    1    3    3    0  502 -0.72064663004E+02  0.79812358568E+02 -0.37674051609E+03  0.39180890380E+03  0.41800000000E+01 0.  1.
        -11    1    1    2    0    0  0.27594840107E+02 -0.99055387446E+01 -0.21001019449E+02  0.36064355204E+02  0.00000000000E+00 0.  1.
         11    1    1    2    0    0  0.48026134777E+02 -0.51642993615E+02 -0.39045451268E+03  0.39677227081E+03  0.00000000000E+00 0. -1.
</event>
<event>
 7    1  0.2522928E-009  0.6613873E+02  0.7561462E-02  0.1373739E+00
          2   -1    0    0  501    0  0.00000000000E+00  0.00000000000E+00  0.80510053033E+02  0.80510053033E+02  0.00000000000E+00 0. -1.
         -2   -1    0    0    0  501 -0.00000000000E+00 -0.00000000000E+00 -0.18275657766E+03  0.18275657766E+03  0.00000000000E+00 0.  1.
         25    2    1    2    0    0  0.29281215190E+02 -0.46423914907E+02 -0.57629373283E+02  0.14826262264E+03  0.12509233057E+03 0.  0.
          5    1    3    3  502    0  0.16441127973E+02 -0.57484545082E+02  0.24167198429E+02  0.64624372277E+02  0.41800000000E+01 0.  1.
         -5    1    3    3    0  502  0.12840087217E+02  0.11060630175E+02 -0.81796571711E+02  0.83638250360E+02  0.41800000000E+01 0.  1.
        -11    1    1    2    0    0 -0.85630197014E+01  0.13473810014E+02 -0.67831241253E+02  0.69684619197E+02  0.00000000000E+00 0.  1.
         11    1    1    2    0    0 -0.20718195488E+02  0.32950104893E+02  0.23214089906E+02  0.45319388863E+02  0.00000000000E+00 0. -1.
</event>
<event>
 7    1  0.2522928E-009  0.1172585E+03  0.7561462E-02  0.1247689E+00
          1   -1    0    0  501    0  0.00000000000E+00  0.00000000000E+00  0.79698431773E+02  0.79698431773E+02  0.00000000000E+00 0. -1.
         -1   -1    0    0    0  501 -0.00000000000E+00 -0.00000000000E+00 -0.38317868834E+03  0.38317868834E+03  0.00000000000E+00 0.  1.
         25    2    1    2    0    0  0.21562485087E+02 -0.87694267421E+02 -0.29156785121E+03  0.32987118935E+03  0.12509182388E+03 0.  0.
          5    1    3    3  502    0 -0.34161138545E+02 -0.74857540833E+02 -0.98214273467E+02  0.12819575156E+03  0.41800000000E+01 0. -1.
         -5    1    3    3    0  502  0.55723623632E+02 -0.12836726588E+02 -0.19335357774E+03  0.20167543778E+03  0.41800000000E+01 0. -1.
        -11    1    1    2    0    0  0.54798224378E+01  0.36352804265E+02  0.40581196343E+02  0.54757541293E+02  0.00000000000E+00 0. -1.
         11    1    1    2    0    0 -0.27042307524E+02  0.51341463156E+02 -0.52493601700E+02  0.78248389470E+02  0.00000000000E+00 0.  1.
</event>
<event>
 7    1  0.2522928E-009  0.1597542E+03  0.7561462E-02  0.1188975E+00
         -2   -1    0    0    0  501 -0.00000000000E+00  0.00000000000E+00  0.15387834368E+03  0.15387834368E+03  0.00000000000E+00 0. -1.
          2   -1    0    0  501    0  0.00000000000E+00 -0.00000000000E+00 -0.24104794063E+03  0.24104794063E+03  0.00000000000E+00 0.  1.
         25    2    1    2    0    0 -0.14921395366E+03 -0.26043213057E+02 -0.91663788330E+02  0.21677692470E+03  0.12508769755E+03 0.  0.
          5    1    3    3  502    0 -0.55070868985E+02 -0.41516010284E+02 -0.99302194636E+02  0.12097428644E+03  0.41800000000E+01 0.  1.
         -5    1    3    3    0  502 -0.94143084679E+02  0.15472797228E+02  0.76384063055E+01  0.95802638261E+02  0.41800000000E+01 0.  1.
        -11    1    1    2    0    0  0.84519293936E+02  0.31019998490E+02  0.46021493206E+02  0.10111245814E+03  0.00000000000E+00 0.  1.
         11    1    1    2    0    0  0.64694659728E+02 -0.49767854335E+01 -0.41527301832E+02  0.77036901469E+02  0.00000000000E+00 0. -1.
</event>
<event>
 7    1  0.2522928E-009  0.9868415E+02  0.7561462E-02  0.1283088E+00
         -1   -1    0    0    0  501 -0.00000000000E+00  0.00000000000E+00  0.49102922798E+02  0.49102922798E+02  0.00000000000E+00 0.  1.
          1   -1    0    0  501    0  0.00000000000E+00 -0.00000000000E+00 -0.26918452176E+03  0.26918452176E+03  0.00000000000E+00 0. -1.
         25    2    1    2    0    0 -0.13499502560E+02  0.32847149335E+02 -0.14626932890E+03  0.19571187228E+03  0.12508896268E+03 0.  0.
          5    1    3    3  502    0 -0.53782089022E+02 -0.91312627177E+01 -0.23021183668E+02  0.59357732064E+02  0.41800000000E+01 0. -1.
         -5    1    3    3    0  502  0.40282586461E+02  0.41978412053E+02 -0.12324814524E+03  0.13635414022E+03  0.41800000000E+01 0. -1.
        -11    1    1    2    0    0 -0.29611268223E+02  0.82788868102E+00  0.13032267798E+01  0.29651492467E+02  0.00000000000E+00 0.  1.
         11    1    1    2    0    0  0.43110770784E+02 -0.33675038016E+02 -0.75115496837E+02  0.92924079807E+02  0.00000000000E+00 0. -1.
</event>
<event>
 7    1  0.2522928E-009  0.1522674E+03  0.7561462E-02  0.1197714E+00
          1   -1    0    0  501    0  0.00000000000E+00  0.00000000000E+00  0.75017415274E+03  0.75017415274E+03  0.00000000000E+00 0. -1.
         -1   -1    0    0    0  501 -0.00000000000E+00 -0.00000000000E+00 -0.35933967044E+02  0.35933967044E+02  0.00000000000E+00 0.  1.
         25    2    1    2    0    0  0.10649855028E+03 -0.38937286776E+02  0.48754041308E+03  0.51594484079E+03  0.12508145678E+03 0.  0.
          5    1    3    3  502    0  0.87590146855E+01  0.35879843895E+02  0.56303118339E+02  0.67465525054E+02  0.41800000000E+01 0.  1.
         -5    1    3    3    0  502  0.97739535595E+02 -0.74817130671E+02  0.43123729475E+03  0.44847931573E+03  0.41800000000E+01 0.  1.
        -11    1    1    2    0    0 -0.33313792659E+02 -0.29135556231E+02  0.47138098786E+02  0.64658253730E+02  0.00000000000E+00 0.  1.
         11    1    1    2    0    0 -0.73184757622E+02  0.68072843008E+02  0.17956167382E+03  0.20550502527E+03  0.00000000000E+00 0. -1.
</event>
<event>
 7    1  0.2522928E-009  0.7476158E+02  0.7561462E-02  0.1344611E+00
         -1   -1    0    0    0  501 -0.00000000000E+00  0.00000000000E+00  0.17100073041E+02  0.17100073041E+02  0.00000000000E+00 0.  1.
          1   -1    0    0  501    0  0.00000000000E+00 -0.00000000000E+00 -0.80338013791E+03  0.80338013791E+03  0.00000000000E+00 0. -1.
         25    2    1    2    0    0  0.96220615531E+00  0.21501897059E+02 -0.57657737712E+03  0.59038315995E+03  0.12509015280E+03 0.  0.
          5    1    3    3  502    0 -0.77948681207E+01 -0.25486815734E+02 -0.49505337602E+03  0.49578791359E+03  0.41800000000E+01 0.  1.
         -5    1    3    3    0  502  0.87570742760E+01  0.46988712793E+02 -0.81524001097E+02  0.94595246364E+02  0.41800000000E+01 0.  1.
        -11    1    1    2    0    0 -0.90003093782E+01 -0.46987576752E+02 -0.54113238328E+02  0.72229360376E+02  0.00000000000E+00 0.  1.
         11    1    1    2    0    0  0.80381032229E+01  0.25485679693E+02 -0.15558944942E+03  0.15786769063E+03  0.00000000000E+00 0. -1.
</event>
<event>
 7    1  0.2522928E-009  0.8782329E+02  0.7561462E-02  0.1308210E+00
         -3   -1    0    0    0  501 -0.00000000000E+00  0.00000000000E+00  0.30054047681E+03  0.30054047681E+03  0.00000000000E+00 0.  1.
          3   -1    0    0  501    0  0.00000000000E+00 -0.00000000000E+00 -0.40831872311E+02  0.40831872311E+02  0.00000000000E+00 0. -1.
         25    2    1    2    0    0  0.21673764475E+02 -0.38586500676E+01  0.14034120115E+03  0.18929100287E+03  0.12510311658E+03 0.  0.
          5    1    3    3  502    0  0.55644478936E+02  0.19016266630E+02  0.13558879990E+03  0.14785033477E+03  0.41800000000E+01 0. -1.
         -5    1    3    3    0  502 -0.33970714461E+02 -0.22874916698E+02  0.47524012516E+01  0.41440668100E+02  0.41800000000E+01 0. -1.
        -11    1    1    2    0    0 -0.27458111654E+02 -0.30294958248E+02  0.10822902206E+03  0.11569465677E+03  0.00000000000E+00 0.  1.
         11    1    1    2    0    0  0.57843471791E+01  0.34153608316E+02  0.11138381287E+02  0.36386689475E+02  0.00000000000E+00 0. -1.
</event>
<event>
 7    1  0.2522928E-009  0.9525710E+02  0.7561462E-02  0.1290598E+00
          1   -1    0    0  501    0  0.00000000000E+00  0.00000000000E+00  0.15973110164E+03  0.15973110164E+03  0.00000000000E+00 0. -1.
         -1   -1    0    0    0  501 -0.00000000000E+00 -0.00000000000E+00 -0.10283476671E+03  0.10283476671E+03  0.00000000000E+00 0.  1.
         25    2    1    2    0    0 -0.38355597874E+02  0.54581388959E+02  0.47878574321E+02  0.14963496268E+03  0.12509190329E+03 0.  0.
          5    1    3    3  502    0  0.32568890468E+01  0.29655972967E+02  0.83852599819E+02  0.89100027807E+02  0.41800000000E+01 0. -1.
         -5    1    3    3    0  502 -0.41612486920E+02  0.24925415992E+02 -0.35974025498E+02  0.60534934877E+02  0.41800000000E+01 0. -1.
        -11    1    1    2    0    0  0.27997550080E+01  0.24676290080E+02  0.78833115978E+01  0.26055796321E+02  0.00000000000E+00 0. -1.
         11    1    1    2    0    0  0.35555842865E+02 -0.79257679039E+02  0.11344490043E+01  0.86875109341E+02  0.00000000000E+00 0.  1.
</event>
<event>
 7    1  0.2522928E-009  0.1098360E+03  0.7561462E-02  0.1260874E+00
          2   -1    0    0  501    0  0.00000000000E+00  0.00000000000E+00  0.27567239004E+03  0.27567239004E+03  0.00000000000E+00 0. -1.
         -2   -1    0    0    0  501 -0.00000000000E+00 -0.00000000000E+00 -0.74053254312E+02  0.74053254312E+02  0.00000000000E+00 0.  1.
         25    2    1    2    0    0 -0.44408355418E+02 -0.74852550438E+02  0.15205375892E+03  0.21528790128E+03  0.12511406194E+03 0.  0.
          5    1    3    3  502    0  0.34033924818E+01 -0.24986854926E+02 -0.18283246870E+02  0.31427305255E+02  0.41800000000E+01 0. -1.
         -5    1    3    3    0  502 -0.47811747900E+02 -0.49865695512E+02  0.17033700579E+03  0.18386059602E+03  0.41800000000E+01 0. -1.
        -11    1    1    2    0    0 -0.22908875692E+02  0.46537542818E+02  0.18424092363E+02  0.55045496241E+02  0.00000000000E+00 0.  1.
         11    1    1    2    0    0  0.67317231110E+02  0.28315007620E+02  0.31141284439E+02  0.79392246834E+02  0.00000000000E+00 0. -1.
</event>
<event>
 7    1  0.2522928E-009  0.1846898E+03  0.7561462E-02  0.1163340E+00
          1   -1    0    0  501    0  0.00000000000E+00  0.00000000000E+00  0.67331913773E+02  0.67331913773E+02  0.00000000000E+00 0. -1.
         -1   -1    0    0    0  501 -0.00000000000E+00 -0.00000000000E+00 -0.68324551961E+03  0.68324551961E+03  0.00000000000E+00 0.  1.
         25    2    1    2    0    0 -0.79050366819E+02  0.15110036187E+03 -0.19453166081E+03  0.28735019344E+03  0.12508911529E+03 0.  0.
          5    1    3    3  502    0  0.10783812317E+02  0.68832746682E+02 -0.16715248336E+02  0.71771230663E+02  0.41800000000E+01 0.  1.
         -5    1    3    3    0  502 -0.89834179135E+02  0.82267615184E+02 -0.17781641247E+03  0.21557896278E+03  0.41800000000E+01 0.  1.
        -11    1    1    2    0    0  0.60390600197E+02 -0.61566229449E+02 -0.29417149808E+03  0.30655227202E+03  0.00000000000E+00 0.  1.
         11    1    1    2    0    0  0.18659766622E+02 -0.89534132417E+02 -0.12721044695E+03  0.15667496792E+03  0.00000000000E+00 0. -1.
</event>
<event>
 7    1  0.2522928E-009  0.1202424E+03  0.7561462E-02  0.1242698E+00
          1   -1    0    0  501    0  0.00000000000E+00  0.00000000000E+00  0.14418848789E+03  0.14418848789E+03  0.00000000000E+00 0. -1.
         -1   -1    0    0    0  501 -0.00000000000E+00 -0.00000000000E+00 -0.14631098176E+03  0.14631098176E+03  0.00000000000E+00 0.  1.
         25    2    1    2    0    0  0.52047882779E+02 -0.78085995414E+02 -0.20290636607E+02  0.15768164144E+03  0.12508151474E+03 0.  0.
          5    1    3    3  502    0  0.13868623887E+02 -0.91272028079E+02 -0.52108750808E+02  0.10609295994E+03  0.41800000000E+01 0. -1.
         -5    1    3    3    0  502  0.38179258892E+02  0.13186032666E+02  0.31818114202E+02  0.51588681495E+02  0.41800000000E+01 0. -1.
        -11    1    1    2    0    0  0.87994921311E+01  0.25722373608E+02 -0.28967028216E+02  0.39726065618E+02  0.00000000000E+00 0.  1.
         11    1    1    2    0    0 -0.60847374910E+02  0.52363621805E+02  0.47135170954E+02  0.93091762594E+02  0.00000000000E+00 0. -1.
</event>
<event>
 7    1  0.2522928E-009  0.9271991E+02  0.7561462E-02  0.1296396E+00
         -1   -1    0    0    0  501 -0.00000000000E+00  0.00000000000E+00  0.18308790377E+03  0.18308790377E+03  0.00000000000E+00 0.  1.
          1   -1    0    0  501    0  0.00000000000E+00 -0.00000000000E+00 -0.68748593279E+02  0.68748593279E+02  0.00000000000E+00 0. -1.
         25    2    1    2    0    0  0.48325876138E+01 -0.25079369881E+02  0.48142469745E+02  0.13644400532E+03  0.12508773121E+03 0.  0.
          5    1    3    3  502    0  0.35335054899E+02  0.17776648335E+02 -0.24457554635E+02  0.46692822890E+02  0.41800000000E+01 0.  1.
         -5    1    3    3    0  502 -0.30502467286E+02 -0.42856018216E+02  0.72600024380E+02  0.89751182431E+02  0.41800000000E+01 0.  1.
        -11    1    1    2    0    0  0.23713039711E+02 -0.25497489198E+02  0.35404326128E+02  0.49657794114E+02  0.00000000000E+00 0.  1.
         11    1    1    2    0    0 -0.28545627325E+02  0.50576859078E+02  0.30792514616E+02  0.65734697611E+02  0.00000000000E+00 0. -1.
</event>
<event>
 7    1  0.2522928E-009  0.3645029E+03  0.7561462E-02  0.1056815E+00
         -1   -1    0    0    0  501 -0.00000000000E+00  0.00000000000E+00  0.21465306904E+03  0.21465306904E+03  0.00000000000E+00 0.  1.
          1   -1    0    0  501    0  0.00000000000E+00 -0.00000000000E+00 -0.62916996402E+03  0.62916996402E+03  0.00000000000E+00 0. -1.
         25    2    1    2    0    0 -0.11650974809E+03  0.32973011941E+03 -0.24203461885E+03  0.44331330551E+03  0.12509779004E+03 0.  0.
          5    1    3    3  502    0  0.13661424104E+02  0.14181180000E+03 -0.10078013857E+03  0.17456039028E+03  0.41800000000E+01 0. -1.
         -5    1    3    3    0  502 -0.13017117219E+03  0.18791831941E+03 -0.14125448028E+03  0.26875291522E+03  0.41800000000E+01 0. -1.
        -11    1    1    2    0    0  0.35116622210E+02 -0.21091143317E+03 -0.74956300743E+02  0.22657285102E+03  0.00000000000E+00 0. -1.
         11    1    1    2    0    0  0.81393125881E+02 -0.11881868624E+03 -0.97525975391E+02  0.17393687653E+03  0.00000000000E+00 0.  1.
</event>
<event>
 7    1  0.2522928E-009  0.1386063E+03  0.7561462E-02  0.1215217E+00
          2   -1    0    0  501    0  0.00000000000E+00  0.00000000000E+00  0.87897271164E+03  0.87897271164E+03  0.00000000000E+00 0. -1.
         -2   -1    0    0    0  501 -0.00000000000E+00 -0.00000000000E+00 -0.46240744259E+02  0.46240744259E+02  0.00000000000E+00 0.  1.
         25    2    1    2    0    0  0.63397636620E+02  0.59551019567E+02  0.76445803492E+03  0.77949293018E+03  0.12509019457E+03 0.  0.
          5    1    3    3  502    0  0.13333920498E+02 -0.38674495146E+02  0.24753487412E+03  0.25092727296E+03  0.41800000000E+01 0.  1.
         -5    1    3    3    0  502  0.50063716122E+02  0.98225514713E+02  0.51692316080E+03  0.52856565722E+03  0.41800000000E+01 0.  1.
        -11    1    1    2    0    0 -0.65121786108E+02  0.10578531019E+01  0.19743629876E+02  0.68057159798E+02  0.00000000000E+00 0. -1.
         11    1    1    2    0    0  0.17241494883E+01 -0.60608872669E+02  0.48530302579E+02  0.77663365920E+02  0.00000000000E+00 0.  1.
</event>
<event>
 7    1  0.2522928E-009  0.2908821E+03  0.7561462E-02  0.1089889E+00
          1   -1    0    0  501    0  0.00000000000E+00  0.00000000000E+00  0.27528953890E+04  0.27528953890E+04  0.00000000000E+00 0. -1.
         -1   -1    0    0    0  501 -0.00000000000E+00 -0.00000000000E+00 -0.41205255716E+02  0.41205255716E+02  0.00000000000E+00 0.  1.
         25    2    1    2    0    0 -0.22700437786E+03  0.16457467494E+03  0.19786429263E+04  0.20023212052E+04  0.12508624075E+03 0.  0.
          5    1    3    3  502    0 -0.14910082927E+03  0.52845080647E+02  0.77513103259E+03  0.79111898594E+03  0.41800000000E+01 0. -1.
         -5    1    3    3    0  502 -0.77903548593E+02  0.11172959429E+03  0.12035118937E+04  0.12112022192E+04  0.41800000000E+01 0. -1.
        -11    1    1    2    0    0  0.95702542347E+02 -0.10793065444E+03  0.47902651718E+03  0.50027433169E+03  0.00000000000E+00 0. -1.
         11    1    1    2    0    0  0.13130183552E+03 -0.56644020501E+02  0.25402068978E+03  0.29150510785E+03  0.00000000000E+00 0.  1.
</event>
<event>
 7    1  0.3508859E-009  0.1265640E+03  0.7561462E-02  0.1232645E+00
          2   -1    0    0  501    0  0.00000000000E+00  0.00000000000E+00  0.50030408709E+03  0.50030408709E+03  0.00000000000E+00 0.  1.
         -2   -1    0    0    0  501 -0.00000000000E+00 -0.00000000000E+00 -0.46474831935E+02  0.46474831935E+02  0.00000000000E+00 0. -1.
         25    2    1    2    0    0 -0.55785873294E+02 -0.72996628811E+02  0.34355488627E+03  0.37698634125E+03  0.12509264620E+03 0.  0.
          5    1    3    3  502    0  0.23075434028E+02 -0.82177418982E+01  0.78088799632E+01  0.26047225260E+02  0.41800000000E+01 0.  1.
         -5    1    3    3    0  502 -0.78861307322E+02 -0.64778886913E+02  0.33574600631E+03  0.35093911599E+03  0.41800000000E+01 0.  1.
        -11    1    1    2    0    0  0.59994156373E+02  0.74490010457E+01  0.71050078727E+02  0.93289335417E+02  0.00000000000E+00 0.  1.
         11    1    1    2    0    0 -0.42082830788E+01  0.65547627765E+02  0.39224290154E+02  0.76503242351E+02  0.00000000000E+00 0. -1.
</event>
<event>
 7    1  0.2522928E-009  0.6595366E+02  0.7561462E-02  0.1374420E+00
          2   -1    0    0  501    0  0.00000000000E+00  0.00000000000E+00  0.23799833540E+03  0.23799833540E+03  0.00000000000E+00 0. -1.
         -2   -1    0    0    0  501 -0.00000000000E+00 -0.00000000000E+00 -0.73810770288E+02  0.73810770288E+02  0.00000000000E+00 0.  1.
         25    2    1    2    0    0 -0.44281367930E+02  0.90348769061E+01  0.22125318271E+02  0.13483327244E+03  0.12509201853E+03 0.  0.
          5    1    3    3  502    0 -0.15511712216E+02 -0.80008756368E+01  0.72244449279E+02  0.74440312187E+02  0.41800000000E+01 0.  1.
         -5    1    3    3    0  502 -0.28769655714E+02  0.17035752543E+02 -0.50119131009E+02  0.60392960250E+02  0.41800000000E+01 0.  1.
        -11    1    1    2    0    0  0.40158675222E+02 -0.35427485451E+02  0.29200381719E+02  0.60995804885E+02  0.00000000000E+00 0.  1.
         11    1    1    2    0    0  0.41226927082E+01  0.26392608545E+02  0.11286186512E+03  0.11598002836E+03  0.00000000000E+00 0. -1.
</event>
<event>
 7    1  0.2522928E-009  0.1839249E+03  0.7561462E-02  0.1164058E+00
          2   -1    0    0  501    0  0.00000000000E+00  0.00000000000E+00  0.96379086811E+02  0.96379086811E+02  0.00000000000E+00 0. -1.
         -2   -1    0    0    0  501 -0.00000000000E+00 -0.00000000000E+00 -0.44626464502E+03  0.44626464502E+03  0.00000000000E+00 0.  1.
         25    2    1    2    0    0 -0.15529850630E+03 -0.84055725710E+02 -0.17457590507E+03  0.27804241255E+03  0.12509134848E+03 0.  0.
          5    1    3    3  502    0 -0.29007800222E+02 -0.40872009589E+02  0.89429073112E+01  0.51082498302E+02  0.41800000000E+01 0. -1.
         -5    1    3    3    0  502 -0.12629070608E+03 -0.43183716121E+02 -0.18351881238E+03  0.22695991425E+03  0.41800000000E+01 0. -1.
        -11    1    1    2    0    0  0.89740104771E+02  0.19135331454E+02 -0.38318145803E+02  0.99437053516E+02  0.00000000000E+00 0.  1.
         11    1    1    2    0    0  0.65558401532E+02  0.64920394257E+02 -0.13699150734E+03  0.16516426577E+03  0.00000000000E+00 0. -1.
</event>
<event>
 7    1  0.2522928E-009  0.8709264E+02  0.7561462E-02  0.1310049E+00
         -1   -1    0    0    0  501 -0.00000000000E+00  0.00000000000E+00  0.23025308309E+02  0.23025308309E+02  0.00000000000E+00 0.  1.
          1   -1    0    0  501    0  0.00000000000E+00 -0.00000000000E+00 -0.59594271418E+03  0.59594271418E+03  0.00000000000E+00 0. -1.
         25    2    1    2    0    0  0.64269939249E+01 -0.14028670218E+02 -0.43768510412E+03  0.45547081247E+03  0.12508917142E+03 0.  0.
          5    1    3    3  502    0 -0.44719508575E+02 -0.84686895219E+01 -0.35546206167E+03  0.35838848033E+03  0.41800000000E+01 0. -1.
         -5    1    3    3    0  502  0.51146502500E+02 -0.55599806959E+01 -0.82223042446E+02  0.97082332133E+02  0.41800000000E+01 0. -1.
        -11    1    1    2    0    0  0.32653798559E+02 -0.55973382286E+01 -0.10559088864E+03  0.11066632966E+03  0.00000000000E+00 0. -1.
         11    1    1    2    0    0 -0.39080792484E+02  0.19626008446E+02 -0.29641413109E+02  0.52830880362E+02  0.00000000000E+00 0.  1.
</event>
<event>
 7    1  0.2522928E-009  0.1118321E+03  0.7561462E-02  0.1257214E+00
          4   -1    0    0  501    0  0.00000000000E+00  0.00000000000E+00  0.14522626608E+03  0.14522626608E+03  0.00000000000E+00 0. -1.
         -4   -1    0    0    0  501 -0.00000000000E+00 -0.00000000000E+00 -0.11175792318E+03  0.11175792318E+03  0.00000000000E+00 0.  1.
         25    2    1    2    0    0  0.56849247990E+02 -0.22336111872E+02 -0.49954916511E+01  0.13929361192E+03  0.12508803497E+03 0.  0.
          5    1    3    3  502    0  0.89002786877E+02 -0.16563450544E+01  0.22627147724E+02  0.91944003420E+02  0.41800000000E+01 0. -1.
         -5    1    3    3    0  502 -0.32153538887E+02 -0.20679766817E+02 -0.27622639375E+02  0.47349608495E+02  0.41800000000E+01 0. -1.
        -11    1    1    2    0    0 -0.62890460412E+02 -0.95726974178E+01 -0.45689737356E+01  0.63778696033E+02  0.00000000000E+00 0.  1.
         11    1    1    2    0    0  0.60412124218E+01  0.31908809290E+02  0.43032808289E+02  0.53911881316E+02  0.00000000000E+00 0. -1.
</event>
<event>
 7    1  0.2522928E-009  0.8555036E+02  0.7561462E-02  0.1314000E+00
         -2   -1    0    0    0  501 -0.00000000000E+00  0.00000000000E+00  0.24542624968E+02  0.24542624968E+02  0.00000000000E+00 0.  1.
          2   -1    0    0  501    0  0.00000000000E+00 -0.00000000000E+00 -0.75374874371E+03  0.75374874371E+03  0.00000000000E+00 0. -1.
         25    2    1    2    0    0 -0.36175582426E+02  0.40762283758E+02 -0.24727904978E+03  0.28242575812E+03  0.12508854404E+03 0.  0.
          5    1    3    3  502    0 -0.19059933175E+02  0.20394752042E+02 -0.25326910548E+03  0.25483708355E+03  0.41800000000E+01 0.  1.
         -5    1    3    3    0  502 -0.17115649251E+02  0.20367531716E+02  0.59900556958E+01  0.27588674573E+02  0.41800000000E+01 0.  1.
        -11    1    1    2    0    0  0.57275508074E+02 -0.63099239088E+02 -0.32705467343E+03  0.33797449196E+03  0.00000000000E+00 0.  1.
         11    1    1    2    0    0 -0.21099925648E+02  0.22336955330E+02 -0.15487239553E+03  0.15789111860E+03  0.00000000000E+00 0. -1.
</event>
<event>
 7    1  0.2522928E-009  0.1010672E+03  0.7561462E-02  0.1278068E+00
         -1   -1    0    0    0  501 -0.00000000000E+00  0.00000000000E+00  0.23040602542E+03  0.23040602542E+03  0.00000000000E+00 0.  1.
          1   -1    0    0  501    0  0.00000000000E+00 -0.00000000000E+00 -0.64608047571E+02  0.64608047571E+02  0.00000000000E+00 0. -1.
         25    2    1    2    0    0  0.48906003546E+02 -0.24585802603E+02  0.10107159671E+03  0.16988212012E+03  0.12509279837E+03 0.  0.
          5    1    3    3  502    0  0.26638841250E+02  0.27547549198E+02 -0.14422008799E+02  0.41157770442E+02  0.41800000000E+01 0.  1.
         -5    1    3    3    0  502  0.22267162297E+02 -0.52133351801E+02  0.11549360551E+03  0.12872434968E+03  0.41800000000E+01 0.  1.
        -11    1    1    2    0    0 -0.50139742523E+02 -0.25768018370E+02  0.29136151227E+02  0.63457858925E+02  0.00000000000E+00 0. -1.
         11    1    1    2    0    0  0.12337389770E+01  0.50353820973E+02  0.35590229903E+02  0.61674093937E+02  0.00000000000E+00 0.  1.
</event>
<event>
 7    1  0.2522928E-009  0.1685394E+03  0.7561462E-02  0.1179380E+00
          4   -1    0    0  501    0  0.00000000000E+00  0.00000000000E+00  0.31522203044E+03  0.31522203044E+03  0.00000000000E+00 0. -1.
         -4   -1    0    0    0  501 -0.00000000000E+00 -0.00000000000E+00 -0.10544263005E+03  0.10544263005E+03  0.00000000000E+00 0.  1.
         25    2    1    2    0    0  0.67408830681E+02  0.12741004195E+03  0.10054795278E+03  0.21572078432E+03  0.12509315223E+03 0.  0.
          5    1    3    3  502    0  0.73241696901E+02  0.16442456119E+02  0.18207127253E+02  0.77354200991E+02  0.41800000000E+01 0. -1.
         -5    1    3    3    0  502 -0.58328662199E+01  0.11096758583E+03  0.82340825531E+02  0.13836658333E+03  0.41800000000E+01 0. -1.
        -11    1    1    2    0    0 -0.55205938989E+02 -0.12701001619E+03  0.54434300592E+02  0.14880300061E+03  0.00000000000E+00 0.  1.
         11    1    1    2    0    0 -0.12202891692E+02 -0.40002576586E+00  0.54797147021E+02  0.56140875553E+02  0.00000000000E+00 0. -1.
</event>
<event>
 7    1  0.2522928E-009  0.1198347E+03  0.7561462E-02  0.1243370E+00
         -2   -1    0    0    0  501 -0.00000000000E+00  0.00000000000E+00  0.77788204599E+02  0.77788204599E+02  0.00000000000E+00 0.  1.
          2   -1    0    0  501    0  0.00000000000E+00 -0.00000000000E+00 -0.26683923135E+03  0.26683923135E+03  0.00000000000E+00 0. -1.
         25    2    1    2    0    0 -0.48984728910E+02 -0.56968380281E+02 -0.17111391721E+03  0.22487733466E+03  0.12507974642E+03 0.  0.
          5    1    3    3  502    0  0.14146514006E+02  0.23464284932E+02 -0.27494911598E+01  0.27851905276E+02  0.41800000000E+01 0.  1.
         -5    1    3    3    0  502 -0.63131242916E+02 -0.80432665213E+02 -0.16836442605E+03  0.19702542939E+03  0.41800000000E+01 0.  1.
        -11    1    1    2    0    0  0.14118613176E+02  0.70737133972E+02  0.10238883881E+02  0.72855419179E+02  0.00000000000E+00 0.  1.
         11    1    1    2    0    0  0.34866115734E+02 -0.13768753691E+02 -0.28175993417E+02  0.46894682104E+02  0.00000000000E+00 0. -1.
</event>
<event>
 7    1  0.2522928E-009  0.1303828E+03  0.7561462E-02  0.1226889E+00
         -2   -1    0    0    0  501 -0.00000000000E+00  0.00000000000E+00  0.61406541431E+02  0.61406541431E+02  0.00000000000E+00 0.  1.
          2   -1    0    0  501    0  0.00000000000E+00 -0.00000000000E+00 -0.49271818328E+03  0.49271818328E+03  0.00000000000E+00 0. -1.
         25    2    1    2    0    0 -0.49879895287E+02 -0.10463639561E+03 -0.11529692845E+03  0.20586134374E+03  0.12509489157E+03 0.  0.
          5    1    3    3  502    0 -0.48655511416E+02 -0.11488141951E+03 -0.41973964876E+02  0.13169808453E+03  0.41800000000E+01 0.  1.
         -5    1    3    3    0  502 -0.12243838714E+01  0.10245023900E+02 -0.73322963572E+02  0.74163259216E+02  0.41800000000E+01 0.  1.
        -11    1    1    2    0    0  0.51187218474E+02  0.54943385241E+02 -0.91783162677E+02  0.11858775598E+03  0.00000000000E+00 0.  1.
         11    1    1    2    0    0 -0.13073231866E+01  0.49693010373E+02 -0.22423155073E+03  0.22967562499E+03  0.00000000000E+00 0. -1.
</event>
<event>
 7    1  0.2522928E-009  0.1492446E+03  0.7561462E-02  0.1201404E+00
         -2   -1    0    0    0  501 -0.00000000000E+00  0.00000000000E+00  0.88523043233E+02  0.88523043233E+02  0.00000000000E+00 0.  1.
          2   -1    0    0  501    0  0.00000000000E+00 -0.00000000000E+00 -0.29215606129E+03  0.29215606129E+03  0.00000000000E+00 0. -1.
         25    2    1    2    0    0  0.95448877903E+02 -0.69109362055E+02 -0.93953644283E+02  0.19586212788E+03  0.12509234048E+03 0.  0.
          5    1    3    3  502    0 -0.17202766323E+02 -0.42370396733E+02  0.12042842475E+01  0.45935916112E+02  0.41800000000E+01 0.  1.
         -5    1    3    3    0  502  0.11265164423E+03 -0.26738965322E+02 -0.95157928530E+02  0.14992621177E+03  0.41800000000E+01 0.  1.
        -11    1    1    2    0    0 -0.42184167272E+02 -0.80580066260E+01 -0.33906725635E+01  0.43080530401E+02  0.00000000000E+00 0.  1.
         11    1    1    2    0    0 -0.53264710631E+02  0.77167368681E+02 -0.10628870121E+03  0.14173644624E+03  0.00000000000E+00 0. -1.
</event>
<event>
 7    1  0.2522928E-009  0.3557553E+03  0.7561462E-02  0.1060277E+00
          2   -1    0    0  501    0  0.00000000000E+00  0.00000000000E+00  0.22397201180E+04  0.22397201180E+04  0.00000000000E+00 0. -1.
         -2   -1    0    0    0  501 -0.00000000000E+00 -0.00000000000E+00 -0.60344512239E+02  0.60344512239E+02  0.00000000000E+00 0.  1.
         25    2    1    2    0    0  0.26343887157E+03  0.22538634086E+03  0.12718063677E+04  0.13241367780E+04  0.12509087978E+03 0.  0.
          5    1    3    3  502    0  0.42271597283E+02  0.95344172014E+02  0.25690548337E+03  0.27730001597E+03  0.41800000000E+01 0. -1.
         -5    1    3    3    0  502  0.22116727429E+03  0.13004216885E+03  0.10149008844E+04  0.10468367620E+04  0.41800000000E+01 0. -1.
        -11    1    1    2    0    0 -0.14601313790E+03 -0.90901869733E+02  0.54997119867E+03  0.57623893111E+03  0.00000000000E+00 0. -1.
         11    1    1    2    0    0 -0.11742573367E+03 -0.13448447113E+03  0.35759803935E+03  0.39968892110E+03  0.00000000000E+00 0.  1.
</event>
<event>
 7    1  0.2522928E-009  0.2540709E+03  0.7561462E-02  0.1110759E+00
         -1   -1    0    0    0  501 -0.00000000000E+00  0.00000000000E+00  0.11237381118E+03  0.11237381118E+03  0.00000000000E+00 0.  1.
          1   -1    0    0  501    0  0.00000000000E+00 -0.00000000000E+00 -0.62386548184E+03  0.62386548184E+03  0.00000000000E+00 0. -1.
         25    2    1    2    0    0 -0.23965466287E+03 -0.28739828717E+02 -0.25878938955E+03  0.37534094525E+03  0.12509413194E+03 0.  0.
          5    1    3    3  502    0 -0.93873903546E+02 -0.66014571634E+02 -0.15323850414E+03  0.19149345938E+03  0.41800000000E+01 0.  1.
         -5    1    3    3    0  502 -0.14578075932E+03  0.37274742918E+02 -0.10555088541E+03  0.18384748586E+03  0.41800000000E+01 0.  1.
        -11    1    1    2    0    0  0.12528158632E+03  0.28128755970E+02 -0.19318780773E+03  0.23196601440E+03  0.00000000000E+00 0.  1.
         11    1    1    2    0    0  0.11437307654E+03  0.61107274707E+00 -0.59514473378E+02  0.12893233337E+03  0.00000000000E+00 0. -1.
</event>
<event>
 7    1  0.2522928E-009  0.9404440E+02  0.7561462E-02  0.1293343E+00
          2   -1    0    0  501    0  0.00000000000E+00  0.00000000000E+00  0.54447310646E+02  0.54447310646E+02  0.00000000000E+00 0. -1.
         -2   -1    0    0    0  501 -0.00000000000E+00 -0.00000000000E+00 -0.23926955127E+03  0.23926955127E+03  0.00000000000E+00 0.  1.
         25    2    1    2    0    0  0.20096181616E+01 -0.23433833374E+01 -0.56650633923E+02  0.13735562873E+03  0.12509094456E+03 0.  0.
          5    1    3    3  502    0  0.51377793296E+02  0.14639436666E+02  0.79700217814E+01  0.54175496279E+02  0.41800000000E+01 0.  1.
         -5    1    3    3    0  502 -0.49368175135E+02 -0.16982820004E+02 -0.64620655704E+02  0.83180132454E+02  0.41800000000E+01 0.  1.
        -11    1    1    2    0    0  0.11619809674E+01  0.42164686925E+02 -0.96722427027E+02  0.10551985080E+03  0.00000000000E+00 0.  1.
         11    1    1    2    0    0 -0.31715991290E+01 -0.39821303588E+02 -0.31449179679E+02  0.50841382386E+02  0.00000000000E+00 0. -1.
</event>
<event>
 7    1  0.2522928E-009  0.9740051E+02  0.7561462E-02  0.1285859E+00
         -2   -1    0    0    0  501 -0.00000000000E+00  0.00000000000E+00  0.13711241744E+02  0.13711241744E+02  0.00000000000E+00 0.  1.
          2   -1    0    0  501    0  0.00000000000E+00 -0.00000000000E+00 -0.10193899986E+04  0.10193899986E+04  0.00000000000E+00 0. -1.
         25    2    1    2    0    0  0.95665122706E+01  0.11164903232E+02 -0.76195881742E+03  0.77229860918E+03  0.12509088327E+03 0.  0.
          5    1    3    3  502    0 -0.43917958357E+02  0.24838516213E+02 -0.16046640541E+03  0.16826371747E+03  0.41800000000E+01 0. -1.
         -5    1    3    3    0  502  0.53484470628E+02 -0.13673612981E+02 -0.60149241201E+03  0.60403489171E+03  0.41800000000E+01 0. -1.
        -11    1    1    2    0    0 -0.32125973846E+02  0.28651869174E+02 -0.80477998557E+02  0.91267278115E+02  0.00000000000E+00 0.  1.
         11    1    1    2    0    0  0.22559461576E+02 -0.39816772406E+02 -0.16324194087E+03  0.16953535304E+03  0.00000000000E+00 0. -1.
</event>
<event>
 7    1  0.2522928E-009  0.2504178E+03  0.7561462E-02  0.1113041E+00
         -1   -1    0    0    0  501 -0.00000000000E+00  0.00000000000E+00  0.12314617044E+03  0.12314617044E+03  0.00000000000E+00 0.  1.
          1   -1    0    0  501    0  0.00000000000E+00 -0.00000000000E+00 -0.70172683365E+03  0.70172683365E+03  0.00000000000E+00 0. -1.
         25    2    1    2    0    0 -0.22637494644E+03 -0.37580698269E+02 -0.45598753844E+03  0.52557647937E+03  0.12509226673E+03 0.  0.
          5    1    3    3  502    0 -0.12044615712E+03 -0.78493564989E+02 -0.20903917044E+03  0.25373877056E+03  0.41800000000E+01 0.  1.
         -5    1    3    3    0  502 -0.10592878933E+03  0.40912866720E+02 -0.24694836801E+03  0.27183770881E+03  0.41800000000E+01 0.  1.
        -11    1    1    2    0    0  0.34955017207E+02 -0.23879033954E+02  0.25658523559E+02  0.49501730492E+02  0.00000000000E+00 0.  1.
         11    1    1    2    0    0  0.19141992923E+03  0.61459732223E+02 -0.14825164832E+03  0.24979479423E+03  0.00000000000E+00 0. -1.
</event>
<event>
 7    1  0.2522928E-009  0.1410438E+03  0.7561462E-02  0.1211931E+00
          3   -1    0    0  501    0  0.00000000000E+00  0.00000000000E+00  0.65335342299E+02  0.65335342299E+02  0.00000000000E+00 0. -1.
         -3   -1    0    0    0  501 -0.00000000000E+00 -0.00000000000E+00 -0.36428165332E+03  0.36428165332E+03  0.00000000000E+00 0.  1.
         25    2    1    2    0    0  0.56613523107E+02 -0.82727159663E+02 -0.22080292929E+03  0.27285555698E+03  0.12508935785E+03 0.  0.
          5    1    3    3  502    0  0.88585959757E+02 -0.54926794020E+02 -0.19977664567E+03  0.22537214895E+03  0.41800000000E+01 0.  1.
         -5    1    3    3    0  502 -0.31972436649E+02 -0.27800365643E+02 -0.21026283621E+02  0.47483408029E+02  0.41800000000E+01 0.  1.
        -11    1    1    2    0    0  0.21480610321E+02  0.41875157106E+02 -0.19755481017E+02  0.51041399203E+02  0.00000000000E+00 0.  1.
         11    1    1    2    0    0 -0.78094133428E+02  0.40852002557E+02 -0.58387900715E+02  0.10572003944E+03  0.00000000000E+00 0. -1.
</event>
<event>
 7    1  0.2522928E-009  0.9886856E+02  0.7561462E-02  0.1282693E+00
         -2   -1    0    0    0  501 -0.00000000000E+00  0.00000000000E+00  0.97011567885E+02  0.97011567885E+02  0.00000000000E+00 0.  1.
          2   -1    0    0  501    0  0.00000000000E+00 -0.00000000000E+00 -0.13281092285E+03  0.13281092285E+03  0.00000000000E+00 0. -1.
         25    2    1    2    0    0 -0.27798720870E+02 -0.17024744424E+02 -0.26002813929E+02  0.13185660384E+03  0.12508959525E+03 0.  0.
          5    1    3    3  502    0 -0.19666234354E+02 -0.71246007247E+02 -0.18981119488E+02  0.76423226962E+02  0.41800000000E+01 0. -1.
         -5    1    3    3    0  502 -0.81324865164E+01  0.54221262823E+02 -0.70216944410E+01  0.55433376876E+02  0.41800000000E+01 0. -1.
        -11    1    1    2    0    0  0.22626979126E+02 -0.20686208521E+02  0.30001786432E+02  0.42895298069E+02  0.00000000000E+00 0.  1.
         11    1    1    2    0    0  0.51717417443E+01  0.37710952945E+02 -0.39798327469E+02  0.55070588830E+02  0.00000000000E+00 0. -1.
</event>
<event>
 7    1  0.2522928E-009  0.1163906E+03  0.7561462E-02  0.1249173E+00
          2   -1    0    0  501    0  0.00000000000E+00  0.00000000000E+00  0.54625929748E+03  0.54625929748E+03  0.00000000000E+00 0. -1.
         -2   -1    0    0    0  501 -0.00000000000E+00 -0.00000000000E+00 -0.31653350465E+02  0.31653350465E+02  0.00000000000E+00 0.  1.
         25    2    1    2    0    0 -0.64489780125E+01  0.68795199314E+02  0.33992382915E+03  0.36874112750E+03  0.12508973066E+03 0.  0.
          5    1    3    3  502    0  0.50485922509E+02  0.47513738273E+02  0.10386845971E+03  0.12495004209E+03  0.41800000000E+01 0. -1.
         -5    1    3    3    0  502 -0.56934900522E+02  0.21281461041E+02  0.23605536944E+03  0.24379108541E+03  0.41800000000E+01 0. -1.
        -11    1    1    2    0    0 -0.22180876774E+02 -0.70315725456E+02  0.73901506094E+02  0.10439216994E+03  0.00000000000E+00 0.  1.
         11    1    1    2    0    0  0.28629854787E+02  0.15205261418E+01  0.10078061177E+03  0.10477935051E+03  0.00000000000E+00 0. -1.
</event>
<event>
 7    1  0.2522928E-009  0.1727757E+03  0.7561462E-02  0.1174984E+00
         -2   -1    0    0    0  501 -0.00000000000E+00  0.00000000000E+00  0.68033159726E+02  0.68033159726E+02  0.00000000000E+00 0.  1.
          2   -1    0    0  501    0  0.00000000000E+00 -0.00000000000E+00 -0.45182415070E+03  0.45182415070E+03  0.00000000000E+00 0. -1.
         25    2    1    2    0    0  0.12556430871E+03 -0.60533095093E+02 -0.17731966690E+03  0.25791513956E+03  0.12508918308E+03 0.  0.
          5    1    3    3  502    0 -0.24204196043E+02 -0.10767084474E+02 -0.42767658872E+02  0.50480870234E+02  0.41800000000E+01 0. -1.
         -5    1    3    3    0  502  0.14976850475E+03 -0.49766010619E+02 -0.13455200803E+03  0.20743426933E+03  0.41800000000E+01 0. -1.
        -11    1    1    2    0    0 -0.20274794177E+01  0.34559703424E+02 -0.51640400626E+02  0.62170851292E+02  0.00000000000E+00 0. -1.
         11    1    1    2    0    0 -0.12353682929E+03  0.25973391669E+02 -0.15483092345E+03  0.19977131957E+03  0.00000000000E+00 0.  1.
</event>
<event>
 7    1  0.2522928E-009  0.1469999E+03  0.7561462E-02  0.1204209E+00
         -1   -1    0    0    0  501 -0.00000000000E+00  0.00000000000E+00  0.33454151774E+02  0.33454151774E+02  0.00000000000E+00 0.  1.
          1   -1    0    0  501    0  0.00000000000E+00 -0.00000000000E+00 -0.89192982835E+03  0.89192982835E+03  0.00000000000E+00 0. -1.
         25    2    1    2    0    0  0.93037661832E+02  0.92044792259E+02 -0.37609852421E+03  0.41740414123E+03  0.12509143418E+03 0.  0.
          5    1    3    3  502    0  0.89345181638E+02  0.99410252658E+02 -0.19718781670E+03  0.23825504668E+03  0.41800000000E+01 0.  1.
         -5    1    3    3    0  502  0.36924801942E+01 -0.73654603987E+01 -0.17891070751E+03  0.17914909455E+03  0.41800000000E+01 0.  1.
        -11    1    1    2    0    0  0.49080744326E+01 -0.39657362623E+02 -0.67034994733E+02  0.78041566640E+02  0.00000000000E+00 0. -1.
         11    1    1    2    0    0 -0.97945736264E+02 -0.52387429636E+02 -0.41534215764E+03  0.42993827225E+03  0.00000000000E+00 0.  1.
</event>
<event>
 7    1  0.2522928E-009  0.1372228E+03  0.7561462E-02  0.1217116E+00
         -1   -1    0    0    0  501 -0.00000000000E+00  0.00000000000E+00  0.72857594620E+02  0.72857594620E+02  0.00000000000E+00 0.  1.
          1   -1    0    0  501    0  0.00000000000E+00 -0.00000000000E+00 -0.34151394436E+03  0.34151394436E+03  0.00000000000E+00 0. -1.
         25    2    1    2    0    0  0.37368037059E+02 -0.88944665323E+02 -0.64672667803E+02  0.17069776150E+03  0.12509055974E+03 0.  0.
          5    1    3    3  502    0  0.72887473367E+02 -0.43732859978E+02 -0.73411856258E+02  0.11239181400E+03  0.41800000000E+01 0.  1.
         -5    1    3    3    0  502 -0.35519436308E+02 -0.45211805345E+02  0.87391884547E+01  0.58305947493E+02  0.41800000000E+01 0.  1.
        -11    1    1    2    0    0 -0.63334734775E+02  0.36313808180E+02 -0.94102376857E+02  0.11910179941E+03  0.00000000000E+00 0.  1.
         11    1    1    2    0    0  0.25966697716E+02  0.52630857142E+02 -0.10988130508E+03  0.12457197807E+03  0.00000000000E+00 0. -1.
</event>
<event>
 7    1  0.2522928E-009  0.1249955E+03  0.7561462E-02  0.1235076E+00
         -2   -1    0    0    0  501 -0.00000000000E+00  0.00000000000E+00  0.34084764901E+02  0.34084764901E+02  0.00000000000E+00 0.  1.
          2   -1    0    0  501    0  0.00000000000E+00 -0.00000000000E+00 -0.52660208507E+03  0.52660208507E+03  0.00000000000E+00 0. -1.
         25    2    1    2    0    0 -0.24887200078E+02 -0.66248789847E+02 -0.34319075596E+03  0.37207216171E+03  0.12509805619E+03 0.  0.
          5    1    3    3  502    0  0.41106424787E+02  0.19118265998E+00 -0.53532388866E+02  0.67623692351E+02  0.41800000000E+01 0.  1.
         -5    1    3    3    0  502 -0.65993624865E+02 -0.66439972507E+02 -0.28965836709E+03  0.30444846936E+03  0.41800000000E+01 0.  1.
        -11    1    1    2    0    0 -0.30869083699E+02  0.36179503905E+01 -0.46524077580E+02  0.55950689791E+02  0.00000000000E+00 0. -1.
         11    1    1    2    0    0  0.55756283777E+02  0.62630839457E+02 -0.10280248663E+03  0.13266399847E+03  0.00000000000E+00 0.  1.
</event>
<event>
 7    1  0.2522928E-009  0.8761992E+02  0.7561462E-02  0.1308720E+00
         -4   -1    0    0    0  501 -0.00000000000E+00  0.00000000000E+00  0.63117656406E+02  0.63117656406E+02  0.00000000000E+00 0.  1.
          4   -1    0    0  501    0  0.00000000000E+00 -0.00000000000E+00 -0.39408616897E+03  0.39408616897E+03  0.00000000000E+00 0. -1.
         25    2    1    2    0    0 -0.99026230301E+01  0.53322814919E+02 -0.32073990594E+03  0.34851571035E+03  0.12509088122E+03 0.  0.
          5    1    3    3  502    0 -0.27294727435E+02  0.24704769258E+02 -0.13509641182E+02  0.39437426066E+02  0.41800000000E+01 0. -1.
         -5    1    3    3    0  502  0.17392104404E+02  0.28618045661E+02 -0.30723026475E+03  0.30907828428E+03  0.41800000000E+01 0. -1.
        -11    1    1    2    0    0 -0.39802388692E+02 -0.27932882404E+02  0.93938930482E+01  0.49524956250E+02  0.00000000000E+00 0.  1.
         11    1    1    2    0    0  0.49705011722E+02 -0.25389932515E+02 -0.19622499678E+02  0.59163158781E+02  0.00000000000E+00 0. -1.
</event>
<event>
 7    1  0.2522928E-009  0.1042543E+03  0.7561462E-02  0.1271596E+00
          2   -1    0    0  501    0  0.00000000000E+00  0.00000000000E+00  0.44542903004E+03  0.44542903004E+03  0.00000000000E+00 0. -1.
         -2   -1    0    0    0  501 -0.00000000000E+00 -0.00000000000E+00 -0.41968537150E+02  0.41968537150E+02  0.00000000000E+00 0.  1.
         25    2    1    2    0    0 -0.45247169962E+01 -0.75787359425E+02  0.28516004202E+03  0.32051191897E+03  0.12508974267E+03 0.  0.
          5    1    3    3  502    0 -0.25280933486E+02 -0.14953973114E+02  0.24004431749E+03  0.24187082021E+03  0.41800000000E+01 0.  1.
         -5    1    3    3    0  502  0.20756216490E+02 -0.60833386312E+02  0.45115724527E+02  0.78641098750E+02  0.41800000000E+01 0.  1.
        -11    1    1    2    0    0  0.13739387046E+02 -0.16618898566E+02  0.39891742587E+02  0.45346550834E+02  0.00000000000E+00 0.  1.
         11    1    1    2    0    0 -0.92146700496E+01  0.92406257991E+02  0.78408708281E+02  0.12153909739E+03  0.00000000000E+00 0. -1.
</event>
<event>
 7    1  0.2522928E-009  0.1451477E+03  0.7561462E-02  0.1206565E+00
         -2   -1    0    0    0  501 -0.00000000000E+00  0.00000000000E+00  0.35995722142E+02  0.35995722142E+02  0.00000000000E+00 0.  1.
          2   -1    0    0  501    0  0.00000000000E+00 -0.00000000000E+00 -0.78898061358E+03  0.78898061358E+03  0.00000000000E+00 0. -1.
         25    2    1    2    0    0  0.12388486110E+03 -0.59583307790E+02 -0.40011471404E+03  0.44117622381E+03  0.12508815566E+03 0.  0.
          5    1    3    3  502    0  0.11677076678E+03 -0.69145266097E+02 -0.20641370099E+03  0.24706389488E+03  0.41800000000E+01 0.  1.
         -5    1    3    3    0  502  0.71140943231E+01  0.95619583074E+01 -0.19370101305E+03  0.19411232893E+03  0.41800000000E+01 0.  1.
        -11    1    1    2    0    0 -0.37667404901E+02  0.10454968300E+01 -0.16209491624E+03  0.16641721163E+03  0.00000000000E+00 0. -1.
         11    1    1    2    0    0 -0.86217456203E+02  0.58537810960E+02 -0.19077526116E+03  0.21738290029E+03  0.00000000000E+00 0.  1.
</event>
<event>
 7    1  0.2522928E-009  0.1740066E+03  0.7561462E-02  0.1173733E+00
          1   -1    0    0  501    0  0.00000000000E+00  0.00000000000E+00  0.10157696778E+04  0.10157696778E+04  0.00000000000E+00 0. -1.
         -1   -1    0    0    0  501 -0.00000000000E+00 -0.00000000000E+00 -0.35657948513E+02  0.35657948513E+02  0.00000000000E+00 0.  1.
         25    2    1    2    0    0 -0.13514061844E+03 -0.80934363831E+02  0.53079599825E+03  0.56763013576E+03  0.12508485625E+03 0.  0.
          5    1    3    3  502    0 -0.81731129766E+02 -0.11285066087E+01  0.11679680844E+03  0.14261913603E+03  0.41800000000E+01 0. -1.
         -5    1    3    3    0  502 -0.53409488677E+02 -0.79805857222E+02  0.41399918982E+03  0.42501099974E+03  0.41800000000E+01 0. -1.
        -11    1    1    2    0    0  0.13550468036E+03  0.58471807725E+02  0.42837940918E+03  0.45308872080E+03  0.00000000000E+00 0. -1.
         11    1    1    2    0    0 -0.36406192061E+00  0.22462556106E+02  0.20936321884E+02  0.30708769789E+02  0.00000000000E+00 0.  1.
</event>
<event>
 7    1  0.2522928E-009  0.7794068E+02  0.7561462E-02  0.1334999E+00
         -2   -1    0    0    0  501 -0.00000000000E+00  0.00000000000E+00  0.58831952393E+02  0.58831952393E+02  0.00000000000E+00 0.  1.
          2   -1    0    0  501    0  0.00000000000E+00 -0.00000000000E+00 -0.34337470039E+03  0.34337470039E+03  0.00000000000E+00 0. -1.
         25    2    1    2    0    0  0.74464358014E+01  0.32022568701E+01 -0.27915140245E+03  0.30600429280E+03  0.12508963931E+03 0.  0.
          5    1    3    3  502    0  0.57447947541E+02 -0.12986947347E+02 -0.76669948473E+02  0.96771281261E+02  0.41800000000E+01 0.  1.
         -5    1    3    3    0  502 -0.50001511740E+02  0.16189204217E+02 -0.20248145398E+03  0.20923301153E+03  0.41800000000E+01 0.  1.
        -11    1    1    2    0    0  0.15136641709E+02  0.98209264619E+01 -0.45171139313E+02  0.48641549581E+02  0.00000000000E+00 0. -1.
         11    1    1    2    0    0 -0.22583077510E+02 -0.13023183332E+02  0.39779793771E+02  0.47560810405E+02  0.00000000000E+00 0.  1.
</event>
<event>
 7    1  0.2522928E-009  0.8541496E+02  0.7561462E-02  0.1314351E+00
          2   -1    0    0  501    0  0.00000000000E+00  0.00000000000E+00  0.19710537463E+03  0.19710537463E+03  0.00000000000E+00 0. -1.
         -2   -1    0    0    0  501 -0.00000000000E+00 -0.00000000000E+00 -0.68223888325E+02  0.68223888325E+02  0.00000000000E+00 0.  1.
         25    2    1    2    0    0  0.11341123271E+02  0.38797842959E+02  0.78920728336E+02  0.15333257722E+03  0.12509398139E+03 0.  0.
          5    1    3    3  502    0 -0.29943993093E+02  0.57372601757E+02  0.30996765345E+01  0.64925638613E+02  0.41800000000E+01 0.  1.
         -5    1    3    3    0  502  0.41285116365E+02 -0.18574758798E+02  0.75821051801E+02  0.88406938607E+02  0.41800000000E+01 0.  1.
        -11    1    1    2    0    0  0.14398533874E+02 -0.30062942331E+02 -0.18651447792E+02  0.38196528429E+02  0.00000000000E+00 0.  1.
         11    1    1    2    0    0 -0.25739657146E+02 -0.87349006277E+01  0.68612205758E+02  0.73800157303E+02  0.00000000000E+00 0. -1.
</event>
<event>
 7    1  0.2522928E-009  0.9067872E+02  0.7561462E-02  0.1301216E+00
         -2   -1    0    0    0  501 -0.00000000000E+00  0.00000000000E+00  0.21636961005E+02  0.21636961005E+02  0.00000000000E+00 0.  1.
          2   -1    0    0  501    0  0.00000000000E+00 -0.00000000000E+00 -0.65372211902E+03  0.65372211902E+03  0.00000000000E+00 0. -1.
         25    2    1    2    0    0  0.33007347538E+02  0.24447691030E+02 -0.44990845390E+03  0.46877751316E+03  0.12509022890E+03 0.  0.
          5    1    3    3  502    0  0.21689406568E+02  0.73478877209E+02 -0.20911474127E+03  0.22274654468E+03  0.41800000000E+01 0.  1.
         -5    1    3    3    0  502  0.11317940970E+02 -0.49031186179E+02 -0.24079371263E+03  0.24603096848E+03  0.41800000000E+01 0.  1.
        -11    1    1    2    0    0 -0.39742829752E+02 -0.14882802632E+02 -0.18854503604E+03  0.19326205253E+03  0.00000000000E+00 0. -1.
         11    1    1    2    0    0  0.67354822148E+01 -0.95648883974E+01  0.63683319262E+01  0.13319514340E+02  0.00000000000E+00 0.  1.
</event>
<event>
 7    1  0.2522928E-009  0.1018019E+03  0.7561462E-02  0.1276552E+00
         -1   -1    0    0    0  501 -0.00000000000E+00  0.00000000000E+00  0.66980266988E+02  0.66980266988E+02  0.00000000000E+00 0.  1.
          1   -1    0    0  501    0  0.00000000000E+00 -0.00000000000E+00 -0.28198536518E+03  0.28198536518E+03  0.00000000000E+00 0. -1.
         25    2    1    2    0    0 -0.64893076191E+02  0.46950703570E+02 -0.91368521416E+02  0.17438659831E+03  0.12508796529E+03 0.  0.
          5    1    3    3  502    0 -0.50708509076E+02  0.30243994736E+02  0.18704141870E+02  0.62075513960E+02  0.41800000000E+01 0. -1.
         -5    1    3    3    0  502 -0.14184567115E+02  0.16706708834E+02 -0.11007266329E+03  0.11231108435E+03  0.41800000000E+01 0. -1.
        -11    1    1    2    0    0  0.22481048202E+02 -0.70216619796E+02 -0.86072498602E+02  0.11333245890E+03  0.00000000000E+00 0. -1.
         11    1    1    2    0    0  0.42412027990E+02  0.23265916226E+02 -0.37564078177E+02  0.61246574968E+02  0.00000000000E+00 0.  1.
</event>
<event>
 7    1  0.2522928E-009  0.1806607E+03  0.7561462E-02  0.1167165E+00
         -2   -1    0    0    0  501 -0.00000000000E+00  0.00000000000E+00  0.26739697609E+02  0.26739697609E+02  0.00000000000E+00 0.  1.
          2   -1    0    0  501    0  0.00000000000E+00 -0.00000000000E+00 -0.16059112696E+04  0.16059112696E+04  0.00000000000E+00 0. -1.
         25    2    1    2    0    0 -0.13186336745E+03 -0.87495604166E+02 -0.11278077429E+04  0.11457059389E+04  0.12509342530E+03 0.  0.
          5    1    3    3  502    0 -0.23219068616E+02  0.26238037033E+02 -0.37349380022E+03  0.37515683512E+03  0.41800000000E+01 0. -1.
         -5    1    3    3    0  502 -0.10864429883E+03 -0.11373364120E+03 -0.75431394269E+03  0.77054910379E+03  0.41800000000E+01 0. -1.
        -11    1    1    2    0    0  0.85946764785E+02  0.87678523127E+02 -0.22846405418E+03  0.25936498192E+03  0.00000000000E+00 0. -1.
         11    1    1    2    0    0  0.45916602663E+02 -0.18291896156E+00 -0.22289977486E+03  0.22758004634E+03  0.00000000000E+00 0.  1.
</event>
<event>
 7    1  0.2522928E-009  0.1548376E+03  0.7561462E-02  0.1194652E+00
          1   -1    0    0  501    0  0.00000000000E+00  0.00000000000E+00  0.16085595960E+03  0.16085595960E+03  0.00000000000E+00 0. -1.
         -1   -1    0    0    0  501 -0.00000000000E+00 -0.00000000000E+00 -0.28691597785E+03  0.28691597785E+03  0.00000000000E+00 0.  1.
         25    2    1    2    0    0 -0.14895434588E+03 -0.95010247253E+01 -0.17873705139E+03  0.26433371614E+03  0.12509082029E+03 0.  0.
          5    1    3    3  502    0 -0.27132813874E+01  0.10072043524E+02 -0.92916524785E+02  0.93593594518E+02  0.41800000000E+01 0.  1.
         -5    1    3    3    0  502 -0.14624106450E+03 -0.19573068249E+02 -0.85820526603E+02  0.17074012162E+03  0.41800000000E+01 0.  1.
        -11    1    1    2    0    0  0.37269414985E+02  0.11898606623E+02 -0.25847568341E+02  0.46890115398E+02  0.00000000000E+00 0.  1.
         11    1    1    2    0    0  0.11168493090E+03 -0.23975818977E+01  0.78524601483E+02  0.13654810591E+03  0.00000000000E+00 0. -1.
</event>
<event>
 7    1  0.2522928E-009  0.1199338E+03  0.7561462E-02  0.1243206E+00
          3   -1    0    0  501    0  0.00000000000E+00  0.00000000000E+00  0.14551135365E+03  0.14551135365E+03  0.00000000000E+00 0. -1.
         -3   -1    0    0    0  501 -0.00000000000E+00 -0.00000000000E+00 -0.15040712323E+03  0.15040712323E+03  0.00000000000E+00 0.  1.
         25    2    1    2    0    0 -0.51487296814E+02 -0.71762610042E+02 -0.51942175771E+02  0.16170627169E+03  0.12510041865E+03 0.  0.
          5    1    3    3  502    0 -0.33000076299E+02  0.25685227766E+02  0.11896779723E+02  0.43677702881E+02  0.41800000000E+01 0. -1.
         -5    1    3    3    0  502 -0.18487220515E+02 -0.97447837808E+02 -0.63838955495E+02  0.11802856881E+03  0.41800000000E+01 0. -1.
        -11    1    1    2    0    0 -0.26078565020E+00  0.35211418243E+02  0.59978407245E+02  0.69550854197E+02  0.00000000000E+00 0. -1.
         11    1    1    2    0    0  0.51748082464E+02  0.36551191799E+02 -0.12932001057E+02  0.64661350991E+02  0.00000000000E+00 0.  1.
</event>
<event>
 7    1  0.2522928E-009  0.8353772E+02  0.7561462E-02  0.1319301E+00
         -2   -1    0    0    0  501 -0.00000000000E+00  0.00000000000E+00  0.46365794140E+03  0.46365794140E+03  0.00000000000E+00 0.  1.
          2   -1    0    0  501    0  0.00000000000E+00 -0.00000000000E+00 -0.27778846696E+02  0.27778846696E+02  0.00000000000E+00 0. -1.
         25    2    1    2    0    0  0.53526134514E+01  0.17850729852E+02  0.26170537108E+03  0.29066827420E+03  0.12510413800E+03 0.  0.
          5    1    3    3  502    0  0.59777324731E+02  0.75923037945E+01  0.19350667957E+03  0.20271477269E+03  0.41800000000E+01 0.  1.
         -5    1    3    3    0  502 -0.54424711280E+02  0.10258426057E+02  0.68198691511E+02  0.87953501504E+02  0.41800000000E+01 0.  1.
        -11    1    1    2    0    0 -0.15560486386E+02  0.11957901730E+02 -0.38325435540E+01  0.19995212938E+02  0.00000000000E+00 0. -1.
         11    1    1    2    0    0  0.10207872935E+02 -0.29808631582E+02  0.17800626718E+03  0.18077330097E+03  0.00000000000E+00 0.  1.
</event>
<event>
 7    1  0.2522928E-009  0.1394294E+03  0.7561462E-02  0.1214099E+00
          2   -1    0    0  501    0  0.00000000000E+00  0.00000000000E+00  0.10764161335E+03  0.10764161335E+03  0.00000000000E+00 0. -1.
         -2   -1    0    0    0  501 -0.00000000000E+00 -0.00000000000E+00 -0.34305468937E+03  0.34305468937E+03  0.00000000000E+00 0.  1.
         25    2    1    2    0    0  0.99600406140E+02  0.85839969786E+02 -0.21212675460E+03  0.27916751938E+03  0.12509197635E+03 0.  0.
          5    1    3    3  502    0  0.68405979274E+02  0.45587373867E+02 -0.21269685545E+03  0.22806799726E+03  0.41800000000E+01 0.  1.
         -5    1    3    3    0  502  0.31194426866E+02  0.40252595918E+02  0.57010085796E+00  0.51099522118E+02  0.41800000000E+01 0.  1.
        -11    1    1    2    0    0 -0.20368485299E+02 -0.57997499693E+02 -0.54285030609E+02  0.82008839233E+02  0.00000000000E+00 0.  1.
         11    1    1    2    0    0 -0.79231920841E+02 -0.27842470092E+02  0.30998709188E+02  0.89519944104E+02  0.00000000000E+00 0. -1.
</event>
<event>
 7    1  0.2522928E-009  0.1517885E+03  0.7561462E-02  0.1198292E+00
          2   -1    0    0  501    0  0.00000000000E+00  0.00000000000E+00  0.78900462549E+03  0.78900462549E+03  0.00000000000E+00 0. -1.
         -2   -1    0    0    0  501 -0.00000000000E+00 -0.00000000000E+00 -0.34626529971E+02  0.34626529971E+02  0.00000000000E+00 0.  1.
         25    2    1    2    0    0 -0.47190353133E+02 -0.11228950058E+03  0.33706232980E+03  0.37959892341E+03  0.12509383324E+03 0.  0.
          5    1    3    3  502    0 -0.73505095489E+02 -0.61348019257E+02  0.11245170863E+03  0.14774788562E+03  0.41800000000E+01 0.  1.
         -5    1    3    3    0  502  0.26314742356E+02 -0.50941481327E+02  0.22461062117E+03  0.23185103779E+03  0.41800000000E+01 0.  1.
        -11    1    1    2    0    0 -0.13051323102E+02 -0.82918326433E+01  0.27221258868E+02  0.31306364491E+02  0.00000000000E+00 0.  1.
         11    1    1    2    0    0  0.60241676235E+02  0.12058133323E+03  0.39009450685E+03  0.41272586756E+03  0.00000000000E+00 0. -1.
</event>
<event>
 7    1  0.2522928E-009  0.9465766E+02  0.7561462E-02  0.1291949E+00
          1   -1    0    0  501    0  0.00000000000E+00  0.00000000000E+00  0.40634098302E+03  0.40634098302E+03  0.00000000000E+00 0. -1.
         -1   -1    0    0    0  501 -0.00000000000E+00 -0.00000000000E+00 -0.62732701903E+02  0.62732701903E+02  0.00000000000E+00 0.  1.
         25    2    1    2    0    0  0.69012102285E+01  0.30907230472E+02  0.19026130705E+02  0.13042824680E+03  0.12508657129E+03 0.  0.
          5    1    3    3  502    0  0.27642118870E+02  0.65657904532E+02  0.42891874360E+02  0.83260029121E+02  0.41800000000E+01 0. -1.
         -5    1    3    3    0  502 -0.20740908642E+02 -0.34750674059E+02 -0.23865743655E+02  0.47168217680E+02  0.41800000000E+01 0. -1.
        -11    1    1    2    0    0  0.17572907762E+02 -0.45498939338E+02  0.28887075380E+03  0.29295950739E+03  0.00000000000E+00 0. -1.
         11    1    1    2    0    0 -0.24474117991E+02  0.14591708866E+02  0.35711396614E+02  0.45685930735E+02  0.00000000000E+00 0.  1.
</event>
<event>
 7    1  0.2522928E-009  0.1149555E+03  0.7561462E-02  0.1251659E+00
         -1   -1    0    0    0  501 -0.00000000000E+00  0.00000000000E+00  0.10976592844E+03  0.10976592844E+03  0.00000000000E+00 0.  1.
          1   -1    0    0  501    0  0.00000000000E+00 -0.00000000000E+00 -0.26633629703E+03  0.26633629703E+03  0.00000000000E+00 0. -1.
         25    2    1    2    0    0  0.10389758474E+03  0.12446680360E+02  0.44682378627E+01  0.16314785471E+03  0.12509048477E+03 0.  0.
          5    1    3    3  502    0  0.10743466423E+03 -0.43464632099E+01 -0.40392263370E+02  0.11493522594E+03  0.41800000000E+01 0.  1.
         -5    1    3    3    0  502 -0.35370794963E+01  0.16793143570E+02  0.44860501232E+02  0.48212628772E+02  0.41800000000E+01 0.  1.
        -11    1    1    2    0    0 -0.30592970867E+02 -0.32732159475E+01  0.50475616824E+01  0.31178866048E+02  0.00000000000E+00 0.  1.
         11    1    1    2    0    0 -0.73304613870E+02 -0.91734644123E+01 -0.16608616814E+03  0.18177550471E+03  0.00000000000E+00 0. -1.
</event>
<event>
 7    1  0.2522928E-009  0.1032345E+03  0.7561462E-02  0.1273638E+00
         -2   -1    0    0    0  501 -0.00000000000E+00  0.00000000000E+00  0.31789957793E+02  0.31789957793E+02  0.00000000000E+00 0.  1.
          2   -1    0    0  501    0  0.00000000000E+00 -0.00000000000E+00 -0.48652747150E+03  0.48652747150E+03  0.00000000000E+00 0. -1.
         25    2    1    2    0    0 -0.34400504941E+02  0.53620322264E+02 -0.23500417227E+03  0.27373571721E+03  0.12508296526E+03 0.  0.
          5    1    3    3  502    0 -0.63951454925E+02  0.56330254622E+02 -0.22730889952E+03  0.24279558145E+03  0.41800000000E+01 0. -1.
         -5    1    3    3    0  502  0.29550949984E+02 -0.27099323573E+01 -0.76952727468E+01  0.30940135762E+02  0.41800000000E+01 0. -1.
        -11    1    1    2    0    0  0.50937506810E+02 -0.21985401396E+02 -0.63499917505E+02  0.84322161961E+02  0.00000000000E+00 0.  1.
         11    1    1    2    0    0 -0.16537001869E+02 -0.31634920868E+02 -0.15623342394E+03  0.16025955012E+03  0.00000000000E+00 0. -1.
</event>
<event>
 7    1  0.2522928E-009  0.1137792E+03  0.7561462E-02  0.1253727E+00
         -2   -1    0    0    0  501 -0.00000000000E+00  0.00000000000E+00  0.46140700488E+03  0.46140700488E+03  0.00000000000E+00 0. -1.
          2   -1    0    0  501    0  0.00000000000E+00 -0.00000000000E+00 -0.28826313524E+02  0.28826313524E+02  0.00000000000E+00 0.  1.
         25    2    1    2    0    0  0.28108551401E+02  0.21292417627E+02  0.28327927817E+03  0.31166971960E+03  0.12508959573E+03 0.  0.
          5    1    3    3  502    0  0.17202428436E+02 -0.52238833635E+02  0.10928798251E+03  0.12241795132E+03  0.41800000000E+01 0.  1.
         -5    1    3    3    0  502  0.10906122965E+02  0.73531251262E+02  0.17399129566E+03  0.18925176828E+03  0.41800000000E+01 0.  1.
        -11    1    1    2    0    0 -0.60924040749E+02 -0.22919639799E+02  0.99555936584E+02  0.11894718634E+03  0.00000000000E+00 0.  1.
         11    1    1    2    0    0  0.32815489348E+02  0.16272221718E+01  0.49745476601E+02  0.59616412467E+02  0.00000000000E+00 0. -1.
</event>
<event>
 7    1  0.2522928E-009  0.1224357E+03  0.7561462E-02  0.1239132E+00
         -2   -1    0    0    0  501 -0.00000000000E+00  0.00000000000E+00  0.21959129641E+02  0.21959129641E+02  0.00000000000E+00 0.  1.
          2   -1    0    0  501    0  0.00000000000E+00 -0.00000000000E+00 -0.95087099107E+03  0.95087099107E+03  0.00000000000E+00 0. -1.
         25    2    1    2    0    0 -0.40835092047E+02  0.87475251063E+02 -0.53706902494E+03  0.55983045163E+03  0.12509025835E+03 0.  0.
          5    1    3    3  502    0 -0.41961755354E+02  0.18936133574E+02 -0.43098741853E+03  0.43345933304E+03  0.41800000000E+01 0.  1.
         -5    1    3    3    0  502  0.11266633071E+01  0.68539117489E+02 -0.10608160641E+03  0.12637111860E+03  0.41800000000E+01 0.  1.
        -11    1    1    2    0    0  0.56087622484E+02 -0.96956422068E+02 -0.32378520274E+03  0.34261235630E+03  0.00000000000E+00 0.  1.
         11    1    1    2    0    0 -0.15252530437E+02  0.94811710053E+01 -0.68057633757E+02  0.70387312784E+02  0.00000000000E+00 0. -1.
</event>
<event>
 7    1  0.2522928E-009  0.1570142E+03  0.7561462E-02  0.1192109E+00
          1   -1    0    0  501    0  0.00000000000E+00  0.00000000000E+00  0.34565083748E+02  0.34565083748E+02  0.00000000000E+00 0. -1.
         -1   -1    0    0    0  501 -0.00000000000E+00 -0.00000000000E+00 -0.95565273806E+03  0.95565273806E+03  0.00000000000E+00 0.  1.
         25    2    1    2    0    0  0.36239289755E+02 -0.13777379599E+03 -0.59680142323E+03  0.62619008638E+03  0.12508869062E+03 0.  0.
          5    1    3    3  502    0  0.17629040141E+02 -0.11946292398E+02 -0.32870586020E+03  0.32942148061E+03  0.41800000000E+01 0.  1.
         -5    1    3    3    0  502  0.18610249614E+02 -0.12582750359E+03 -0.26809556303E+03  0.29676860577E+03  0.41800000000E+01 0.  1.
        -11    1    1    2    0    0 -0.34624496689E+02  0.83360498511E+01 -0.79810156439E+02  0.87395689647E+02  0.00000000000E+00 0.  1.
         11    1    1    2    0    0 -0.16147930662E+01  0.12943774614E+03 -0.24447607464E+03  0.27663204578E+03  0.00000000000E+00 0. -1.
</event>
<event>
 7    1  0.2522928E-009  0.8682277E+02  0.7561462E-02  0.1310733E+00
         -1   -1    0    0    0  501 -0.00000000000E+00  0.00000000000E+00  0.56871782127E+03  0.56871782127E+03  0.00000000000E+00 0.  1.
          1   -1    0    0  501    0  0.00000000000E+00 -0.00000000000E+00 -0.30210783298E+02  0.30210783298E+02  0.00000000000E+00 0. -1.
         25    2    1    2    0    0  0.37864262569E+02 -0.72912868239E+01  0.43623488533E+03  0.45544805973E+03  0.12508075269E+03 0.  0.
          5    1    3    3  502    0 -0.14956666130E+01  0.23211899180E+02  0.89806955682E+01  0.25281506582E+02  0.41800000000E+01 0.  1.
         -5    1    3    3    0  502  0.39359929182E+02 -0.30503186004E+02  0.42725418976E+03  0.43016655315E+03  0.41800000000E+01 0.  1.
        -11    1    1    2    0    0 -0.40060592245E+02  0.46155129193E+02  0.69922159434E+02  0.92866869129E+02  0.00000000000E+00 0.  1.
         11    1    1    2    0    0  0.21963296763E+01 -0.38863842369E+02  0.32349993204E+02  0.50613675702E+02  0.00000000000E+00 0. -1.
</event>
<event>
 7    1  0.2522928E-009  0.9632512E+02  0.7561462E-02  0.1288219E+00
          1   -1    0    0  501    0  0.00000000000E+00  0.00000000000E+00  0.99667954514E+02  0.99667954514E+02  0.00000000000E+00 0. -1.
         -1   -1    0    0    0  501 -0.00000000000E+00 -0.00000000000E+00 -0.20448741070E+03  0.20448741070E+03  0.00000000000E+00 0.  1.
         25    2    1    2    0    0 -0.78196530814E+02 -0.47407010640E+01 -0.11027869910E+03  0.18424685843E+03  0.12509333190E+03 0.  0.
          5    1    3    3  502    0 -0.29240833967E+02 -0.58506495088E+01  0.25744750595E+02  0.39617181297E+02  0.41800000000E+01 0. -1.
         -5    1    3    3    0  502 -0.48955696848E+02  0.11099484448E+01 -0.13602344970E+03  0.14462967713E+03  0.41800000000E+01 0. -1.
        -11    1    1    2    0    0  0.62597565370E+02  0.40377782510E+02 -0.14953712637E+02  0.75976536064E+02  0.00000000000E+00 0.  1.
         11    1    1    2    0    0  0.15598965444E+02 -0.35637081445E+02  0.20412955555E+02  0.43931970720E+02  0.00000000000E+00 0. -1.
</event>
<event>
 7    1  0.2522928E-009  0.1548924E+03  0.7561462E-02  0.1194587E+00
          2   -1    0    0  501    0  0.00000000000E+00  0.00000000000E+00  0.29591795346E+03  0.29591795346E+03  0.00000000000E+00 0. -1.
         -2   -1    0    0    0  501 -0.00000000000E+00 -0.00000000000E+00 -0.99613248962E+02  0.99613248962E+02  0.00000000000E+00 0.  1.
         25    2    1    2    0    0 -0.13080819646E+03 -0.18874421449E+02  0.11005565923E+03  0.21266883235E+03  0.12509498822E+03 0.  0.
          5    1    3    3  502    0 -0.15073051194E+02 -0.54209669657E+02  0.57862976483E+02  0.80817582271E+02  0.41800000000E+01 0.  1.
         -5    1    3    3    0  502 -0.11573514526E+03  0.35335248208E+02  0.52192682751E+02  0.13185125008E+03  0.41800000000E+01 0.  1.
        -11    1    1    2    0    0  0.19159432478E+02  0.47853534099E+01  0.65524557277E+02  0.68435744070E+02  0.00000000000E+00 0. -1.
         11    1    1    2    0    0  0.11164876398E+03  0.14089068039E+02  0.20724487989E+02  0.11442662600E+03  0.00000000000E+00 0.  1.
</event>
<event>
 7    1  0.2722326E-009  0.1050007E+03  0.7561462E-02  0.1270118E+00
          1   -1    0    0  501    0  0.00000000000E+00  0.00000000000E+00  0.56233613704E+02  0.56233613704E+02  0.00000000000E+00 0. -1.
         -1   -1    0    0    0  501 -0.00000000000E+00 -0.00000000000E+00 -0.27075684704E+03  0.27075684704E+03  0.00000000000E+00 0.  1.
         25    2    1    2    0    0  0.56454788907E+02  0.71155615745E+01 -0.99473211814E+02  0.16965043873E+03  0.12509427280E+03 0.  0.
          5    1    3    3  502    0 -0.36544313122E+02  0.21700943787E+02 -0.37804959989E+02  0.57035999006E+02  0.41800000000E+01 0.  1.
         -5    1    3    3    0  502  0.92999102028E+02 -0.14585382212E+02 -0.61668251825E+02  0.11261443973E+03  0.41800000000E+01 0.  1.
        -11    1    1    2    0    0 -0.13935601097E+02 -0.23645496048E+02 -0.10768785232E+03  0.11113048186E+03  0.00000000000E+00 0.  1.
         11    1    1    2    0    0 -0.42519187810E+02  0.16529934473E+02 -0.73621692047E+01  0.46209540152E+02  0.00000000000E+00 0. -1.
</event>
<event>
 7    1  0.2522928E-009  0.4337874E+03  0.7561462E-02  0.1032670E+00
          2   -1    0    0  501    0  0.00000000000E+00  0.00000000000E+00  0.10633247338E+04  0.10633247338E+04  0.00000000000E+00 0. -1.
         -2   -1    0    0    0  501 -0.00000000000E+00 -0.00000000000E+00 -0.19534030479E+03  0.19534030479E+03  0.00000000000E+00 0.  1.
         25    2    1    2    0    0 -0.35497624878E+03 -0.24661855283E+03  0.56740391438E+03  0.72417094147E+03  0.12508997808E+03 0.  0.
          5    1    3    3  502    0 -0.10764467745E+03 -0.83881337970E+02  0.93885667470E+02  0.16569685090E+03  0.41800000000E+01 0.  1.
         -5    1    3    3    0  502 -0.24733157133E+03 -0.16273721486E+03  0.47351824691E+03  0.55847409057E+03  0.41800000000E+01 0.  1.
        -11    1    1    2    0    0  0.11084037132E+03  0.10515864991E+03  0.15236850701E+03  0.21577787535E+03  0.00000000000E+00 0. -1.
         11    1    1    2    0    0  0.24413587746E+03  0.14145990292E+03  0.14821200759E+03  0.31871622173E+03  0.00000000000E+00 0.  1.
</event>
<event>
 7    1  0.2522928E-009  0.1174072E+03  0.7561462E-02  0.1247437E+00
          2   -1    0    0  501    0  0.00000000000E+00  0.00000000000E+00  0.25097180724E+03  0.25097180724E+03  0.00000000000E+00 0. -1.
         -2   -1    0    0    0  501 -0.00000000000E+00 -0.00000000000E+00 -0.65243568556E+02  0.65243568556E+02  0.00000000000E+00 0.  1.
         25    2    1    2    0    0 -0.14323881743E+02 -0.62235955248E+02  0.73677199625E+02  0.15860988976E+03  0.12510107782E+03 0.  0.
          5    1    3    3  502    0 -0.24467968562E+02  0.30760529228E+02  0.11065813892E+00  0.39526905889E+02  0.41800000000E+01 0. -1.
         -5    1    3    3    0  502  0.10144086819E+02 -0.92996484476E+02  0.73566541486E+02  0.11908298388E+03  0.41800000000E+01 0. -1.
        -11    1    1    2    0    0 -0.32078290861E+02  0.36470326274E+02  0.85324807469E+02  0.98180569426E+02  0.00000000000E+00 0. -1.
         11    1    1    2    0    0  0.46402172604E+02  0.25765628974E+02  0.26726231592E+02  0.59424916608E+02  0.00000000000E+00 0.  1.
</event>
<event>
 7    1  0.2522928E-009  0.8954674E+02  0.7561462E-02  0.1303953E+00
          1   -1    0    0  501    0  0.00000000000E+00  0.00000000000E+00  0.71262521816E+02  0.71262521816E+02  0.00000000000E+00 0. -1.
         -1   -1    0    0    0  501 -0.00000000000E+00 -0.00000000000E+00 -0.13863488228E+03  0.13863488228E+03  0.00000000000E+00 0.  1.
         25    2    1    2    0    0  0.99812006364E+01 -0.99668816777E+00 -0.18026832938E+02  0.12677712676E+03  0.12508739109E+03 0.  0.
          5    1    3    3  502    0  0.44089249077E+02  0.44704430767E+02  0.89386095731E+01  0.63558785038E+02  0.41800000000E+01 0.  1.
         -5    1    3    3    0  502 -0.34108048440E+02 -0.45701118935E+02 -0.26965442511E+02  0.63218341723E+02  0.41800000000E+01 0.  1.
        -11    1    1    2    0    0 -0.40238674224E+01 -0.28557137475E+02 -0.43837291879E+02  0.52472943210E+02  0.00000000000E+00 0.  1.
         11    1    1    2    0    0 -0.59573332140E+01  0.29553825643E+02 -0.55082356478E+01  0.30647334127E+02  0.00000000000E+00 0. -1.
</event>
<event>
 7    1  0.2522928E-009  0.1671786E+03  0.7561462E-02  0.1180822E+00
         -1   -1    0    0    0  501 -0.00000000000E+00  0.00000000000E+00  0.41130100740E+02  0.41130100740E+02  0.00000000000E+00 0.  1.
          1   -1    0    0  501    0  0.00000000000E+00 -0.00000000000E+00 -0.10254584883E+04  0.10254584883E+04  0.00000000000E+00 0. -1.
         25    2    1    2    0    0 -0.75570731052E+02 -0.11677428193E+03 -0.24600456358E+03  0.30905506728E+03  0.12509844522E+03 0.  0.
          5    1    3    3  502    0 -0.27827241443E+02 -0.11513681961E+03 -0.22957247276E+03  0.25836376535E+03  0.41800000000E+01 0.  1.
         -5    1    3    3    0  502 -0.47743489609E+02 -0.16374623200E+01 -0.16432090824E+02  0.50691301934E+02  0.41800000000E+01 0.  1.
        -11    1    1    2    0    0  0.12752786212E+02  0.10271747249E+03 -0.40248239289E+03  0.41557861988E+03  0.00000000000E+00 0.  1.
         11    1    1    2    0    0  0.62817944840E+02  0.14056809439E+02 -0.33584143105E+03  0.34195490184E+03  0.00000000000E+00 0. -1.
</event>
<event>
 7    1  0.2522928E-009  0.9416573E+02  0.7561462E-02  0.1293066E+00
         -1   -1    0    0    0  501 -0.00000000000E+00  0.00000000000E+00  0.20238875865E+03  0.20238875865E+03  0.00000000000E+00 0.  1.
          1   -1    0    0  501    0  0.00000000000E+00 -0.00000000000E+00 -0.72802633629E+02  0.72802633629E+02  0.00000000000E+00 0. -1.
         25    2    1    2    0    0 -0.19208682354E+02 -0.50403901063E+02  0.68279760709E+02  0.15237912687E+03  0.12509095036E+03 0.  0.
          5    1    3    3  502    0  0.86201428106E+01  0.15068561629E+02 -0.27626365350E+02  0.32894632907E+02  0.41800000000E+01 0.  1.
         -5    1    3    3    0  502 -0.27828825165E+02 -0.65472462692E+02  0.95906126060E+02  0.11948449396E+03  0.41800000000E+01 0.  1.
        -11    1    1    2    0    0  0.45861836047E+02  0.44367435829E+01  0.65960160253E+01  0.46545677852E+02  0.00000000000E+00 0.  1.
         11    1    1    2    0    0 -0.26653153693E+02  0.45967157480E+02  0.54710348291E+02  0.76266587564E+02  0.00000000000E+00 0. -1.
</event>
<event>
 7    1  0.2522928E-009  0.6396742E+02  0.7561462E-02  0.1381898E+00
          2   -1    0    0  501    0  0.00000000000E+00  0.00000000000E+00  0.20340880418E+02  0.20340880418E+02  0.00000000000E+00 0.  1.
         -2   -1    0    0    0  501 -0.00000000000E+00 -0.00000000000E+00 -0.66777349992E+03  0.66777349992E+03  0.00000000000E+00 0. -1.
         25    2    1    2    0    0  0.38315314087E+02  0.23000240929E+02 -0.25287695322E+03  0.28562926131E+03  0.12506097342E+03 0.  0.
          5    1    3    3  502    0 -0.96369572171E+00  0.13953512345E+01  0.14140526797E+02  0.14842594538E+02  0.41800000000E+01 0.  1.
         -5    1    3    3    0  502  0.39279009809E+02  0.21604889695E+02 -0.26701748002E+03  0.27078666678E+03  0.41800000000E+01 0.  1.
        -11    1    1    2    0    0 -0.52921943889E+02 -0.31414947298E+02 -0.33420643978E+03  0.33982580162E+03  0.00000000000E+00 0.  1.
         11    1    1    2    0    0  0.14606629802E+02  0.84147063682E+01 -0.60349226506E+02  0.62659317402E+02  0.00000000000E+00 0. -1.
</event>
<event>
 7    1  0.2522928E-009  0.1022575E+03  0.7561462E-02  0.1275619E+00
          1   -1    0    0  501    0  0.00000000000E+00  0.00000000000E+00  0.40333149932E+02  0.40333149932E+02  0.00000000000E+00 0. -1.
         -1   -1    0    0    0  501 -0.00000000000E+00 -0.00000000000E+00 -0.35357177040E+03  0.35357177040E+03  0.00000000000E+00 0.  1.
         25    2    1    2    0    0 -0.12237449053E+02  0.36250521286E+02 -0.22663336495E+03  0.26167338075E+03  0.12508565318E+03 0.  0.
          5    1    3    3  502    0 -0.65223466296E+02  0.52001233273E+01 -0.85861961412E+02  0.10803189647E+03  0.41800000000E+01 0. -1.
         -5    1    3    3    0  502  0.52986017243E+02  0.31050397958E+02 -0.14077140354E+03  0.15364148427E+03  0.41800000000E+01 0. -1.
        -11    1    1    2    0    0  0.39458829698E+02 -0.12849998632E+02 -0.86936443067E+02  0.96333103548E+02  0.00000000000E+00 0.  1.
         11    1    1    2    0    0 -0.27221380645E+02 -0.23400522653E+02  0.33118754572E+00  0.35898436037E+02  0.00000000000E+00 0. -1.
</event>
<event>
 7    1  0.2522928E-009  0.1265372E+03  0.7561462E-02  0.1232686E+00
         -2   -1    0    0    0  501 -0.00000000000E+00  0.00000000000E+00  0.57417040272E+02  0.57417040272E+02  0.00000000000E+00 0.  1.
          2   -1    0    0  501    0  0.00000000000E+00 -0.00000000000E+00 -0.10302629754E+04  0.10302629754E+04  0.00000000000E+00 0. -1.
         25    2    1    2    0    0 -0.66132825605E+02  0.18863640306E+02 -0.95773217865E+03  0.96831211734E+03  0.12509213810E+03 0.  0.
          5    1    3    3  502    0 -0.37034460378E+01  0.64486663353E+02 -0.39278441551E+03  0.39808204523E+03  0.41800000000E+01 0. -1.
         -5    1    3    3    0  502 -0.62429379567E+02 -0.45623023047E+02 -0.56494776314E+03  0.57023007211E+03  0.41800000000E+01 0. -1.
        -11    1    1    2    0    0  0.16930319049E+02  0.34435722835E+02  0.14496396461E+02  0.41019510243E+02  0.00000000000E+00 0.  1.
         11    1    1    2    0    0  0.49202506556E+02 -0.53299363140E+02 -0.29610152974E+02  0.78348388125E+02  0.00000000000E+00 0. -1.
</event>
<event>
 7    1  0.2522928E-009  0.3899255E+03  0.7561462E-02  0.1047325E+00
         -1   -1    0    0    0  501 -0.00000000000E+00  0.00000000000E+00  0.86692804508E+02  0.86692804508E+02  0.00000000000E+00 0.  1.
          1   -1    0    0  501    0  0.00000000000E+00 -0.00000000000E+00 -0.20805617964E+04  0.20805617964E+04  0.00000000000E+00 0. -1.
         25    2    1    2    0    0  0.40072854664E+02 -0.38343333856E+03 -0.13641170607E+04  0.14230565881E+04  0.12509092183E+03 0.  0.
          5    1    3    3  502    0  0.54792693068E+02 -0.36204397840E+03 -0.13326517880E+04  0.13820478797E+04  0.41800000000E+01 0. -1.
         -5    1    3    3    0  502 -0.14719838404E+02 -0.21389360154E+02 -0.31465272755E+02  0.41008708343E+02  0.41800000000E+01 0. -1.
        -11    1    1    2    0    0  0.14337976263E+01  0.16574168434E+03 -0.35034092125E+03  0.38757079715E+03  0.00000000000E+00 0. -1.
         11    1    1    2    0    0 -0.41506652290E+02  0.21769165421E+03 -0.27941100995E+03  0.35662721570E+03  0.00000000000E+00 0.  1.
</event>
<event>
 7    1  0.2522928E-009  0.1334587E+03  0.7561462E-02  0.1222412E+00
          4   -1    0    0  501    0  0.00000000000E+00  0.00000000000E+00  0.68173072773E+03  0.68173072773E+03  0.00000000000E+00 0.  1.
         -4   -1    0    0    0  501 -0.00000000000E+00 -0.00000000000E+00 -0.30779757778E+02  0.30779757778E+02  0.00000000000E+00 0. -1.
         25    2    1    2    0    0 -0.95571451123E+02  0.95774936429E+00  0.38481374195E+03  0.41576890295E+03  0.12508934849E+03 0.  0.
          5    1    3    3  502    0 -0.82642254335E+02  0.42197799047E+02  0.34348804431E+03  0.35582566719E+03  0.41800000000E+01 0. -1.
         -5    1    3    3    0  502 -0.12929196788E+02 -0.41240049683E+02  0.41325697646E+02  0.59943235760E+02  0.41800000000E+01 0. -1.
        -11    1    1    2    0    0 -0.62284990499E+01  0.24826261854E+02  0.41292666744E+02  0.48582114043E+02  0.00000000000E+00 0.  1.
         11    1    1    2    0    0  0.10179995017E+03 -0.25784011218E+02  0.22484456125E+03  0.24815946852E+03  0.00000000000E+00 0. -1.
</event>
<event>
 7    1  0.2522928E-009  0.1044142E+03  0.7561462E-02  0.1271278E+00
         -3   -1    0    0    0  501 -0.00000000000E+00  0.00000000000E+00  0.91802729906E+02  0.91802729906E+02  0.00000000000E+00 0.  1.
          3   -1    0    0  501    0  0.00000000000E+00 -0.00000000000E+00 -0.18841373587E+03  0.18841373587E+03  0.00000000000E+00 0. -1.
         25    2    1    2    0    0  0.56441008951E+02  0.31859932806E+02 -0.91065484624E+02  0.16775079544E+03  0.12508702598E+03 0.  0.
          5    1    3    3  502    0 -0.38649127634E+02  0.55760404245E+01 -0.11448289080E+02  0.40907004493E+02  0.41800000000E+01 0. -1.
         -5    1    3    3    0  502  0.95090136585E+02  0.26283892381E+02 -0.79617195544E+02  0.12684379094E+03  0.41800000000E+01 0. -1.
        -11    1    1    2    0    0 -0.30275529228E+02 -0.91772786861E+00 -0.46084091948E+02  0.55147016466E+02  0.00000000000E+00 0. -1.
         11    1    1    2    0    0 -0.26165479722E+02 -0.30942204937E+02  0.40538570605E+02  0.57318653876E+02  0.00000000000E+00 0.  1.
</event>
<event>
 7    1  0.2522928E-009  0.1396484E+03  0.7561462E-02  0.1213803E+00
          1   -1    0    0  501    0  0.00000000000E+00  0.00000000000E+00  0.72429882056E+03  0.72429882056E+03  0.00000000000E+00 0. -1.
         -1   -1    0    0    0  501 -0.00000000000E+00 -0.00000000000E+00 -0.32890513541E+02  0.32890513541E+02  0.00000000000E+00 0.  1.
         25    2    1    2    0    0 -0.64027359768E+02  0.84765338746E+02  0.30988220162E+03  0.35065493006E+03  0.12508891095E+03 0.  0.
          5    1    3    3  502    0 -0.23583543360E+02 -0.27588496169E+02  0.33572917098E+02  0.49617756909E+02  0.41800000000E+01 0. -1.
         -5    1    3    3    0  502 -0.40443816408E+02  0.11235383492E+03  0.27630928453E+03  0.30103717315E+03  0.41800000000E+01 0. -1.
        -11    1    1    2    0    0 -0.22206013933E+01 -0.46938455043E+02  0.60701885029E+02  0.76765021191E+02  0.00000000000E+00 0.  1.
         11    1    1    2    0    0  0.66247961161E+02 -0.37826883704E+02  0.32082422036E+03  0.32976938284E+03  0.00000000000E+00 0. -1.
</event>
<event>
 7    1  0.2522928E-009  0.1395069E+03  0.7561462E-02  0.1213994E+00
          1   -1    0    0  501    0  0.00000000000E+00  0.00000000000E+00  0.32444568675E+03  0.32444568675E+03  0.00000000000E+00 0. -1.
         -1   -1    0    0    0  501 -0.00000000000E+00 -0.00000000000E+00 -0.14302254533E+03  0.14302254533E+03  0.00000000000E+00 0.  1.
         25    2    1    2    0    0  0.95629066288E+02 -0.58265667322E+02 -0.66829387096E+02  0.18070180926E+03  0.12508865089E+03 0.  0.
          5    1    3    3  502    0  0.97067047256E+02  0.10861636305E+02 -0.30061020077E+02  0.10227963695E+03  0.41800000000E+01 0.  1.
         -5    1    3    3    0  502 -0.14379809679E+01 -0.69127303627E+02 -0.36768367019E+02  0.78422172307E+02  0.41800000000E+01 0.  1.
        -11    1    1    2    0    0 -0.43025760862E+02  0.25845632359E+02  0.26889292966E+02  0.56940731344E+02  0.00000000000E+00 0.  1.
         11    1    1    2    0    0 -0.52603305426E+02  0.32420034964E+02  0.22136323555E+03  0.22982569148E+03  0.00000000000E+00 0. -1.
</event>
<event>
 7    1  0.2522928E-009  0.3651641E+03  0.7561462E-02  0.1056558E+00
         -4   -1    0    0    0  501 -0.00000000000E+00  0.00000000000E+00  0.10197000823E+04  0.10197000823E+04  0.00000000000E+00 0.  1.
          4   -1    0    0  501    0  0.00000000000E+00 -0.00000000000E+00 -0.16389383488E+03  0.16389383488E+03  0.00000000000E+00 0. -1.
         25    2    1    2    0    0 -0.34923450724E+03 -0.95339898737E+02  0.65211295810E+03  0.75627615737E+03  0.12509148156E+03 0.  0.
          5    1    3    3  502    0 -0.48729994116E+02 -0.57500177613E+01  0.25241720105E+02  0.55337978502E+02  0.41800000000E+01 0. -1.
         -5    1    3    3    0  502 -0.30050451312E+03 -0.89589880975E+02  0.62687123799E+03  0.70093817887E+03  0.41800000000E+01 0. -1.
        -11    1    1    2    0    0  0.12192400899E+03  0.25252931438E+01  0.27228225638E+02  0.12495286049E+03  0.00000000000E+00 0. -1.
         11    1    1    2    0    0  0.22731049825E+03  0.92814605593E+02  0.17646506365E+03  0.30236489927E+03  0.00000000000E+00 0.  1.
</event>
<event>
 7    1  0.2522928E-009  0.1029775E+03  0.7561462E-02  0.1274156E+00
          1   -1    0    0  501    0  0.00000000000E+00  0.00000000000E+00  0.60606932252E+03  0.60606932252E+03  0.00000000000E+00 0. -1.
         -1   -1    0    0    0  501 -0.00000000000E+00 -0.00000000000E+00 -0.19708601847E+02  0.19708601847E+02  0.00000000000E+00 0.  1.
         25    2    1    2    0    0 -0.83197404499E+01  0.27953838642E+02  0.34642237652E+03  0.36946809470E+03  0.12509026688E+03 0.  0.
          5    1    3    3  502    0 -0.56696331283E+02 -0.19773938023E+02  0.17201546148E+03  0.18224234962E+03  0.41800000000E+01 0.  1.
         -5    1    3    3    0  502  0.48376590833E+02  0.47727776665E+02  0.17440691504E+03  0.18722574508E+03  0.41800000000E+01 0.  1.
        -11    1    1    2    0    0 -0.14921672878E+02  0.19667794105E+02  0.25785392033E+02  0.35698247698E+02  0.00000000000E+00 0.  1.
         11    1    1    2    0    0  0.23241413328E+02 -0.47621632747E+02  0.21415295211E+03  0.22061158197E+03  0.00000000000E+00 0. -1.
</event>
<event>
 7    1  0.2522928E-009  0.9568872E+02  0.7561462E-02  0.1289632E+00
         -1   -1    0    0    0  501 -0.00000000000E+00  0.00000000000E+00  0.86880336986E+02  0.86880336986E+02  0.00000000000E+00 0.  1.
          1   -1    0    0  501    0  0.00000000000E+00 -0.00000000000E+00 -0.19467367359E+03  0.19467367359E+03  0.00000000000E+00 0. -1.
         25    2    1    2    0    0 -0.12663717813E+02  0.28063872138E+02  0.12098787890E+02  0.12938501924E+03  0.12508457885E+03 0.  0.
          5    1    3    3  502    0  0.21210103387E+02 -0.27397938049E+02 -0.34681838305E+02  0.49201806910E+02  0.41800000000E+01 0.  1.
         -5    1    3    3    0  502 -0.33873821200E+02  0.55461810187E+02  0.46780626195E+02  0.80183212327E+02  0.41800000000E+01 0.  1.
        -11    1    1    2    0    0  0.40372807020E+02 -0.43735899624E+02 -0.61026289589E+02  0.85246703652E+02  0.00000000000E+00 0.  1.
         11    1    1    2    0    0 -0.27709089207E+02  0.15672027485E+02 -0.58865834905E+02  0.66922287687E+02  0.00000000000E+00 0. -1.
</event>
<event>
 7    1  0.2522928E-009  0.1103177E+03  0.7561462E-02  0.1259983E+00
          2   -1    0    0  501    0  0.00000000000E+00  0.00000000000E+00  0.22295162026E+03  0.22295162026E+03  0.00000000000E+00 0. -1.
         -2   -1    0    0    0  501 -0.00000000000E+00 -0.00000000000E+00 -0.67535360942E+02  0.67535360942E+02  0.00000000000E+00 0.  1.
         25    2    1    2    0    0  0.21247368127E+02  0.49386899977E+02  0.62658862277E+02  0.14987966143E+03  0.12508902169E+03 0.  0.
          5    1    3    3  502    0  0.57474244307E+02  0.53674190374E+02  0.77300544242E+02  0.11034968967E+03  0.41800000000E+01 0. -1.
         -5    1    3    3    0  502 -0.36226876179E+02 -0.42872903968E+01 -0.14641681965E+02  0.39529971761E+02  0.41800000000E+01 0. -1.
        -11    1    1    2    0    0  0.35777098702E+02 -0.20675334358E+02  0.43250259472E+02  0.59816847014E+02  0.00000000000E+00 0. -1.
         11    1    1    2    0    0 -0.57024466829E+02 -0.28711565619E+02  0.49507137570E+02  0.80790472754E+02  0.00000000000E+00 0.  1.
</event>
<event>
 7    1  0.2522928E-009  0.8748068E+02  0.7561462E-02  0.1309070E+00
         -2   -1    0    0    0  501 -0.00000000000E+00  0.00000000000E+00  0.24504371507E+02  0.24504371507E+02  0.00000000000E+00 0.  1.
          2   -1    0    0  501    0  0.00000000000E+00 -0.00000000000E+00 -0.48364776789E+03  0.48364776789E+03  0.00000000000E+00 0. -1.
         25    2    1    2    0    0  0.43987592224E+01  0.22908658060E+01 -0.24916065749E+03  0.27884408303E+03  0.12509353401E+03 0.  0.
          5    1    3    3  502    0  0.44056557367E+02 -0.17813849955E+02 -0.22090460315E+03  0.22599696810E+03  0.41800000000E+01 0. -1.
         -5    1    3    3    0  502 -0.39657798145E+02  0.20104715761E+02 -0.28256054335E+02  0.52847114927E+02  0.41800000000E+01 0. -1.
        -11    1    1    2    0    0 -0.11521456179E+02 -0.41334038544E+02 -0.15905991327E+03  0.16474617660E+03  0.00000000000E+00 0. -1.
         11    1    1    2    0    0  0.71226969562E+01  0.39043172738E+02 -0.50922825625E+02  0.64561879767E+02  0.00000000000E+00 0.  1.
</event>
<event>
 7    1  0.2522928E-009  0.1349888E+03  0.7561462E-02  0.1220236E+00
          2   -1    0    0  501    0  0.00000000000E+00  0.00000000000E+00  0.38196641253E+02  0.38196641253E+02  0.00000000000E+00 0. -1.
         -2   -1    0    0    0  501 -0.00000000000E+00 -0.00000000000E+00 -0.66778723354E+03  0.66778723354E+03  0.00000000000E+00 0.  1.
         25    2    1    2    0    0  0.70501829879E+02 -0.73823635042E+02 -0.21304382400E+03  0.26731103826E+03  0.12508830132E+03 0.  0.
          5    1    3    3  502    0  0.10583953835E+03 -0.66654354268E+02 -0.16415801203E+03  0.20642222781E+03  0.41800000000E+01 0.  1.
         -5    1    3    3    0  502 -0.35337708469E+02 -0.71692807740E+01 -0.48885811967E+02  0.60888810452E+02  0.41800000000E+01 0.  1.
        -11    1    1    2    0    0 -0.17172275215E+02  0.44436026044E+02 -0.58300934176E+02  0.75289085348E+02  0.00000000000E+00 0. -1.
         11    1    1    2    0    0 -0.53329554665E+02  0.29387608998E+02 -0.35824583412E+03  0.36338375119E+03  0.00000000000E+00 0.  1.
</event>
<event>
 7    1  0.2522928E-009  0.9387686E+02  0.7561462E-02  0.1293726E+00
         -2   -1    0    0    0  501 -0.00000000000E+00  0.00000000000E+00  0.21495781828E+02  0.21495781828E+02  0.00000000000E+00 0.  1.
          2   -1    0    0  501    0  0.00000000000E+00 -0.00000000000E+00 -0.55957437152E+03  0.55957437152E+03  0.00000000000E+00 0. -1.
         25    2    1    2    0    0 -0.16294290089E+02 -0.27350721167E+02 -0.37360866677E+03  0.39527737223E+03  0.12508876557E+03 0.  0.
          5    1    3    3  502    0 -0.38966789668E+02  0.39778900842E+02 -0.12873537382E+03  0.14032476803E+03  0.41800000000E+01 0. -1.
         -5    1    3    3    0  502  0.22672499579E+02 -0.67129622010E+02 -0.24487329295E+03  0.25495260420E+03  0.41800000000E+01 0. -1.
        -11    1    1    2    0    0  0.30782730185E+02  0.92408220128E+00 -0.16804112423E+02  0.35082881864E+02  0.00000000000E+00 0.  1.
         11    1    1    2    0    0 -0.14488440096E+02  0.26426638966E+02 -0.14766581050E+03  0.15070989926E+03  0.00000000000E+00 0. -1.
</event>
<event>
 7    1  0.2522928E-009  0.1381993E+03  0.7561462E-02  0.1215773E+00
          1   -1    0    0  501    0  0.00000000000E+00  0.00000000000E+00  0.57847196904E+02  0.57847196904E+02  0.00000000000E+00 0. -1.
         -1   -1    0    0    0  501 -0.00000000000E+00 -0.00000000000E+00 -0.36859842000E+03  0.36859842000E+03  0.00000000000E+00 0.  1.
         25    2    1    2    0    0  0.44009384525E+02  0.82178036611E+02 -0.21126654421E+03  0.26262383638E+03  0.12509065155E+03 0.  0.
          5    1    3    3  502    0 -0.37452897725E+02  0.60849838411E+02 -0.10213470988E+03  0.12471725520E+03  0.41800000000E+01 0. -1.
         -5    1    3    3    0  502  0.81462282251E+02  0.21328198199E+02 -0.10913183434E+03  0.13790658118E+03  0.41800000000E+01 0. -1.
        -11    1    1    2    0    0 -0.63487793372E+02 -0.42761309196E+02 -0.91226405219E+02  0.11908604654E+03  0.00000000000E+00 0.  1.
         11    1    1    2    0    0  0.19478408846E+02 -0.39416727415E+02 -0.82582736662E+01  0.44735733986E+02  0.00000000000E+00 0. -1.
</event>
<event>
 7    1  0.2522928E-009  0.1979016E+03  0.7561462E-02  0.1151522E+00
         -2   -1    0    0    0  501 -0.00000000000E+00  0.00000000000E+00  0.58734640895E+02  0.58734640895E+02  0.00000000000E+00 0.  1.
          2   -1    0    0  501    0  0.00000000000E+00 -0.00000000000E+00 -0.98581428460E+03  0.98581428460E+03  0.00000000000E+00 0. -1.
         25    2    1    2    0    0 -0.15820854567E+03 -0.74933790513E+02 -0.75343293116E+03  0.78355134569E+03  0.12508602115E+03 0.  0.
          5    1    3    3  502    0 -0.63342005280E+02  0.29788792228E+02 -0.32207616528E+03  0.32962116197E+03  0.41800000000E+01 0. -1.
         -5    1    3    3    0  502 -0.94866540392E+02 -0.10472258274E+03 -0.43135676588E+03  0.45393018372E+03  0.41800000000E+01 0. -1.
        -11    1    1    2    0    0  0.15182295997E+03  0.51953778242E+02 -0.11422786633E+03  0.19697058585E+03  0.00000000000E+00 0.  1.
         11    1    1    2    0    0  0.63855857065E+01  0.22980012271E+02 -0.59418846211E+02  0.64026993947E+02  0.00000000000E+00 0. -1.
</event>
<event>
 7    1  0.2522928E-009  0.8226912E+02  0.7561462E-02  0.1322733E+00
         -2   -1    0    0    0  501 -0.00000000000E+00  0.00000000000E+00  0.11379994409E+03  0.11379994409E+03  0.00000000000E+00 0.  1.
          2   -1    0    0  501    0  0.00000000000E+00 -0.00000000000E+00 -0.11247996440E+03  0.11247996440E+03  0.00000000000E+00 0. -1.
         25    2    1    2    0    0  0.12646907858E+02  0.27613889420E+02  0.24000369143E+01  0.12874346433E+03  0.12508656308E+03 0.  0.
          5    1    3    3  502    0  0.71527664562E+01 -0.19864671346E+02 -0.51958688986E+02  0.56240065761E+02  0.41800000000E+01 0.  1.
         -5    1    3    3    0  502  0.54941414015E+01  0.47478560766E+02  0.54358725900E+02  0.72503398566E+02  0.41800000000E+01 0.  1.
        -11    1    1    2    0    0  0.10582650995E+02  0.30590196313E+02  0.10037408455E+02  0.33889558584E+02  0.00000000000E+00 0.  1.
         11    1    1    2    0    0 -0.23229558853E+02 -0.58204085733E+02 -0.11117465681E+02  0.63646885577E+02  0.00000000000E+00 0. -1.
</event>
<event>
 7    1  0.2522928E-009  0.1957298E+03  0.7561462E-02  0.1153393E+00
          2   -1    0    0  501    0  0.00000000000E+00  0.00000000000E+00  0.10081774794E+04  0.10081774794E+04  0.00000000000E+00 0. -1.
         -2   -1    0    0    0  501 -0.00000000000E+00 -0.00000000000E+00 -0.43308846657E+02  0.43308846657E+02  0.00000000000E+00 0.  1.
         25    2    1    2    0    0  0.14991434728E+03 -0.94192406783E+02  0.55459985274E+03  0.59546246889E+03  0.12509210278E+03 0.  0.
          5    1    3    3  502    0  0.11211080619E+03 -0.12281980496E+03  0.38707017663E+03  0.42130076120E+03  0.41800000000E+01 0. -1.
         -5    1    3    3    0  502  0.37803541087E+02  0.28627398177E+02  0.16752967611E+03  0.17416170768E+03  0.41800000000E+01 0. -1.
        -11    1    1    2    0    0 -0.93325385118E+02  0.51245062715E+02  0.33928207073E+03  0.35559528607E+03  0.00000000000E+00 0. -1.
         11    1    1    2    0    0 -0.56588962161E+02  0.42947344068E+02  0.70986709313E+02  0.10042857113E+03  0.00000000000E+00 0.  1.
</event>
<event>
 7    1  0.2522928E-009  0.8926885E+02  0.7561462E-02  0.1304632E+00
          2   -1    0    0  501    0  0.00000000000E+00  0.00000000000E+00  0.94625272605E+03  0.94625272605E+03  0.00000000000E+00 0.  1.
         -2   -1    0    0    0  501 -0.00000000000E+00 -0.00000000000E+00 -0.14519841420E+02  0.14519841420E+02  0.00000000000E+00 0. -1.
         25    2    1    2    0    0  0.28368825640E+02 -0.32124276588E+02  0.54962833202E+03  0.56530800644E+03  0.12508029172E+03 0.  0.
          5    1    3    3  502    0  0.47920323405E+02 -0.30853621300E+02  0.54011583500E+03  0.54313063894E+03  0.41800000000E+01 0. -1.
         -5    1    3    3    0  502 -0.19551497764E+02 -0.12706552889E+01  0.95124970201E+01  0.22177367500E+02  0.41800000000E+01 0. -1.
        -11    1    1    2    0    0 -0.97428390181E+01  0.63838528511E+02  0.26289224664E+03  0.27070761714E+03  0.00000000000E+00 0. -1.
         11    1    1    2    0    0 -0.18625986622E+02 -0.31714251923E+02  0.11921230598E+03  0.12475694389E+03  0.00000000000E+00 0.  1.
</event>
<event>
 7    1  0.2522928E-009  0.1074056E+03  0.7561462E-02  0.1265451E+00
          2   -1    0    0  501    0  0.00000000000E+00  0.00000000000E+00  0.33493073829E+03  0.33493073829E+03  0.00000000000E+00 0.  1.
         -2   -1    0    0    0  501 -0.00000000000E+00 -0.00000000000E+00 -0.44751818546E+02  0.44751818546E+02  0.00000000000E+00 0. -1.
         25    2    1    2    0    0 -0.42572836554E+02 -0.16129897718E+01  0.92059965559E+02  0.16105723110E+03  0.12509734723E+03 0.  0.
          5    1    3    3  502    0  0.41206996624E+02 -0.19302026415E+02  0.40211680938E+02  0.60869010821E+02  0.41800000000E+01 0. -1.
         -5    1    3    3    0  502 -0.83779833178E+02  0.17689036643E+02  0.51848284621E+02  0.10018822028E+03  0.41800000000E+01 0. -1.
        -11    1    1    2    0    0  0.60813403059E+02 -0.10189364018E+02  0.95101906714E+02  0.11334225069E+03  0.00000000000E+00 0. -1.
         11    1    1    2    0    0 -0.18240566505E+02  0.11802353790E+02  0.10301704747E+03  0.10528307504E+03  0.00000000000E+00 0.  1.
</event>
<event>
 6    1  0.2522928E-009  0.8197982E+02  0.7561462E-02  0.1323525E+00
          2   -1    0    0  501    0  0.00000000000E+00  0.00000000000E+00  0.47900322002E+02  0.47900322002E+02  0.00000000000E+00 0. -1.
         -2   -1    0    0    0  501 -0.00000000000E+00 -0.00000000000E+00 -0.55483692808E+03  0.55483692808E+03  0.00000000000E+00 0.  1.
          5    1    1    2  502    0 -0.92311311148E+01 -0.28912375500E+02 -0.33904632112E+02  0.45696123658E+02  0.41800000000E+01 0. -1.
         -5    1    1    2    0  502  0.39939928383E+02  0.65568088530E+02 -0.44236855343E+03  0.44900087035E+03  0.41800000000E+01 0. -1.
        -11    1    1    2    0    0  0.50697914812E+01 -0.11875284447E+02 -0.56142708135E+02  0.57608409483E+02  0.00000000000E+00 0.  1.
         11    1    1    2    0    0 -0.35778588750E+02 -0.24780428583E+02  0.25479287600E+02  0.50431846588E+02  0.00000000000E+00 0. -1.
</event>
<event>
 7    1  0.2985384E-009  0.1020065E+03  0.7561462E-02  0.1276132E+00
          1   -1    0    0  501    0  0.00000000000E+00  0.00000000000E+00  0.16193739642E+03  0.16193739642E+03  0.00000000000E+00 0. -1.
         -1   -1    0    0    0  501 -0.00000000000E+00 -0.00000000000E+00 -0.10869085422E+03  0.10869085422E+03  0.00000000000E+00 0.  1.
         25    2    1    2    0    0  0.37333146832E+02 -0.49706709424E+02 -0.15462352550E+02  0.14053578675E+03  0.12508677866E+03 0.  0.
          5    1    3    3  502    0 -0.30406425737E+02 -0.21989576319E+02  0.35042668482E+02  0.51512650943E+02  0.41800000000E+01 0. -1.
         -5    1    3    3    0  502  0.67739572569E+02 -0.27717133105E+02 -0.50505021032E+02  0.89023135807E+02  0.41800000000E+01 0. -1.
        -11    1    1    2    0    0 -0.14479207147E+02 -0.17060253614E+02  0.53375103837E+02  0.57875741054E+02  0.00000000000E+00 0. -1.
         11    1    1    2    0    0 -0.22853939685E+02  0.66766963038E+02  0.15333790911E+02  0.72216722829E+02  0.00000000000E+00 0.  1.
</event>
<event>
 7    1  0.2522928E-009  0.9222586E+02  0.7561462E-02  0.1297549E+00
          2   -1    0    0  501    0  0.00000000000E+00  0.00000000000E+00  0.69557753482E+02  0.69557753482E+02  0.00000000000E+00 0. -1.
         -2   -1    0    0    0  501 -0.00000000000E+00 -0.00000000000E+00 -0.23644468568E+03  0.23644468568E+03  0.00000000000E+00 0.  1.
         25    2    1    2    0    0  0.21889324754E+02  0.57244966330E+02 -0.54456319862E+02  0.14956157796E+03  0.12508815340E+03 0.  0.
          5    1    3    3  502    0 -0.37478893874E+01  0.80897352183E+02 -0.73636030422E+02  0.10953613852E+03  0.41800000000E+01 0. -1.
         -5    1    3    3    0  502  0.25637214141E+02 -0.23652385853E+02  0.19179710560E+02  0.40025439443E+02  0.41800000000E+01 0. -1.
        -11    1    1    2    0    0 -0.24728635663E+02 -0.22700817248E+02 -0.11677958106E+03  0.12150844858E+03  0.00000000000E+00 0.  1.
         11    1    1    2    0    0  0.28393109092E+01 -0.34544149082E+02  0.43489687216E+01  0.34932412616E+02  0.00000000000E+00 0. -1.
</event>
<event>
 7    1  0.2522928E-009  0.1249434E+03  0.7561462E-02  0.1235158E+00
          1   -1    0    0  501    0  0.00000000000E+00  0.00000000000E+00  0.79861840025E+02  0.79861840025E+02  0.00000000000E+00 0. -1.
         -1   -1    0    0    0  501 -0.00000000000E+00 -0.00000000000E+00 -0.43471153744E+03  0.43471153744E+03  0.00000000000E+00 0.  1.
         25    2    1    2    0    0 -0.88268335989E+02 -0.86340644015E+02 -0.58058141593E+02  0.18510707182E+03  0.12509146368E+03 0.  0.
          5    1    3    3  502    0 -0.53537042352E+01 -0.12850384808E+02 -0.71915895024E+02  0.73370040860E+02  0.41800000000E+01 0. -1.
         -5    1    3    3    0  502 -0.82914631754E+02 -0.73490259207E+02  0.13857753431E+02  0.11173703096E+03  0.41800000000E+01 0. -1.
        -11    1    1    2    0    0  0.45959836252E+02  0.55836234671E+02 -0.24695466691E+03  0.25732586182E+03  0.00000000000E+00 0.  1.
         11    1    1    2    0    0  0.42308499737E+02  0.30504409344E+02 -0.49836888906E+02  0.72140443825E+02  0.00000000000E+00 0. -1.
</event>
<event>
 7    1  0.2522928E-009  0.1002775E+03  0.7561462E-02  0.1279714E+00
          1   -1    0    0  501    0  0.00000000000E+00  0.00000000000E+00  0.33275532780E+03  0.33275532780E+03  0.00000000000E+00 0. -1.
         -1   -1    0    0    0  501 -0.00000000000E+00 -0.00000000000E+00 -0.53969221116E+02  0.53969221116E+02  0.00000000000E+00 0.  1.
         25    2    1    2    0    0 -0.47217745249E+02  0.61240476738E+02  0.16404940862E+03  0.22031713584E+03  0.12509004925E+03 0.  0.
          5    1    3    3  502    0 -0.16728697511E+01  0.44506457866E+02 -0.44182490634E+01  0.44951269278E+02  0.41800000000E+01 0.  1.
         -5    1    3    3    0  502 -0.45544875498E+02  0.16734018872E+02  0.16846765768E+03  0.17536586657E+03  0.41800000000E+01 0.  1.
        -11    1    1    2    0    0  0.67522759388E+02 -0.45390636595E+02  0.11472761173E+03  0.14064870358E+03  0.00000000000E+00 0. -1.
         11    1    1    2    0    0 -0.20305014138E+02 -0.15849840143E+02  0.90863293944E-02  0.25758709484E+02  0.00000000000E+00 0.  1.
</event>
<event>
 7    1  0.2522928E-009  0.1188686E+03  0.7561462E-02  0.1244975E+00
         -2   -1    0    0    0  501 -0.00000000000E+00  0.00000000000E+00  0.46687361064E+02  0.46687361064E+02  0.00000000000E+00 0.  1.
          2   -1    0    0  501    0  0.00000000000E+00 -0.00000000000E+00 -0.45751560979E+03  0.45751560979E+03  0.00000000000E+00 0. -1.
         25    2    1    2    0    0 -0.92689053096E+02 -0.24599766030E+02 -0.19117150339E+03  0.24776999319E+03  0.12508803605E+03 0.  0.
          5    1    3    3  502    0  0.11676477533E+02 -0.15389591074E+02 -0.11863683468E+03  0.12027198587E+03  0.41800000000E+01 0. -1.
         -5    1    3    3    0  502 -0.10436553063E+03 -0.92101749562E+01 -0.72534668712E+02  0.12749800732E+03  0.41800000000E+01 0. -1.
        -11    1    1    2    0    0  0.58774871961E+02  0.44568013861E+02 -0.70006486249E+02  0.10169415691E+03  0.00000000000E+00 0.  1.
         11    1    1    2    0    0  0.33914181135E+02 -0.19968247831E+02 -0.14965025908E+03  0.15473882075E+03  0.00000000000E+00 0. -1.
</event>
<event>
 7    1  0.2522928E-009  0.1003231E+03  0.7561462E-02  0.1279618E+00
          2   -1    0    0  501    0  0.00000000000E+00  0.00000000000E+00  0.92932135330E+02  0.92932135330E+02  0.00000000000E+00 0.  1.
         -2   -1    0    0    0  501 -0.00000000000E+00 -0.00000000000E+00 -0.18974878128E+03  0.18974878128E+03  0.00000000000E+00 0. -1.
         25    2    1    2    0    0  0.59861231852E+02 -0.12119911751E+02 -0.15789032061E+01  0.13921227327E+03  0.12508918720E+03 0.  0.
          5    1    3    3  502    0  0.11105024412E+02  0.43140023167E+02  0.35026169404E+02  0.56821546170E+02  0.41800000000E+01 0.  1.
         -5    1    3    3    0  502  0.48756207440E+02 -0.55259934918E+02 -0.36605072610E+02  0.82390727099E+02  0.41800000000E+01 0.  1.
        -11    1    1    2    0    0  0.46550743899E+00 -0.15666355556E+02  0.10311326446E+02  0.18760992688E+02  0.00000000000E+00 0.  1.
         11    1    1    2    0    0 -0.60326739291E+02  0.27786267307E+02 -0.10554906919E+03  0.12470765065E+03  0.00000000000E+00 0. -1.
</event>
<event>
 7    1  0.2522928E-009  0.1059001E+03  0.7561462E-02  0.1268356E+00
         -1   -1    0    0    0  501 -0.00000000000E+00  0.00000000000E+00  0.78133862536E+02  0.78133862536E+02  0.00000000000E+00 0.  1.
          1   -1    0    0  501    0  0.00000000000E+00 -0.00000000000E+00 -0.17676606097E+03  0.17676606097E+03  0.00000000000E+00 0. -1.
         25    2    1    2    0    0  0.28705474176E+02  0.24730230485E+02 -0.86433743091E+02  0.15669733364E+03  0.12509066263E+03 0.  0.
          5    1    3    3  502    0 -0.18203128076E+02 -0.38766728675E+02 -0.51982006968E+01  0.43344051661E+02  0.41800000000E+01 0. -1.
         -5    1    3    3    0  502  0.46908602252E+02  0.63496959160E+02 -0.81235542394E+02  0.11335328198E+03  0.41800000000E+01 0. -1.
        -11    1    1    2    0    0 -0.11021226185E+02  0.30125316797E+02  0.13866926978E+02  0.34947014216E+02  0.00000000000E+00 0.  1.
         11    1    1    2    0    0 -0.17684247991E+02 -0.54855547282E+02 -0.26065382316E+02  0.63255575643E+02  0.00000000000E+00 0. -1.
</event>
<event>
 7    1  0.2522928E-009  0.1531430E+03  0.7561462E-02  0.1196663E+00
          2   -1    0    0  501    0  0.00000000000E+00  0.00000000000E+00  0.29621619812E+03  0.29621619812E+03  0.00000000000E+00 0.  1.
         -2   -1    0    0    0  501 -0.00000000000E+00 -0.00000000000E+00 -0.10265304919E+03  0.10265304919E+03  0.00000000000E+00 0. -1.
         25    2    1    2    0    0 -0.12937982390E+03 -0.32864403909E+02  0.71784263797E+02  0.19651875983E+03  0.12508970604E+03 0.  0.
          5    1    3    3  502    0  0.56803311988E+01 -0.23852207305E+01  0.56692651526E+02  0.57179406935E+02  0.41800000000E+01 0.  1.
         -5    1    3    3    0  502 -0.13506015510E+03 -0.30479183179E+02  0.15091612271E+02  0.13933935289E+03  0.41800000000E+01 0.  1.
        -11    1    1    2    0    0  0.13118864779E+02  0.41709851425E+02  0.45002280492E+02  0.62745689641E+02  0.00000000000E+00 0. -1.
         11    1    1    2    0    0  0.11626095913E+03 -0.88454475163E+01  0.76776604646E+02  0.13960479784E+03  0.00000000000E+00 0.  1.
</event>
<event>
 7    1  0.2522928E-009  0.1579225E+03  0.7561462E-02  0.1191062E+00
          2   -1    0    0  501    0  0.00000000000E+00  0.00000000000E+00  0.68215831878E+02  0.68215831878E+02  0.00000000000E+00 0. -1.
         -2   -1    0    0    0  501 -0.00000000000E+00 -0.00000000000E+00 -0.70230114791E+03  0.70230114791E+03  0.00000000000E+00 0.  1.
         25    2    1    2    0    0 -0.48464164494E+02  0.12305467543E+03 -0.89686890115E+02  0.20293420595E+03  0.12508926932E+03 0.  0.
          5    1    3    3  502    0 -0.63467395096E+02  0.48693891630E+02  0.64933796129E+01  0.80366919197E+02  0.41800000000E+01 0.  1.
         -5    1    3    3    0  502  0.15003230603E+02  0.74360783800E+02 -0.96180269728E+02  0.12256728675E+03  0.41800000000E+01 0.  1.
        -11    1    1    2    0    0  0.62899218030E+02 -0.37981403933E+02 -0.27873488121E+03  0.28825688661E+03  0.00000000000E+00 0.  1.
         11    1    1    2    0    0 -0.14435053537E+02 -0.85073271497E+02 -0.26566354470E+03  0.27932588723E+03  0.00000000000E+00 0. -1.
</event>
<event>
 7    1  0.2525271E-009  0.7669351E+02  0.7561462E-02  0.1338706E+00
         -1   -1    0    0    0  501 -0.00000000000E+00  0.00000000000E+00  0.45542898066E+03  0.45542898066E+03  0.00000000000E+00 0.  1.
          1   -1    0    0  501    0  0.00000000000E+00 -0.00000000000E+00 -0.32739891358E+02  0.32739891358E+02  0.00000000000E+00 0. -1.
         25    2    1    2    0    0  0.45096461991E+02  0.13931576733E+02  0.17697150133E+03  0.22180084179E+03  0.12509564910E+03 0.  0.
          5    1    3    3  502    0  0.47241237884E+02 -0.12228438985E+02  0.18706500808E+03  0.19337026381E+03  0.41800000000E+01 0.  1.
         -5    1    3    3    0  502 -0.21447758934E+01  0.26160015718E+02 -0.10093506754E+02  0.28430577986E+02  0.41800000000E+01 0.  1.
        -11    1    1    2    0    0  0.53164455568E+00 -0.29587453860E+02  0.20395242167E+02  0.35939754798E+02  0.00000000000E+00 0. -1.
         11    1    1    2    0    0 -0.45628106546E+02  0.15655877128E+02  0.22532234581E+03  0.23042827543E+03  0.00000000000E+00 0.  1.
</event>
<event>
 7    1  0.2522928E-009  0.1103412E+03  0.7561462E-02  0.1259939E+00
          1   -1    0    0  501    0  0.00000000000E+00  0.00000000000E+00  0.17094597247E+02  0.17094597247E+02  0.00000000000E+00 0. -1.
         -1   -1    0    0    0  501 -0.00000000000E+00 -0.00000000000E+00 -0.92175611691E+03  0.92175611691E+03  0.00000000000E+00 0.  1.
         25    2    1    2    0    0  0.96651159508E+01  0.54860862788E+02 -0.60974593402E+03  0.62493264309E+03  0.12509026984E+03 0.  0.
          5    1    3    3  502    0  0.50412732111E+02 -0.12432432929E+02 -0.15790148865E+03  0.16627195032E+03  0.41800000000E+01 0. -1.
         -5    1    3    3    0  502 -0.40747616160E+02  0.67293295717E+02 -0.45184444537E+03  0.45866069276E+03  0.41800000000E+01 0. -1.
        -11    1    1    2    0    0 -0.15347122151E+02 -0.71032159574E+02 -0.28499355687E+03  0.29411295332E+03  0.00000000000E+00 0.  1.
         11    1    1    2    0    0  0.56820061998E+01  0.16171296786E+02 -0.99220287696E+01  0.19805117750E+02  0.00000000000E+00 0. -1.
</event>
<event>
 7    1  0.2688979E-009  0.1231775E+03  0.7561462E-02  0.1237945E+00
         -2   -1    0    0    0  501 -0.00000000000E+00  0.00000000000E+00  0.25608530417E+02  0.25608530417E+02  0.00000000000E+00 0.  1.
          2   -1    0    0  501    0  0.00000000000E+00 -0.00000000000E+00 -0.85255094249E+03  0.85255094249E+03  0.00000000000E+00 0. -1.
         25    2    1    2    0    0  0.65533782726E+02 -0.71936541195E+02 -0.52574607973E+03  0.54911177691E+03  0.12508101595E+03 0.  0.
          5    1    3    3  502    0  0.59046702748E+01  0.18168995311E+02 -0.96457637804E+01  0.21805748797E+02  0.41800000000E+01 0. -1.
         -5    1    3    3    0  502  0.59629112451E+02 -0.90105536506E+02 -0.51610031595E+03  0.52730602812E+03  0.41800000000E+01 0. -1.
        -11    1    1    2    0    0 -0.62792108942E+02  0.18919220274E+02 -0.23615094749E+03  0.24508785331E+03  0.00000000000E+00 0. -1.
         11    1    1    2    0    0 -0.27416737836E+01  0.53017320921E+02 -0.65045384850E+02  0.83959842681E+02  0.00000000000E+00 0.  1.
</event>
<event>
 7    1  0.2522928E-009  0.1540172E+03  0.7561462E-02  0.1195622E+00
          3   -1    0    0  501    0  0.00000000000E+00  0.00000000000E+00  0.97007646457E+02  0.97007646457E+02  0.00000000000E+00 0. -1.
         -3   -1    0    0    0  501 -0.00000000000E+00 -0.00000000000E+00 -0.26366592844E+03  0.26366592844E+03  0.00000000000E+00 0.  1.
         25    2    1    2    0    0  0.88972093093E+02  0.67590638191E+02 -0.13153698555E+03  0.21315007723E+03  0.12508576712E+03 0.  0.
          5    1    3    3  502    0 -0.30522181218E+02  0.26348128851E+02 -0.40591378717E+02  0.57366888240E+02  0.41800000000E+01 0.  1.
         -5    1    3    3    0  502  0.11949427431E+03  0.41242509340E+02 -0.90945606833E+02  0.15578318899E+03  0.41800000000E+01 0.  1.
        -11    1    1    2    0    0 -0.42852727634E+02 -0.82148504260E+02 -0.10478024601E+02  0.93244420838E+02  0.00000000000E+00 0. -1.
         11    1    1    2    0    0 -0.46119365459E+02  0.14557866069E+02 -0.24643271835E+02  0.54279076831E+02  0.00000000000E+00 0.  1.
</event>
<event>
 7    1  0.2522928E-009  0.1015775E+03  0.7561462E-02  0.1277013E+00
          3   -1    0    0  501    0  0.00000000000E+00  0.00000000000E+00  0.87090473774E+02  0.87090473774E+02  0.00000000000E+00 0. -1.
         -3   -1    0    0    0  501 -0.00000000000E+00 -0.00000000000E+00 -0.13322291289E+03  0.13322291289E+03  0.00000000000E+00 0.  1.
         25    2    1    2    0    0  0.24984197772E+02 -0.10788978553E+02 -0.61268740533E+02  0.14192025691E+03  0.12508752359E+03 0.  0.
          5    1    3    3  502    0 -0.29597400004E+02 -0.51549989769E+02 -0.24871771696E+02  0.64571549149E+02  0.41800000000E+01 0. -1.
         -5    1    3    3    0  502  0.54581597775E+02  0.40761011216E+02 -0.36396968837E+02  0.77348707756E+02  0.41800000000E+01 0. -1.
        -11    1    1    2    0    0 -0.49693506908E+02  0.50576119421E+01  0.17478408324E+02  0.52919928429E+02  0.00000000000E+00 0. -1.
         11    1    1    2    0    0  0.24709309137E+02  0.57313666113E+01 -0.23421069066E+01  0.25473201330E+02  0.00000000000E+00 0.  1.
</event>
<event>
 7    1  0.2522928E-009  0.1461531E+03  0.7561462E-02  0.1205281E+00
          4   -1    0    0  501    0  0.00000000000E+00  0.00000000000E+00  0.32349366155E+03  0.32349366155E+03  0.00000000000E+00 0. -1.
         -4   -1    0    0    0  501 -0.00000000000E+00 -0.00000000000E+00 -0.85688593953E+02  0.85688593953E+02  0.00000000000E+00 0.  1.
         25    2    1    2    0    0  0.73839981988E+02  0.10115986135E+03  0.11060148101E+03  0.20872281416E+03  0.12508742967E+03 0.  0.
          5    1    3    3  502    0 -0.39468859176E-01 -0.80675077077E+01  0.70138462965E+02  0.70724554615E+02  0.41800000000E+01 0.  1.
         -5    1    3    3    0  502  0.73879450847E+02  0.10922736906E+03  0.40463018042E+02  0.13799825954E+03  0.41800000000E+01 0.  1.
        -11    1    1    2    0    0 -0.73960182883E+02 -0.29498616894E+02  0.88372245264E+02  0.11895348160E+03  0.00000000000E+00 0. -1.
         11    1    1    2    0    0  0.12020089564E+00 -0.71661244454E+02  0.38831341322E+02  0.81505959744E+02  0.00000000000E+00 0.  1.
</event>
<event>
 7    1  0.2522928E-009  0.2081883E+03  0.7561462E-02  0.1143009E+00
         -2   -1    0    0    0  501 -0.00000000000E+00  0.00000000000E+00  0.11266741639E+03  0.11266741639E+03  0.00000000000E+00 0.  1.
          2   -1    0    0  501    0  0.00000000000E+00 -0.00000000000E+00 -0.51380225451E+03  0.51380225451E+03  0.00000000000E+00 0. -1.
         25    2    1    2    0    0 -0.17132884363E+03  0.55431946361E+02 -0.35906536372E+03  0.42071647552E+03  0.12509254179E+03 0.  0.
          5    1    3    3  502    0  0.28636861836E+01 -0.24159408910E+02 -0.67315758040E+02  0.71699103328E+02  0.41800000000E+01 0.  1.
         -5    1    3    3    0  502 -0.17419252982E+03  0.79591355271E+02 -0.29174960568E+03  0.34901737219E+03  0.41800000000E+01 0.  1.
        -11    1    1    2    0    0  0.16036676537E+03 -0.75510726415E+02 -0.29633198723E+02  0.17971504028E+03  0.00000000000E+00 0.  1.
         11    1    1    2    0    0  0.10962078266E+02  0.20078780054E+02 -0.12436275676E+02  0.26038155101E+02  0.00000000000E+00 0. -1.
</event>
<event>
 7    1  0.2522928E-009  0.7581994E+02  0.7561462E-02  0.1341351E+00
         -2   -1    0    0    0  501 -0.00000000000E+00  0.00000000000E+00  0.10310988882E+03  0.10310988882E+03  0.00000000000E+00 0. -1.
          2   -1    0    0  501    0  0.00000000000E+00 -0.00000000000E+00 -0.26228517425E+03  0.26228517425E+03  0.00000000000E+00 0.  1.
         25    2    1    2    0    0  0.24922878896E+02 -0.22011414542E+02  0.45297749891E+02  0.13713069482E+03  0.12508912444E+03 0.  0.
          5    1    3    3  502    0  0.59030316909E+02 -0.28268234531E+02 -0.15156761975E+02  0.67311746608E+02  0.41800000000E+01 0.  1.
         -5    1    3    3    0  502 -0.34107438013E+02  0.62568199886E+01  0.60454511866E+02  0.69818948210E+02  0.41800000000E+01 0.  1.
        -11    1    1    2    0    0 -0.11637349302E+01 -0.10664893667E+02  0.71023713780E+01  0.12866153858E+02  0.00000000000E+00 0. -1.
         11    1    1    2    0    0 -0.23759143966E+02  0.32676308209E+02 -0.21157540670E+03  0.21539821439E+03  0.00000000000E+00 0.  1.
</event>
<event>
 7    1  0.2522928E-009  0.1842812E+03  0.7561462E-02  0.1163723E+00
         -2   -1    0    0    0  501 -0.00000000000E+00  0.00000000000E+00  0.11952882444E+03  0.11952882444E+03  0.00000000000E+00 0.  1.
          2   -1    0    0  501    0  0.00000000000E+00 -0.00000000000E+00 -0.11538650302E+04  0.11538650302E+04  0.00000000000E+00 0. -1.
         25    2    1    2    0    0 -0.61489595918E+02 -0.16393814808E+03 -0.10573517251E+04  0.10790258328E+04  0.12508952937E+03 0.  0.
          5    1    3    3  502    0 -0.77328172599E+02 -0.10243782841E+03 -0.43869073223E+03  0.45709975488E+03  0.41800000000E+01 0.  1.
         -5    1    3    3    0  502  0.15838576680E+02 -0.61500319671E+02 -0.61866099288E+03  0.62192607787E+03  0.41800000000E+01 0.  1.
        -11    1    1    2    0    0 -0.15005787988E+01  0.10971707815E+02  0.26693041013E+02  0.28898936790E+02  0.00000000000E+00 0.  1.
         11    1    1    2    0    0  0.62990174717E+02  0.15296644027E+03 -0.36775216768E+01  0.16546908510E+03  0.00000000000E+00 0. -1.
</event>
<event>
 7    1  0.2522928E-009  0.1351331E+03  0.7561462E-02  0.1220032E+00
         -2   -1    0    0    0  501 -0.00000000000E+00  0.00000000000E+00  0.54500070660E+02  0.54500070660E+02  0.00000000000E+00 0.  1.
          2   -1    0    0  501    0  0.00000000000E+00 -0.00000000000E+00 -0.50385099613E+03  0.50385099613E+03  0.00000000000E+00 0. -1.
         25    2    1    2    0    0 -0.16678063610E+01 -0.11580846195E+03 -0.15869408310E+03  0.23291030371E+03  0.12509602762E+03 0.  0.
          5    1    3    3  502    0 -0.33944980692E+02 -0.46099003455E+02 -0.95344659817E+00  0.57408721412E+02  0.41800000000E+01 0.  1.
         -5    1    3    3    0  502  0.32277174331E+02 -0.69709458498E+02 -0.15774063650E+03  0.17550158230E+03  0.41800000000E+01 0.  1.
        -11    1    1    2    0    0 -0.10538712108E+01  0.12568408695E+03 -0.28888737330E+03  0.31504525835E+03  0.00000000000E+00 0. -1.
         11    1    1    2    0    0  0.27216775718E+01 -0.98756249925E+01 -0.17694690744E+01  0.10395504731E+02  0.00000000000E+00 0.  1.
</event>
<event>
 7    1  0.2522928E-009  0.2296159E+03  0.7561462E-02  0.1126910E+00
          2   -1    0    0  501    0  0.00000000000E+00  0.00000000000E+00  0.20610603977E+03  0.20610603977E+03  0.00000000000E+00 0.  1.
         -2   -1    0    0    0  501 -0.00000000000E+00 -0.00000000000E+00 -0.41402625758E+03  0.41402625758E+03  0.00000000000E+00 0. -1.
         25    2    1    2    0    0  0.19976889628E+03  0.82131089138E+02 -0.28005546093E+03  0.37514183288E+03  0.12508879190E+03 0.  0.
          5    1    3    3  502    0  0.35532291254E+02  0.45675257416E+02 -0.15492568023E+03  0.16543340550E+03  0.41800000000E+01 0.  1.
         -5    1    3    3    0  502  0.16423660502E+03  0.36455831722E+02 -0.12512978070E+03  0.20970842738E+03  0.41800000000E+01 0.  1.
        -11    1    1    2    0    0 -0.18152725295E+03 -0.10012012680E+03  0.56089394283E+02  0.21476080533E+03  0.00000000000E+00 0. -1.
         11    1    1    2    0    0 -0.18241643325E+02  0.17989037662E+02  0.16045848826E+02  0.30229659140E+02  0.00000000000E+00 0.  1.
</event>
<event>
 7    1  0.2522928E-009  0.1105554E+03  0.7561462E-02  0.1259545E+00
          1   -1    0    0  501    0  0.00000000000E+00  0.00000000000E+00  0.96269160292E+02  0.96269160292E+02  0.00000000000E+00 0. -1.
         -1   -1    0    0    0  501 -0.00000000000E+00 -0.00000000000E+00 -0.18555649731E+03  0.18555649731E+03  0.00000000000E+00 0.  1.
         25    2    1    2    0    0 -0.68803014638E+02 -0.36515012095E+02 -0.53331924065E+02  0.15671398286E+03  0.12509107629E+03 0.  0.
          5    1    3    3  502    0 -0.93802453852E+02 -0.37479904252E+01 -0.65083447423E+01  0.94195428404E+02  0.41800000000E+01 0. -1.
         -5    1    3    3    0  502  0.24999439214E+02 -0.32767021670E+02 -0.46823579323E+02  0.62518554452E+02  0.41800000000E+01 0. -1.
        -11    1    1    2    0    0  0.15204771239E+02 -0.69399582307E+01 -0.51702467463E+02  0.54336849655E+02  0.00000000000E+00 0.  1.
         11    1    1    2    0    0  0.53598243400E+02  0.43454970325E+02  0.15747054507E+02  0.70774825095E+02  0.00000000000E+00 0. -1.
</event>
<event>
 7    1  0.2522928E-009  0.1951112E+03  0.7561462E-02  0.1153930E+00
         -2   -1    0    0    0  501 -0.00000000000E+00  0.00000000000E+00  0.10403460535E+03  0.10403460535E+03  0.00000000000E+00 0.  1.
          2   -1    0    0  501    0  0.00000000000E+00 -0.00000000000E+00 -0.48698161183E+03  0.48698161183E+03  0.00000000000E+00 0. -1.
         25    2    1    2    0    0 -0.16061294090E+03 -0.80610150889E+02 -0.30256869353E+03  0.37348316480E+03  0.12508935556E+03 0.  0.
          5    1    3    3  502    0 -0.17047038668E+03 -0.52532791738E+02 -0.29086928096E+03  0.34123636668E+03  0.41800000000E+01 0.  1.
         -5    1    3    3    0  502  0.98574457792E+01 -0.28077359151E+02 -0.11699412572E+02  0.32246798116E+02  0.41800000000E+01 0.  1.
        -11    1    1    2    0    0  0.82334015742E+02  0.26165363730E+02  0.89774237148E+01  0.86856839361E+02  0.00000000000E+00 0.  1.
         11    1    1    2    0    0  0.78278925160E+02  0.54444787160E+02 -0.89355736673E+02  0.13067621302E+03  0.00000000000E+00 0. -1.
</event>
<event>
 7    1  0.2522928E-009  0.7042837E+02  0.7561462E-02  0.1358642E+00
          2   -1    0    0  501    0  0.00000000000E+00  0.00000000000E+00  0.77664170092E+03  0.77664170092E+03  0.00000000000E+00 0. -1.
         -2   -1    0    0    0  501 -0.00000000000E+00 -0.00000000000E+00 -0.16496196690E+02  0.16496196690E+02  0.00000000000E+00 0.  1.
         25    2    1    2    0    0  0.44032328931E+01  0.25810672865E+02  0.51021957567E+03  0.52598213446E+03  0.12509041163E+03 0.  0.
          5    1    3    3  502    0  0.25098709939E+02  0.52862700095E+01  0.48899392344E+03  0.48968399959E+03  0.41800000000E+01 0. -1.
         -5    1    3    3    0  502 -0.20695477046E+02  0.20524402855E+02  0.21225652230E+02  0.36298134874E+02  0.41800000000E+01 0. -1.
        -11    1    1    2    0    0 -0.22837126810E+02  0.23506910444E+02  0.15669324243E+03  0.16008398241E+03  0.00000000000E+00 0. -1.
         11    1    1    2    0    0  0.18433893917E+02 -0.49317583309E+02  0.93232686134E+02  0.10707178075E+03  0.00000000000E+00 0.  1.
</event>
<event>
 7    1  0.2522928E-009  0.1017236E+03  0.7561462E-02  0.1276713E+00
          1   -1    0    0  501    0  0.00000000000E+00  0.00000000000E+00  0.57576348218E+03  0.57576348218E+03  0.00000000000E+00 0. -1.
         -1   -1    0    0    0  501 -0.00000000000E+00 -0.00000000000E+00 -0.26096497502E+02  0.26096497502E+02  0.00000000000E+00 0.  1.
         25    2    1    2    0    0 -0.94152277257E+00 -0.48821924922E+02  0.36857614697E+03  0.39227691332E+03  0.12509330036E+03 0.  0.
          5    1    3    3  502    0  0.23167239634E+02  0.16160897324E+02  0.27109007195E+03  0.27258979273E+03  0.41800000000E+01 0. -1.
         -5    1    3    3    0  502 -0.24108762406E+02 -0.64982822245E+02  0.97486075021E+02  0.11968712059E+03  0.41800000000E+01 0. -1.
        -11    1    1    2    0    0 -0.38944353508E+01  0.76882670166E+02  0.12932798105E+03  0.15050527659E+03  0.00000000000E+00 0.  1.
         11    1    1    2    0    0  0.48359581234E+01 -0.28060745244E+02  0.51762856664E+02  0.59077789775E+02  0.00000000000E+00 0. -1.
</event>
<event>
 7    1  0.2522928E-009  0.9909340E+02  0.7561462E-02  0.1282214E+00
          1   -1    0    0  501    0  0.00000000000E+00  0.00000000000E+00  0.22856123082E+02  0.22856123082E+02  0.00000000000E+00 0. -1.
         -1   -1    0    0    0  501 -0.00000000000E+00 -0.00000000000E+00 -0.58549935220E+03  0.58549935220E+03  0.00000000000E+00 0.  1.
         25    2    1    2    0    0  0.16264306798E+02  0.21892248663E+02 -0.39184136601E+03  0.41222694351E+03  0.12509036178E+03 0.  0.
          5    1    3    3  502    0  0.57359915335E+02  0.23736687805E+02 -0.34130835482E+03  0.34693292681E+03  0.41800000000E+01 0.  1.
         -5    1    3    3    0  502 -0.41095608537E+02 -0.18444391421E+01 -0.50533011190E+02  0.65294016699E+02  0.41800000000E+01 0.  1.
        -11    1    1    2    0    0 -0.36800881813E+02 -0.48580117363E+02 -0.12710859372E+03  0.14096427669E+03  0.00000000000E+00 0.  1.
         11    1    1    2    0    0  0.20536575015E+02  0.26687868701E+02 -0.43693269391E+02  0.55164255086E+02  0.00000000000E+00 0. -1.
</event>
<event>
 7    1  0.2522928E-009  0.1574738E+03  0.7561462E-02  0.1191579E+00
         -1   -1    0    0    0  501 -0.00000000000E+00  0.00000000000E+00  0.27574475045E+02  0.27574475045E+02  0.00000000000E+00 0.  1.
          1   -1    0    0  501    0  0.00000000000E+00 -0.00000000000E+00 -0.12500348528E+04  0.12500348528E+04  0.00000000000E+00 0. -1.
         25    2    1    2    0    0 -0.10474773319E+03 -0.67973228872E+02 -0.93465751731E+03  0.95121957834E+03  0.12506623882E+03 0.  0.
          5    1    3    3  502    0 -0.12850097979E+03 -0.71399681110E+02 -0.86530051175E+03  0.87770887218E+03  0.41800000000E+01 0.  1.
         -5    1    3    3    0  502  0.23753246601E+02  0.34264522379E+01 -0.69357005562E+02  0.73510706156E+02  0.41800000000E+01 0.  1.
        -11    1    1    2    0    0  0.54817378385E+02 -0.50630119708E+01 -0.57152899591E+02  0.79353846755E+02  0.00000000000E+00 0.  1.
         11    1    1    2    0    0  0.49930354803E+02  0.73036240843E+02 -0.23064996082E+03  0.24703590272E+03  0.00000000000E+00 0. -1.
</event>
<event>
 7    1  0.2522928E-009  0.1325443E+03  0.7561462E-02  0.1223729E+00
          1   -1    0    0  501    0  0.00000000000E+00  0.00000000000E+00  0.82928972715E+02  0.82928972715E+02  0.00000000000E+00 0. -1.
         -1   -1    0    0    0  501 -0.00000000000E+00 -0.00000000000E+00 -0.40822864682E+03  0.40822864682E+03  0.00000000000E+00 0.  1.
         25    2    1    2    0    0  0.10023526885E+03  0.63316634512E+02 -0.52086269507E+02  0.18004607497E+03  0.12508998487E+03 0.  0.
          5    1    3    3  502    0  0.93933661938E+02  0.15737692217E+02 -0.79924680138E+02  0.12440512327E+03  0.41800000000E+01 0. -1.
         -5    1    3    3    0  502  0.63016069156E+01  0.47578942294E+02  0.27838410631E+02  0.55640951700E+02  0.41800000000E+01 0. -1.
        -11    1    1    2    0    0 -0.87882603668E+02 -0.64724991230E+02 -0.27731431216E+03  0.29801997290E+03  0.00000000000E+00 0.  1.
         11    1    1    2    0    0 -0.12352665186E+02  0.14083567187E+01  0.41009075607E+01  0.13091571665E+02  0.00000000000E+00 0. -1.
</event>
<event>
 7    1  0.2522928E-009  0.1095651E+03  0.7561462E-02  0.1261377E+00
          2   -1    0    0  501    0  0.00000000000E+00  0.00000000000E+00  0.21782819714E+03  0.21782819714E+03  0.00000000000E+00 0. -1.
         -2   -1    0    0    0  501 -0.00000000000E+00 -0.00000000000E+00 -0.82003876546E+02  0.82003876546E+02  0.00000000000E+00 0.  1.
         25    2    1    2    0    0 -0.79510523833E+02  0.33245781934E+02  0.10021366599E+03  0.18198344011E+03  0.12509191902E+03 0.  0.
          5    1    3    3  502    0 -0.93684917047E+02  0.27892022695E+02  0.19511271427E+02  0.99764676739E+02  0.41800000000E+01 0.  1.
         -5    1    3    3    0  502  0.14174393214E+02  0.53537592389E+01  0.80702394567E+02  0.82218763368E+02  0.41800000000E+01 0.  1.
        -11    1    1    2    0    0  0.44888829348E+02 -0.49930426838E+02  0.41552300703E+02  0.78959788615E+02  0.00000000000E+00 0. -1.
         11    1    1    2    0    0  0.34621694485E+02  0.16684644904E+02 -0.59416460989E+01  0.38888844968E+02  0.00000000000E+00 0.  1.
</event>
<event>
 7    1  0.2522928E-009  0.1615556E+03  0.7561462E-02  0.1186952E+00
          1   -1    0    0  501    0  0.00000000000E+00  0.00000000000E+00  0.17778465685E+03  0.17778465685E+03  0.00000000000E+00 0. -1.
         -1   -1    0    0    0  501 -0.00000000000E+00 -0.00000000000E+00 -0.18430160467E+03  0.18430160467E+03  0.00000000000E+00 0.  1.
         25    2    1    2    0    0 -0.13782882802E+03 -0.33347546037E+02 -0.22440140069E+02  0.19042062740E+03  0.12509041047E+03 0.  0.
          5    1    3    3  502    0 -0.11456745525E+03 -0.72282102345E+02 -0.40460881357E+02  0.14143888943E+03  0.41800000000E+01 0.  1.
         -5    1    3    3    0  502 -0.23261372768E+02  0.38934556307E+02  0.18020741288E+02  0.48981737969E+02  0.41800000000E+01 0.  1.
        -11    1    1    2    0    0  0.59422902377E+02  0.10259306918E+02  0.54503398277E+02  0.81283178636E+02  0.00000000000E+00 0.  1.
         11    1    1    2    0    0  0.78405925644E+02  0.23088239119E+02 -0.38580206027E+02  0.90382455481E+02  0.00000000000E+00 0. -1.
</event>
<event>
 7    1  0.2522928E-009  0.1161741E+03  0.7561462E-02  0.1249545E+00
         -1   -1    0    0    0  501 -0.00000000000E+00  0.00000000000E+00  0.13980735551E+04  0.13980735551E+04  0.00000000000E+00 0.  1.
          1   -1    0    0  501    0  0.00000000000E+00 -0.00000000000E+00 -0.18002039891E+02  0.18002039891E+02  0.00000000000E+00 0. -1.
         25    2    1    2    0    0  0.10281314064E+03 -0.47157601666E+00  0.96958475760E+03  0.98301161038E+03  0.12508580930E+03 0.  0.
          5    1    3    3  502    0  0.53428889533E+02 -0.39246008132E+02  0.78873103906E+03  0.79152322756E+03  0.41800000000E+01 0.  1.
         -5    1    3    3    0  502  0.49384251103E+02  0.38774432115E+02  0.18085371854E+03  0.19148838281E+03  0.41800000000E+01 0.  1.
        -11    1    1    2    0    0 -0.66049175842E+02 -0.26308362115E+01  0.37851618961E+03  0.38424461054E+03  0.00000000000E+00 0.  1.
         11    1    1    2    0    0 -0.36763964794E+02  0.31024122281E+01  0.31970568040E+02  0.48819374124E+02  0.00000000000E+00 0. -1.
</event>
<event>
 7    1  0.2522928E-009  0.9332462E+02  0.7561462E-02  0.1294995E+00
         -1   -1    0    0    0  501 -0.00000000000E+00  0.00000000000E+00  0.55094592856E+02  0.55094592856E+02  0.00000000000E+00 0.  1.
          1   -1    0    0  501    0  0.00000000000E+00 -0.00000000000E+00 -0.23824852863E+03  0.23824852863E+03  0.00000000000E+00 0. -1.
         25    2    1    2    0    0 -0.18374762913E+02  0.20877993770E+02 -0.65222182010E+02  0.14378788701E+03  0.12508997117E+03 0.  0.
          5    1    3    3  502    0  0.32768887690E+02 -0.10868595226E+02  0.19426187010E+02  0.39834350809E+02  0.41800000000E+01 0.  1.
         -5    1    3    3    0  502 -0.51143650603E+02  0.31746588997E+02 -0.84648369020E+02  0.10395353620E+03  0.41800000000E+01 0.  1.
        -11    1    1    2    0    0  0.53344137786E+02 -0.18580469795E+02 -0.79751268520E+02  0.97729707482E+02  0.00000000000E+00 0.  1.
         11    1    1    2    0    0 -0.34969374873E+02 -0.22975239750E+01 -0.38180485247E+02  0.51825527003E+02  0.00000000000E+00 0. -1.
</event>
<event>
 7    1  0.2522928E-009  0.1598194E+03  0.7561462E-02  0.1188901E+00
          3   -1    0    0  501    0  0.00000000000E+00  0.00000000000E+00  0.18705765104E+03  0.18705765104E+03  0.00000000000E+00 0. -1.
         -3   -1    0    0    0  501 -0.00000000000E+00 -0.00000000000E+00 -0.16096301792E+03  0.16096301792E+03  0.00000000000E+00 0.  1.
         25    2    1    2    0    0  0.94272651112E+02 -0.10162111593E+03  0.51359672528E+02  0.19364707500E+03  0.12508872749E+03 0.  0.
          5    1    3    3  502    0  0.89708165946E+02 -0.28512360188E+02  0.70667386473E+02  0.11777886751E+03  0.41800000000E+01 0.  1.
         -5    1    3    3    0  502  0.45644851655E+01 -0.73108755738E+02 -0.19307713944E+02  0.75868207492E+02  0.41800000000E+01 0.  1.
        -11    1    1    2    0    0 -0.65473969190E+02  0.24816494556E+02 -0.72617251971E+01  0.70394827199E+02  0.00000000000E+00 0. -1.
         11    1    1    2    0    0 -0.28798681922E+02  0.76804621370E+02 -0.18003314209E+02  0.83978766762E+02  0.00000000000E+00 0.  1.
</event>
<event>
 7    1  0.2522928E-009  0.1943656E+03  0.7561462E-02  0.1154582E+00
          2   -1    0    0  501    0  0.00000000000E+00  0.00000000000E+00  0.31499822341E+03  0.31499822341E+03  0.00000000000E+00 0. -1.
         -2   -1    0    0    0  501 -0.00000000000E+00 -0.00000000000E+00 -0.17155931879E+03  0.17155931879E+03  0.00000000000E+00 0.  1.
         25    2    1    2    0    0 -0.22235017247E+02  0.17819060887E+03 -0.31815332704E+02  0.22114599095E+03  0.12508814827E+03 0.  0.
          5    1    3    3  502    0  0.39758203132E+02  0.85318453774E+02  0.22551978589E+02  0.96881460605E+02  0.41800000000E+01 0. -1.
         -5    1    3    3    0  502 -0.61993220379E+02  0.92872155094E+02 -0.54367311293E+02  0.12426453035E+03  0.41800000000E+01 0. -1.
        -11    1    1    2    0    0 -0.74761452645E+01 -0.75478287306E+02  0.12739840720E+03  0.14826738940E+03  0.00000000000E+00 0. -1.
         11    1    1    2    0    0  0.29711162512E+02 -0.10271232156E+03  0.47855830127E+02  0.11714416185E+03  0.00000000000E+00 0.  1.
</event>
<event>
 7    1  0.2522928E-009  0.1119654E+03  0.7561462E-02  0.1256973E+00
          1   -1    0    0  501    0  0.00000000000E+00  0.00000000000E+00  0.64681369197E+03  0.64681369197E+03  0.00000000000E+00 0. -1.
         -1   -1    0    0    0  501 -0.00000000000E+00 -0.00000000000E+00 -0.30684552710E+02  0.30684552710E+02  0.00000000000E+00 0.  1.
         25    2    1    2    0    0  0.27922987818E+02  0.66633609122E+02  0.45790087681E+03  0.48014714466E+03  0.12509331087E+03 0.  0.
          5    1    3    3  502    0  0.77418310098E+02  0.49146691664E+02  0.28967408226E+03  0.30387092387E+03  0.41800000000E+01 0. -1.
         -5    1    3    3    0  502 -0.49495322281E+02  0.17486917458E+02  0.16822679455E+03  0.17627622079E+03  0.41800000000E+01 0. -1.
        -11    1    1    2    0    0 -0.33641969681E+02 -0.40150320176E+02  0.19328997656E+02  0.55834044136E+02  0.00000000000E+00 0.  1.
         11    1    1    2    0    0  0.57189818639E+01 -0.26483288947E+02  0.13889926479E+03  0.14151705589E+03  0.00000000000E+00 0. -1.
</event>
<event>
 7    1  0.2522928E-009  0.1023770E+03  0.7561462E-02  0.1275375E+00
          2   -1    0    0  501    0  0.00000000000E+00  0.00000000000E+00  0.46502167554E+03  0.46502167554E+03  0.00000000000E+00 0. -1.
         -2   -1    0    0    0  501 -0.00000000000E+00 -0.00000000000E+00 -0.88644010159E+02  0.88644010159E+02  0.00000000000E+00 0.  1.
         25    2    1    2    0    0  0.63114225221E+02 -0.79568844922E+01 -0.19417161077E+02  0.14167258504E+03  0.12508947906E+03 0.  0.
          5    1    3    3  502    0  0.61418022874E+01 -0.29014290475E+02 -0.60991893422E+02  0.67948761948E+02  0.41800000000E+01 0. -1.
         -5    1    3    3    0  502  0.56972422933E+02  0.21057405983E+02  0.41574732345E+02  0.73723823091E+02  0.41800000000E+01 0. -1.
        -11    1    1    2    0    0 -0.57338061131E+02  0.47192816165E+02  0.27526095029E+03  0.28510244809E+03  0.00000000000E+00 0.  1.
         11    1    1    2    0    0 -0.57761640902E+01 -0.39235931673E+02  0.12053387617E+03  0.12689065257E+03  0.00000000000E+00 0. -1.
</event>
<event>
 7    1  0.2522928E-009  0.8435966E+02  0.7561462E-02  0.1317116E+00
         -2   -1    0    0    0  501 -0.00000000000E+00  0.00000000000E+00  0.11230386348E+03  0.11230386348E+03  0.00000000000E+00 0.  1.
          2   -1    0    0  501    0  0.00000000000E+00 -0.00000000000E+00 -0.10090792812E+03  0.10090792812E+03  0.00000000000E+00 0. -1.
         25    2    1    2    0    0  0.14740096059E+02  0.14753400875E+02  0.12218174862E+02  0.12740571077E+03  0.12509195846E+03 0.  0.
          5    1    3    3  502    0  0.33465433736E+02 -0.36132764643E+02 -0.30649926759E+02  0.58158424551E+02  0.41800000000E+01 0. -1.
         -5    1    3    3    0  502 -0.18725337677E+02  0.50886165518E+02  0.42868101622E+02  0.69247286220E+02  0.41800000000E+01 0. -1.
        -11    1    1    2    0    0 -0.23898457561E+02  0.18624209150E+02  0.27627115884E+02  0.41003109301E+02  0.00000000000E+00 0.  1.
         11    1    1    2    0    0  0.91583615019E+01 -0.33377610025E+02 -0.28449355379E+02  0.44802971530E+02  0.00000000000E+00 0. -1.
</event>
<event>
 7    1  0.2522928E-009  0.1125899E+03  0.7561462E-02  0.1255848E+00
         -1   -1    0    0    0  501 -0.00000000000E+00  0.00000000000E+00  0.20080173526E+02  0.20080173526E+02  0.00000000000E+00 0.  1.
          1   -1    0    0  501    0  0.00000000000E+00 -0.00000000000E+00 -0.71941621687E+03  0.71941621687E+03  0.00000000000E+00 0. -1.
         25    2    1    2    0    0  0.54573366986E+02 -0.20333717163E+01 -0.38227575410E+03  0.40591137380E+03  0.12508758618E+03 0.  0.
          5    1    3    3  502    0  0.18252488550E+01  0.56389371194E+02 -0.13494246009E+03  0.14632167526E+03  0.41800000000E+01 0. -1.
         -5    1    3    3    0  502  0.52748118131E+02 -0.58422742910E+02 -0.24733329401E+03  0.25958969853E+03  0.41800000000E+01 0. -1.
        -11    1    1    2    0    0 -0.16682343809E+02  0.35502932613E+02 -0.22647163806E+03  0.22984377665E+03  0.00000000000E+00 0. -1.
         11    1    1    2    0    0 -0.37891023177E+02 -0.33469560896E+02 -0.90588651182E+02  0.10374123995E+03  0.00000000000E+00 0.  1.
</event>
<event>
 7    1  0.2522928E-009  0.1237384E+03  0.7561462E-02  0.1237054E+00
         -1   -1    0    0    0  501 -0.00000000000E+00  0.00000000000E+00  0.39132989434E+02  0.39132989434E+02  0.00000000000E+00 0.  1.
          1   -1    0    0  501    0  0.00000000000E+00 -0.00000000000E+00 -0.51564516430E+03  0.51564516430E+03  0.00000000000E+00 0. -1.
         25    2    1    2    0    0 -0.54110249080E+02 -0.41065643504E+02 -0.13914246126E+03  0.19905256064E+03  0.12508793403E+03 0.  0.
          5    1    3    3  502    0 -0.19592998171E+02 -0.84155564293E+02 -0.76884668225E+02  0.11573577315E+03  0.41800000000E+01 0.  1.
         -5    1    3    3    0  502 -0.34517250909E+02  0.43089920789E+02 -0.62257793032E+02  0.83316787487E+02  0.41800000000E+01 0.  1.
        -11    1    1    2    0    0 -0.20926398093E+02  0.20478077041E+01 -0.28073423417E+02  0.35074559953E+02  0.00000000000E+00 0.  1.
         11    1    1    2    0    0  0.75036647173E+02  0.39017835800E+02 -0.30929629019E+03  0.32065103314E+03  0.00000000000E+00 0. -1.
</event>
<event>
 7    1  0.2522928E-009  0.2246887E+03  0.7561462E-02  0.1130435E+00
          2   -1    0    0  501    0  0.00000000000E+00  0.00000000000E+00  0.11039355445E+03  0.11039355445E+03  0.00000000000E+00 0. -1.
         -2   -1    0    0    0  501 -0.00000000000E+00 -0.00000000000E+00 -0.50793897650E+03  0.50793897650E+03  0.00000000000E+00 0.  1.
         25    2    1    2    0    0 -0.20848062112E+03  0.40569353539E+01 -0.23656907744E+03  0.33924802383E+03  0.12507463836E+03 0.  0.
          5    1    3    3  502    0 -0.12902513204E+03  0.61192396007E+02 -0.11685493550E+03  0.18456582126E+03  0.41800000000E+01 0. -1.
         -5    1    3    3    0  502 -0.79455489075E+02 -0.57135460653E+02 -0.11971414195E+03  0.15468220257E+03  0.41800000000E+01 0. -1.
        -11    1    1    2    0    0  0.65161068771E+02 -0.31865590011E+01 -0.23226332730E+01  0.65280270120E+02  0.00000000000E+00 0.  1.
         11    1    1    2    0    0  0.14331955234E+03 -0.87037635283E+00 -0.15865371134E+03  0.21380423701E+03  0.00000000000E+00 0. -1.
</event>
<event>
 7    1  0.2522928E-009  0.1201859E+03  0.7561462E-02  0.1242791E+00
          1   -1    0    0  501    0  0.00000000000E+00  0.00000000000E+00  0.36936976600E+03  0.36936976600E+03  0.00000000000E+00 0. -1.
         -1   -1    0    0    0  501 -0.00000000000E+00 -0.00000000000E+00 -0.42593497177E+02  0.42593497177E+02  0.00000000000E+00 0.  1.
         25    2    1    2    0    0 -0.23036840797E+02  0.57908453440E+02  0.19840589786E+03  0.24268564287E+03  0.12508931183E+03 0.  0.
          5    1    3    3  502    0  0.14962994684E+02 -0.30798017550E+02  0.95541949145E+02  0.10157827298E+03  0.41800000000E+01 0. -1.
         -5    1    3    3    0  502 -0.37999835480E+02  0.88706470990E+02  0.10286394871E+03  0.14110736989E+03  0.41800000000E+01 0. -1.
        -11    1    1    2    0    0 -0.33412566523E+02 -0.90243488445E+01  0.52014958100E+02  0.62477150542E+02  0.00000000000E+00 0. -1.
         11    1    1    2    0    0  0.56449407320E+02 -0.48884104595E+02  0.76355412866E+02  0.10680046977E+03  0.00000000000E+00 0.  1.
</event>
<event>
 7    1  0.2522928E-009  0.9675094E+02  0.7561462E-02  0.1287281E+00
         -1   -1    0    0    0  501 -0.00000000000E+00  0.00000000000E+00  0.22819004417E+03  0.22819004417E+03  0.00000000000E+00 0.  1.
          1   -1    0    0  501    0  0.00000000000E+00 -0.00000000000E+00 -0.78328602077E+02  0.78328602077E+02  0.00000000000E+00 0. -1.
         25    2    1    2    0    0  0.38270679551E+02 -0.69053609017E+02  0.70290447614E+02  0.16377341684E+03  0.12509172317E+03 0.  0.
          5    1    3    3  502    0  0.13376637855E+02  0.25109042316E+01  0.85246904742E+02  0.86427693759E+02  0.41800000000E+01 0. -1.
         -5    1    3    3    0  502  0.24894041696E+02 -0.71564513249E+02 -0.14956457129E+02  0.77345723077E+02  0.41800000000E+01 0. -1.
        -11    1    1    2    0    0 -0.28815838873E+02  0.82245887939E+02  0.88512799099E+02  0.12421454930E+03  0.00000000000E+00 0.  1.
         11    1    1    2    0    0 -0.94548406775E+01 -0.13192278922E+02 -0.89418046241E+01  0.18530680110E+02  0.00000000000E+00 0. -1.
</event>
<event>
 7    1  0.2522928E-009  0.1143771E+03  0.7561462E-02  0.1252672E+00
         -1   -1    0    0    0  501 -0.00000000000E+00  0.00000000000E+00  0.30532675040E+02  0.30532675040E+02  0.00000000000E+00 0.  1.
          1   -1    0    0  501    0  0.00000000000E+00 -0.00000000000E+00 -0.45811448870E+03  0.45811448870E+03  0.00000000000E+00 0. -1.
         25    2    1    2    0    0 -0.31093046560E+01 -0.44255184860E+02 -0.22026301316E+03  0.25715998373E+03  0.12508906068E+03 0.  0.
          5    1    3    3  502    0  0.36510281686E+02  0.30662156806E+02 -0.81031205861E+02  0.94110027373E+02  0.41800000000E+01 0.  1.
         -5    1    3    3    0  502 -0.39619586342E+02 -0.74917341666E+02 -0.13923180730E+03  0.16304995636E+03  0.41800000000E+01 0.  1.
        -11    1    1    2    0    0 -0.32523039599E+02 -0.73375914522E+01 -0.36060864437E+02  0.49111854954E+02  0.00000000000E+00 0.  1.
         11    1    1    2    0    0  0.35632344255E+02  0.51592776312E+02 -0.17125793605E+03  0.18237532505E+03  0.00000000000E+00 0. -1.
</event>
<event>
 7    1  0.2522928E-009  0.7180324E+02  0.7561462E-02  0.1354066E+00
          2   -1    0    0  501    0  0.00000000000E+00  0.00000000000E+00  0.26528171388E+03  0.26528171388E+03  0.00000000000E+00 0. -1.
         -2   -1    0    0    0  501 -0.00000000000E+00 -0.00000000000E+00 -0.50179781734E+02  0.50179781734E+02  0.00000000000E+00 0.  1.
         25    2    1    2    0    0  0.21590595487E+02 -0.18154540712E+02  0.15686465741E+03  0.20260943324E+03  0.12509324735E+03 0.  0.
          5    1    3    3  502    0 -0.21608784693E+02  0.15504936698E+02 -0.86037596592E+01  0.28263752726E+02  0.41800000000E+01 0.  1.
         -5    1    3    3    0  502  0.43199380180E+02 -0.33659477410E+02  0.16546841707E+03  0.17434568052E+03  0.41800000000E+01 0.  1.
        -11    1    1    2    0    0 -0.27905173391E+02 -0.12417260349E+02 -0.14417287894E+02  0.33774920381E+02  0.00000000000E+00 0.  1.
         11    1    1    2    0    0  0.63145779034E+01  0.30571801062E+02  0.72654562628E+02  0.79077141987E+02  0.00000000000E+00 0. -1.
</event>
<event>
 7    1  0.2522928E-009  0.2777472E+03  0.7561462E-02  0.1096926E+00
         -1   -1    0    0    0  501 -0.00000000000E+00  0.00000000000E+00  0.18704540379E+03  0.18704540379E+03  0.00000000000E+00 0.  1.
          1   -1    0    0  501    0  0.00000000000E+00 -0.00000000000E+00 -0.43049464114E+03  0.43049464114E+03  0.00000000000E+00 0. -1.
         25    2    1    2    0    0  0.27697227972E+02 -0.25597326890E+03 -0.17841944942E+03  0.33730059008E+03  0.12509491320E+03 0.  0.
          5    1    3    3  502    0 -0.42532996513E+02 -0.15338299196E+03 -0.77342236429E+02  0.17701607823E+03  0.41800000000E+01 0. -1.
         -5    1    3    3    0  502  0.70230224484E+02 -0.10259027694E+03 -0.10107721299E+03  0.16028451185E+03  0.41800000000E+01 0. -1.
        -11    1    1    2    0    0 -0.30982041203E+02  0.22293872041E+02 -0.16334435555E+02  0.41517675664E+02  0.00000000000E+00 0. -1.
         11    1    1    2    0    0  0.32848132315E+01  0.23367939686E+03 -0.48695352373E+02  0.23872177918E+03  0.00000000000E+00 0.  1.
</event>
<event>
 7    1  0.2522928E-009  0.1301967E+03  0.7561462E-02  0.1227164E+00
         -1   -1    0    0    0  501 -0.00000000000E+00  0.00000000000E+00  0.21463156796E+02  0.21463156796E+02  0.00000000000E+00 0.  1.
          1   -1    0    0  501    0  0.00000000000E+00 -0.00000000000E+00 -0.85307703315E+03  0.85307703315E+03  0.00000000000E+00 0. -1.
         25    2    1    2    0    0 -0.81227253595E+02  0.96242050955E+01 -0.41793812701E+03  0.44385785504E+03  0.12508807067E+03 0.  0.
          5    1    3    3  502    0 -0.10867357963E+03 -0.59568898701E+01 -0.24652580277E+03  0.26951414671E+03  0.41800000000E+01 0. -1.
         -5    1    3    3    0  502  0.27446326034E+02  0.15581094966E+02 -0.17141232425E+03  0.17434370834E+03  0.41800000000E+01 0. -1.
        -11    1    1    2    0    0  0.43091459196E+02 -0.48708160572E+02 -0.21268318426E+03  0.22240390201E+03  0.00000000000E+00 0.  1.
         11    1    1    2    0    0  0.38135794399E+02  0.39083955476E+02 -0.20099256508E+03  0.20827843289E+03  0.00000000000E+00 0. -1.
</event>
<event>
 7    1  0.2522928E-009  0.1297648E+03  0.7561462E-02  0.1227805E+00
          1   -1    0    0  501    0  0.00000000000E+00  0.00000000000E+00  0.24389348800E+03  0.24389348800E+03  0.00000000000E+00 0. -1.
         -1   -1    0    0    0  501 -0.00000000000E+00 -0.00000000000E+00 -0.74424428930E+02  0.74424428930E+02  0.00000000000E+00 0.  1.
         25    2    1    2    0    0 -0.76473325244E+02 -0.14268467076E+02  0.76758543751E+02  0.16610260088E+03  0.12508573601E+03 0.  0.
          5    1    3    3  502    0 -0.73866981940E+02  0.43481234390E+02  0.63203846033E+02  0.10657930061E+03  0.41800000000E+01 0. -1.
         -5    1    3    3    0  502 -0.26063433042E+01 -0.57749701466E+02  0.13554697718E+02  0.59523300271E+02  0.41800000000E+01 0. -1.
        -11    1    1    2    0    0  0.37371119627E+01 -0.30246957932E+02  0.69220026721E+01  0.31253137297E+02  0.00000000000E+00 0.  1.
         11    1    1    2    0    0  0.72736213281E+02  0.44515425008E+02  0.85788512645E+02  0.12096217875E+03  0.00000000000E+00 0. -1.
</event>
<event>
 6    1  0.2522928E-009  0.1079903E+03  0.7561462E-02  0.1264337E+00
          4   -1    0    0  501    0  0.00000000000E+00  0.00000000000E+00  0.14750126609E+02  0.14750126609E+02  0.00000000000E+00 0. -1.
         -4   -1    0    0    0  501 -0.00000000000E+00 -0.00000000000E+00 -0.15438874534E+04  0.15438874534E+04  0.00000000000E+00 0.  1.
          5    1    1    2  502    0  0.54819558754E+02 -0.47367770739E+02 -0.94113708175E+03  0.94393080720E+03  0.41800000000E+01 0.  1.
         -5    1    1    2    0  502 -0.52619779266E+02 -0.20540873020E+02 -0.29516910632E+03  0.30055455804E+03  0.41800000000E+01 0.  1.
        -11    1    1    2    0    0 -0.26376238383E+02  0.50514376341E+02 -0.27175525165E+03  0.27766585128E+03  0.00000000000E+00 0.  1.
         11    1    1    2    0    0  0.24176458896E+02  0.17394267418E+02 -0.21075887036E+02  0.36486363454E+02  0.00000000000E+00 0. -1.
</event>
<event>
 7    1  0.2522928E-009  0.1223286E+03  0.7561462E-02  0.1239304E+00
          2   -1    0    0  501    0  0.00000000000E+00  0.00000000000E+00  0.55725986258E+03  0.55725986258E+03  0.00000000000E+00 0. -1.
         -2   -1    0    0    0  501 -0.00000000000E+00 -0.00000000000E+00 -0.34982479342E+02  0.34982479342E+02  0.00000000000E+00 0.  1.
         25    2    1    2    0    0  0.38066009584E+02 -0.76932218794E+02  0.26097572286E+03  0.30186702786E+03  0.12509111564E+03 0.  0.
          5    1    3    3  502    0 -0.42871241225E+02 -0.50114858265E+02  0.12267039468E+03  0.13933750563E+03  0.41800000000E+01 0. -1.
         -5    1    3    3    0  502  0.80937250809E+02 -0.26817360529E+02  0.13830532818E+03  0.16252952223E+03  0.41800000000E+01 0. -1.
        -11    1    1    2    0    0  0.33680721749E-01  0.40476296506E+02  0.21917880255E+03  0.22288490124E+03  0.00000000000E+00 0. -1.
         11    1    1    2    0    0 -0.38099690306E+02  0.36455922288E+02  0.42122857823E+02  0.67490412819E+02  0.00000000000E+00 0.  1.
</event>
<event>
 7    1  0.2522928E-009  0.1278534E+03  0.7561462E-02  0.1230676E+00
         -2   -1    0    0    0  501 -0.00000000000E+00  0.00000000000E+00  0.17885638111E+04  0.17885638111E+04  0.00000000000E+00 0.  1.
          2   -1    0    0  501    0  0.00000000000E+00 -0.00000000000E+00 -0.13347078645E+02  0.13347078645E+02  0.00000000000E+00 0. -1.
         25    2    1    2    0    0 -0.63772432291E+02  0.62493455826E+02  0.13528349415E+04  0.13615364233E+04  0.12508676095E+03 0.  0.
          5    1    3    3  502    0  0.15461204835E+02  0.50053494320E+02  0.23428589029E+03  0.24010779233E+03  0.41800000000E+01 0.  1.
         -5    1    3    3    0  502 -0.79233637126E+02  0.12439961506E+02  0.11185490512E+04  0.11214286309E+04  0.41800000000E+01 0.  1.
        -11    1    1    2    0    0  0.36705597157E+02  0.15828626656E+02  0.17405500451E+03  0.17858608814E+03  0.00000000000E+00 0.  1.
         11    1    1    2    0    0  0.27066835134E+02 -0.78322082482E+02  0.24832678640E+03  0.26178837829E+03  0.00000000000E+00 0. -1.
</event>
<event>
 7    1  0.2522928E-009  0.8402576E+02  0.7561462E-02  0.1318000E+00
         -1   -1    0    0    0  501 -0.00000000000E+00  0.00000000000E+00  0.69300270728E+02  0.69300270728E+02  0.00000000000E+00 0.  1.
          1   -1    0    0  501    0  0.00000000000E+00 -0.00000000000E+00 -0.24429663699E+03  0.24429663699E+03  0.00000000000E+00 0. -1.
         25    2    1    2    0    0 -0.63187624093E+02 -0.38025245121E+02 -0.11255178113E+03  0.18372095525E+03  0.12508753278E+03 0.  0.
          5    1    3    3  502    0 -0.62922850539E+02 -0.18710658220E+02 -0.13718469294E+03  0.15213969314E+03  0.41800000000E+01 0. -1.
         -5    1    3    3    0  502 -0.26477355333E+00 -0.19314586900E+02  0.24632911813E+02  0.31581262111E+02  0.41800000000E+01 0. -1.
        -11    1    1    2    0    0  0.61589249854E+01  0.22610030405E+02  0.18366938174E+02  0.29773986125E+02  0.00000000000E+00 0.  1.
         11    1    1    2    0    0  0.57028699107E+02  0.15415214716E+02 -0.80811523306E+02  0.10010196634E+03  0.00000000000E+00 0. -1.
</event>
<event>
 7    1  0.2522928E-009  0.2447208E+03  0.7561462E-02  0.1116687E+00
         -1   -1    0    0    0  501 -0.00000000000E+00  0.00000000000E+00  0.11319635319E+03  0.11319635319E+03  0.00000000000E+00 0. -1.
          1   -1    0    0  501    0  0.00000000000E+00 -0.00000000000E+00 -0.61672431007E+03  0.61672431007E+03  0.00000000000E+00 0.  1.
         25    2    1    2    0    0 -0.12749204140E+03  0.19585114547E+03 -0.33781052055E+03  0.42938955386E+03  0.12509016496E+03 0.  0.
          5    1    3    3  502    0 -0.51130485166E+02  0.15859866480E+03 -0.28221734502E+03  0.32776815773E+03  0.41800000000E+01 0.  1.
         -5    1    3    3    0  502 -0.76361556238E+02  0.37252480671E+02 -0.55593175529E+02  0.10162139614E+03  0.41800000000E+01 0.  1.
        -11    1    1    2    0    0  0.10992928474E+03 -0.18937169510E+03 -0.11683419071E+03  0.24818604850E+03  0.00000000000E+00 0. -1.
         11    1    1    2    0    0  0.17562756660E+02 -0.64794503685E+01 -0.48883245622E+02  0.52345060905E+02  0.00000000000E+00 0.  1.
</event>
<event>
 7    1  0.2522928E-009  0.2163808E+03  0.7561462E-02  0.1136610E+00
          3   -1    0    0  501    0  0.00000000000E+00  0.00000000000E+00  0.81089669106E+02  0.81089669106E+02  0.00000000000E+00 0.  1.
         -3   -1    0    0    0  501 -0.00000000000E+00 -0.00000000000E+00 -0.66123827530E+03  0.66123827530E+03  0.00000000000E+00 0. -1.
         25    2    1    2    0    0 -0.19191711489E+03 -0.54345205950E+02 -0.37095206711E+03  0.43936148649E+03  0.12508996489E+03 0.  0.
          5    1    3    3  502    0 -0.48043374206E+02 -0.68418926995E+02 -0.87166916579E+02  0.12085056525E+03  0.41800000000E+01 0. -1.
         -5    1    3    3    0  502 -0.14387374068E+03  0.14073721045E+02 -0.28378515054E+03  0.31851092124E+03  0.41800000000E+01 0. -1.
        -11    1    1    2    0    0  0.10834572280E+03  0.74431336020E+01 -0.55806744735E+02  0.12210073154E+03  0.00000000000E+00 0.  1.
         11    1    1    2    0    0  0.83571392094E+02  0.46902072348E+02 -0.15338979435E+03  0.18086572637E+03  0.00000000000E+00 0. -1.
</event>
<event>
 7    1  0.2522928E-009  0.6488675E+02  0.7561462E-02  0.1378398E+00
          2   -1    0    0  501    0  0.00000000000E+00  0.00000000000E+00  0.32117309193E+03  0.32117309193E+03  0.00000000000E+00 0. -1.
         -2   -1    0    0    0  501 -0.00000000000E+00 -0.00000000000E+00 -0.93148144502E+02  0.93148144502E+02  0.00000000000E+00 0.  1.
         25    2    1    2    0    0  0.12017700012E+02  0.16252636428E+02 -0.37678410573E+02  0.13220712668E+03  0.12510191213E+03 0.  0.
          5    1    3    3  502    0  0.30484622882E+02  0.29273442180E+01  0.40343272494E+02  0.50822569907E+02  0.41800000000E+01 0. -1.
         -5    1    3    3    0  502 -0.18466922870E+02  0.13325292210E+02 -0.78021683067E+02  0.81384556775E+02  0.41800000000E+01 0. -1.
        -11    1    1    2    0    0  0.30371295811E+02 -0.13490824981E+02  0.37997878702E+02  0.50480261031E+02  0.00000000000E+00 0.  1.
         11    1    1    2    0    0 -0.42388995823E+02 -0.27618114474E+01  0.22770547929E+03  0.23163384871E+03  0.00000000000E+00 0. -1.
</event>
<event>
 7    1  0.3083233E-009  0.9112562E+02  0.7561462E-02  0.1300149E+00
          2   -1    0    0  501    0  0.00000000000E+00  0.00000000000E+00  0.11818658801E+04  0.11818658801E+04  0.00000000000E+00 0. -1.
         -2   -1    0    0    0  501 -0.00000000000E+00 -0.00000000000E+00 -0.12053102298E+02  0.12053102298E+02  0.00000000000E+00 0.  1.
         25    2    1    2    0    0 -0.41438051568E+02 -0.12927366286E+02  0.78121516767E+03  0.79235696642E+03  0.12509274606E+03 0.  0.
          5    1    3    3  502    0  0.15020110824E+02  0.21424309037E+02  0.38740127796E+02  0.46934791451E+02  0.41800000000E+01 0.  1.
         -5    1    3    3    0  502 -0.56458162391E+02 -0.34351675323E+02  0.74247503987E+03  0.74542217497E+03  0.41800000000E+01 0.  1.
        -11    1    1    2    0    0  0.46971710433E+02  0.40127070176E+02  0.34025179721E+03  0.34581470305E+03  0.00000000000E+00 0. -1.
         11    1    1    2    0    0 -0.55336588655E+01 -0.27199703890E+02  0.48345812953E+02  0.55747312959E+02  0.00000000000E+00 0.  1.
</event>
<event>
 7    1  0.2522928E-009  0.5106075E+02  0.7561462E-02  0.1439703E+00
         -2   -1    0    0    0  501 -0.00000000000E+00  0.00000000000E+00  0.38934186603E+02  0.38934186603E+02  0.00000000000E+00 0.  1.
          2   -1    0    0  501    0  0.00000000000E+00 -0.00000000000E+00 -0.31671802362E+03  0.31671802362E+03  0.00000000000E+00 0. -1.
         25    2    1    2    0    0 -0.45298084610E+01 -0.86149212894E+01 -0.19549028366E+03  0.23228950300E+03  0.12508887306E+03 0.  0.
          5    1    3    3  502    0  0.54502147025E+01  0.52306242300E+00  0.17511380565E+02  0.18817525977E+02  0.41800000000E+01 0. -1.
         -5    1    3    3    0  502 -0.99800231635E+01 -0.91379837124E+01 -0.21300166423E+03  0.21347197702E+03  0.41800000000E+01 0. -1.
        -11    1    1    2    0    0  0.21638879794E+02  0.39912977068E+02 -0.16101983112E+02  0.48172198593E+02  0.00000000000E+00 0.  1.
         11    1    1    2    0    0 -0.17109071333E+02 -0.31298055778E+02 -0.66191570247E+02  0.75190508638E+02  0.00000000000E+00 0. -1.
</event>
<event>
 7    1  0.2522928E-009  0.1283854E+03  0.7561462E-02  0.1229871E+00
         -1   -1    0    0    0  501 -0.00000000000E+00  0.00000000000E+00  0.12965650613E+03  0.12965650613E+03  0.00000000000E+00 0.  1.
          1   -1    0    0  501    0  0.00000000000E+00 -0.00000000000E+00 -0.22443708671E+03  0.22443708671E+03  0.00000000000E+00 0. -1.
         25    2    1    2    0    0 -0.30132641714E+02 -0.70623614833E+02 -0.16003917323E+03  0.21715673212E+03  0.12509531672E+03 0.  0.
          5    1    3    3  502    0 -0.14046434063E+02 -0.10389228507E+03 -0.91663710962E+02  0.13932199221E+03  0.41800000000E+01 0.  1.
         -5    1    3    3    0  502 -0.16086207652E+02  0.33268670232E+02 -0.68375462271E+02  0.77834739907E+02  0.41800000000E+01 0.  1.
        -11    1    1    2    0    0 -0.74488437178E+00  0.81814402604E+02  0.26211197730E+02  0.85913783600E+02  0.00000000000E+00 0. -1.
         11    1    1    2    0    0  0.30877526086E+02 -0.11190787770E+02  0.39047394932E+02  0.51023077123E+02  0.00000000000E+00 0.  1.
</event>
<event>
 7    1  0.2522928E-009  0.1121870E+03  0.7561462E-02  0.1256573E+00
          1   -1    0    0  501    0  0.00000000000E+00  0.00000000000E+00  0.58697363760E+03  0.58697363760E+03  0.00000000000E+00 0. -1.
         -1   -1    0    0    0  501 -0.00000000000E+00 -0.00000000000E+00 -0.29673260579E+02  0.29673260579E+02  0.00000000000E+00 0.  1.
         25    2    1    2    0    0  0.39543933428E+02 -0.45366840436E+02  0.20522554459E+03  0.24776537670E+03  0.12509310475E+03 0.  0.
          5    1    3    3  502    0 -0.94445760920E+01  0.35931436147E+02  0.95870792308E+02  0.10290262066E+03  0.41800000000E+01 0. -1.
         -5    1    3    3    0  502  0.48988509520E+02 -0.81298276583E+02  0.10935475228E+03  0.14486275604E+03  0.41800000000E+01 0. -1.
        -11    1    1    2    0    0  0.14121460786E+01  0.50661815531E+02  0.28953367549E+03  0.29393598444E+03  0.00000000000E+00 0. -1.
         11    1    1    2    0    0 -0.40956079507E+02 -0.52949750947E+01  0.62541156935E+02  0.74945537030E+02  0.00000000000E+00 0.  1.
</event>
<event>
 7    1  0.2522928E-009  0.1073412E+03  0.7561462E-02  0.1265574E+00
         -2   -1    0    0    0  501 -0.00000000000E+00  0.00000000000E+00  0.38647780763E+03  0.38647780763E+03  0.00000000000E+00 0.  1.
          2   -1    0    0  501    0  0.00000000000E+00 -0.00000000000E+00 -0.44095015125E+02  0.44095015125E+02  0.00000000000E+00 0. -1.
         25    2    1    2    0    0 -0.68927826086E+02  0.16682421573E+02  0.18548309210E+03  0.23467640109E+03  0.12505873570E+03 0.  0.
          5    1    3    3  502    0 -0.10224398930E+03  0.31180814457E+02  0.14373103063E+03  0.17917075125E+03  0.41800000000E+01 0.  1.
         -5    1    3    3    0  502  0.33316163212E+02 -0.14498392884E+02  0.41752061468E+02  0.55505649840E+02  0.41800000000E+01 0.  1.
        -11    1    1    2    0    0  0.44579367469E+02 -0.13499301544E+02  0.16387767992E+03  0.17036855673E+03  0.00000000000E+00 0.  1.
         11    1    1    2    0    0  0.24348458617E+02 -0.31831200288E+01 -0.69779795116E+01  0.25527864936E+02  0.00000000000E+00 0. -1.
</event>
<event>
 7    1  0.2522928E-009  0.1506632E+03  0.7561462E-02  0.1199660E+00
         -2   -1    0    0    0  501 -0.00000000000E+00  0.00000000000E+00  0.21523752297E+02  0.21523752297E+02  0.00000000000E+00 0.  1.
          2   -1    0    0  501    0  0.00000000000E+00 -0.00000000000E+00 -0.13538922873E+04  0.13538922873E+04  0.00000000000E+00 0. -1.
         25    2    1    2    0    0  0.72319412208E+02 -0.10414374118E+03 -0.56637658651E+03  0.59372207372E+03  0.12508975526E+03 0.  0.
          5    1    3    3  502    0  0.55111466233E+01 -0.84188844808E+02 -0.15561596494E+03  0.17706477705E+03  0.41800000000E+01 0.  1.
         -5    1    3    3    0  502  0.66808265585E+02 -0.19954896371E+02 -0.41076062157E+03  0.41665729667E+03  0.41800000000E+01 0.  1.
        -11    1    1    2    0    0 -0.38552824509E+02  0.10639290270E+03 -0.67874341497E+03  0.68811219534E+03  0.00000000000E+00 0. -1.
         11    1    1    2    0    0 -0.33766587699E+02 -0.22491615196E+01 -0.87248533488E+02  0.93581770490E+02  0.00000000000E+00 0.  1.
</event>
<event>
 7    1  0.2522928E-009  0.2963586E+03  0.7561462E-02  0.1087075E+00
         -1   -1    0    0    0  501 -0.00000000000E+00  0.00000000000E+00  0.10592619615E+03  0.10592619615E+03  0.00000000000E+00 0.  1.
          1   -1    0    0  501    0  0.00000000000E+00 -0.00000000000E+00 -0.96602183521E+03  0.96602183521E+03  0.00000000000E+00 0. -1.
         25    2    1    2    0    0  0.19476709388E+03 -0.21824832413E+03 -0.55260812825E+03  0.63764375307E+03  0.12508901060E+03 0.  0.
          5    1    3    3  502    0  0.19292207702E+02 -0.62301682576E+02 -0.48007471404E+02  0.81091791449E+02  0.41800000000E+01 0. -1.
         -5    1    3    3    0  502  0.17547488618E+03 -0.15594664155E+03 -0.50460065684E+03  0.55655196162E+03  0.41800000000E+01 0. -1.
        -11    1    1    2    0    0 -0.17456411551E+02  0.17277007502E+02 -0.76983854260E+02  0.80806776382E+02  0.00000000000E+00 0. -1.
         11    1    1    2    0    0 -0.17731068233E+03  0.20097131663E+03 -0.23050365655E+03  0.35349750191E+03  0.00000000000E+00 0.  1.
</event>
<event>
 7    1  0.2522928E-009  0.2335297E+03  0.7561462E-02  0.1124180E+00
          2   -1    0    0  501    0  0.00000000000E+00  0.00000000000E+00  0.91150821506E+03  0.91150821506E+03  0.00000000000E+00 0. -1.
         -2   -1    0    0    0  501 -0.00000000000E+00 -0.00000000000E+00 -0.73593365168E+02  0.73593365168E+02  0.00000000000E+00 0.  1.
         25    2    1    2    0    0  0.20913517568E+03  0.39844120041E+02  0.61951415076E+03  0.66691168675E+03  0.12509332244E+03 0.  0.
          5    1    3    3  502    0  0.10115422843E+03  0.82424128327E+02  0.34215224727E+03  0.36621243503E+03  0.41800000000E+01 0.  1.
         -5    1    3    3    0  502  0.10798094725E+03 -0.42580008287E+02  0.27736190349E+03  0.30069925172E+03  0.41800000000E+01 0.  1.
        -11    1    1    2    0    0 -0.69475538027E+02 -0.41048793197E+02  0.12964959275E+03  0.15271172420E+03  0.00000000000E+00 0. -1.
         11    1    1    2    0    0 -0.13965963765E+03  0.12046731561E+01  0.88751106379E+02  0.16547816928E+03  0.00000000000E+00 0.  1.
</event>
<event>
 7    1  0.2522928E-009  0.1088341E+03  0.7561462E-02  0.1262744E+00
          2   -1    0    0  501    0  0.00000000000E+00  0.00000000000E+00  0.20072115158E+02  0.20072115158E+02  0.00000000000E+00 0. -1.
         -2   -1    0    0    0  501 -0.00000000000E+00 -0.00000000000E+00 -0.68816809089E+03  0.68816809089E+03  0.00000000000E+00 0.  1.
         25    2    1    2    0    0 -0.60522757158E+01 -0.22877143392E+02 -0.32309448145E+03  0.34727260618E+03  0.12509286681E+03 0.  0.
          5    1    3    3  502    0 -0.27399005241E+02  0.44031177533E+02 -0.91847435970E+02  0.10555981232E+03  0.41800000000E+01 0. -1.
         -5    1    3    3    0  502  0.21346729525E+02 -0.66908320925E+02 -0.23124704548E+03  0.24171279386E+03  0.41800000000E+01 0. -1.
        -11    1    1    2    0    0 -0.26030970480E+02  0.47954155535E+02 -0.11376802842E+03  0.12617597532E+03  0.00000000000E+00 0. -1.
         11    1    1    2    0    0  0.32083246196E+02 -0.25077012142E+02 -0.23123346586E+03  0.23479162454E+03  0.00000000000E+00 0.  1.
</event>
<event>
 7    1  0.2522928E-009  0.3226731E+03  0.7561462E-02  0.1074426E+00
         -2   -1    0    0    0  501 -0.00000000000E+00  0.00000000000E+00  0.10319108415E+03  0.10319108415E+03  0.00000000000E+00 0.  1.
          2   -1    0    0  501    0  0.00000000000E+00 -0.00000000000E+00 -0.10995521244E+04  0.10995521244E+04  0.00000000000E+00 0. -1.
         25    2    1    2    0    0  0.25927423846E+03  0.16144287222E+03 -0.66766450962E+03  0.74479035130E+03  0.12509931359E+03 0.  0.
          5    1    3    3  502    0  0.25967108510E+03  0.11616208430E+03 -0.56985104465E+03  0.63692259165E+03  0.41800000000E+01 0. -1.
         -5    1    3    3    0  502 -0.39684664089E+00  0.45280787921E+02 -0.97813464969E+02  0.10786775965E+03  0.41800000000E+01 0. -1.
        -11    1    1    2    0    0 -0.22546706741E+02 -0.47648154618E+02 -0.31861928917E+02  0.61594505742E+02  0.00000000000E+00 0. -1.
         11    1    1    2    0    0 -0.23672753171E+03 -0.11379471760E+03 -0.29683460168E+03  0.39635835147E+03  0.00000000000E+00 0.  1.
</event>
<event>
 7    1  0.2522928E-009  0.1093342E+03  0.7561462E-02  0.1261808E+00
         -1   -1    0    0    0  501 -0.00000000000E+00  0.00000000000E+00  0.51340003292E+03  0.51340003292E+03  0.00000000000E+00 0.  1.
          1   -1    0    0  501    0  0.00000000000E+00 -0.00000000000E+00 -0.39740037932E+02  0.39740037932E+02  0.00000000000E+00 0. -1.
         25    2    1    2    0    0  0.92996498667E+02  0.10088268222E+02  0.28086093804E+03  0.32137434271E+03  0.12509388361E+03 0.  0.
          5    1    3    3  502    0  0.69014414024E+02  0.42093030804E+01  0.28728674460E+03  0.29551963318E+03  0.41800000000E+01 0.  1.
         -5    1    3    3    0  502  0.23982084643E+02  0.58789651415E+01 -0.64258065567E+01  0.25854709530E+02  0.41800000000E+01 0.  1.
        -11    1    1    2    0    0 -0.49917612441E+02  0.35790357372E+02  0.12490313930E+03  0.13918876363E+03  0.00000000000E+00 0.  1.
         11    1    1    2    0    0 -0.43078886226E+02 -0.45878625594E+02  0.67895917642E+02  0.92576964507E+02  0.00000000000E+00 0. -1.
</event>
<event>
 7    1  0.2522928E-009  0.1086306E+03  0.7561462E-02  0.1263127E+00
         -2   -1    0    0    0  501 -0.00000000000E+00  0.00000000000E+00  0.15958246557E+03  0.15958246557E+03  0.00000000000E+00 0.  1.
          2   -1    0    0  501    0  0.00000000000E+00 -0.00000000000E+00 -0.92268685179E+02  0.92268685179E+02  0.00000000000E+00 0. -1.
         25    2    1    2    0    0  0.22064202662E+02 -0.48047388911E+02  0.26982987205E+02  0.13845891452E+03  0.12508960305E+03 0.  0.
          5    1    3    3  502    0  0.61116690786E+02 -0.10121687855E+02  0.49493447004E+02  0.79402595386E+02  0.41800000000E+01 0. -1.
         -5    1    3    3    0  502 -0.39052488125E+02 -0.37925701056E+02 -0.22510459799E+02  0.59056319134E+02  0.41800000000E+01 0. -1.
        -11    1    1    2    0    0 -0.48571940796E+02  0.34518470254E+01  0.17246780005E+01  0.48724975061E+02  0.00000000000E+00 0. -1.
         11    1    1    2    0    0  0.26507738134E+02  0.44595541886E+02  0.38606115181E+02  0.64667261163E+02  0.00000000000E+00 0.  1.
</event>
<event>
 7    1  0.2522928E-009  0.1365385E+03  0.7561462E-02  0.1218064E+00
          2   -1    0    0  501    0  0.00000000000E+00  0.00000000000E+00  0.17902189722E+04  0.17902189722E+04  0.00000000000E+00 0. -1.
         -2   -1    0    0    0  501 -0.00000000000E+00 -0.00000000000E+00 -0.11978148521E+02  0.11978148521E+02  0.00000000000E+00 0.  1.
         25    2    1    2    0    0 -0.91993711226E+02  0.77184155313E+01  0.12286079830E+04  0.12384054590E+04  0.12509231811E+03 0.  0.
          5    1    3    3  502    0 -0.11098081687E+03 -0.21338435751E+02  0.10716634114E+04  0.10776140359E+04  0.41800000000E+01 0.  1.
         -5    1    3    3    0  502  0.18987105646E+02  0.29056851283E+02  0.15694457160E+03  0.16079142309E+03  0.41800000000E+01 0.  1.
        -11    1    1    2    0    0 -0.69289137155E+01  0.20922132443E+02  0.11823182578E+03  0.12026849171E+03  0.00000000000E+00 0. -1.
         11    1    1    2    0    0  0.98922624941E+02 -0.28640547974E+02  0.43140101483E+03  0.44352316998E+03  0.00000000000E+00 0.  1.
</event>
<event>
 7    1  0.2522928E-009  0.1095065E+03  0.7561462E-02  0.1261486E+00
         -1   -1    0    0    0  501 -0.00000000000E+00  0.00000000000E+00  0.46391516281E+02  0.46391516281E+02  0.00000000000E+00 0. -1.
          1   -1    0    0  501    0  0.00000000000E+00 -0.00000000000E+00 -0.26482854504E+03  0.26482854504E+03  0.00000000000E+00 0.  1.
         25    2    1    2    0    0  0.20524309074E+02  0.10541082232E+02 -0.10558841033E+03  0.16531936898E+03  0.12509684123E+03 0.  0.
          5    1    3    3  502    0  0.26725054100E+02 -0.54707567017E+02 -0.43546438894E+02  0.74972736017E+02  0.41800000000E+01 0. -1.
         -5    1    3    3    0  502 -0.62007450262E+01  0.65248649250E+02 -0.62041971436E+02  0.90346632961E+02  0.41800000000E+01 0. -1.
        -11    1    1    2    0    0  0.32465430769E+02 -0.20491888617E+02 -0.42605389212E+02  0.57351032110E+02  0.00000000000E+00 0.  1.
         11    1    1    2    0    0 -0.52989739843E+02  0.99508063851E+01 -0.70243229218E+02  0.88549660233E+02  0.00000000000E+00 0. -1.
</event>
<event>
 7    1  0.2522928E-009  0.1486389E+03  0.7561462E-02  0.1202155E+00
         -1   -1    0    0    0  501 -0.00000000000E+00  0.00000000000E+00  0.95295226866E+02  0.95295226866E+02  0.00000000000E+00 0.  1.
          1   -1    0    0  501    0  0.00000000000E+00 -0.00000000000E+00 -0.27868954464E+03  0.27868954464E+03  0.00000000000E+00 0. -1.
         25    2    1    2    0    0  0.66605230433E+02  0.96718646926E+02 -0.65465814767E+02  0.18364314714E+03  0.12509308216E+03 0.  0.
          5    1    3    3  502    0  0.21519522943E+02 -0.17415286275E+02  0.19680206794E+02  0.34222288106E+02  0.41800000000E+01 0. -1.
         -5    1    3    3    0  502  0.45085707490E+02  0.11413393320E+03 -0.85146021562E+02  0.14942085904E+03  0.41800000000E+01 0. -1.
        -11    1    1    2    0    0  0.11871419285E+02 -0.57593140231E+02 -0.66142158044E+02  0.88502460238E+02  0.00000000000E+00 0. -1.
         11    1    1    2    0    0 -0.78476649718E+02 -0.39125506695E+02 -0.51786344967E+02  0.10183916413E+03  0.00000000000E+00 0.  1.
</event>
<event>
 7    1  0.2522928E-009  0.1208525E+03  0.7561462E-02  0.1241697E+00
         -1   -1    0    0    0  501 -0.00000000000E+00  0.00000000000E+00  0.64514001420E+03  0.64514001420E+03  0.00000000000E+00 0.  1.
          1   -1    0    0  501    0  0.00000000000E+00 -0.00000000000E+00 -0.56695500563E+02  0.56695500563E+02  0.00000000000E+00 0. -1.
         25    2    1    2    0    0 -0.87531954689E+02  0.34081308430E+02  0.53927391513E+03  0.56150859609E+03  0.12510862988E+03 0.  0.
          5    1    3    3  502    0  0.66081654065E+01  0.11358273438E+02  0.33623398411E+03  0.33651663064E+03  0.41800000000E+01 0. -1.
         -5    1    3    3    0  502 -0.94140120096E+02  0.22723034992E+02  0.20303993102E+03  0.22499196545E+03  0.41800000000E+01 0. -1.
        -11    1    1    2    0    0  0.40974177884E+02 -0.63744207925E+02  0.22700177951E+02  0.79104395429E+02  0.00000000000E+00 0.  1.
         11    1    1    2    0    0  0.46557776805E+02  0.29662899495E+02  0.26470420556E+02  0.61222523240E+02  0.00000000000E+00 0. -1.
</event>
<event>
 7    1  0.2522928E-009  0.1357514E+03  0.7561462E-02  0.1219163E+00
         -1   -1    0    0    0  501 -0.00000000000E+00  0.00000000000E+00  0.76303383034E+03  0.76303383034E+03  0.00000000000E+00 0.  1.
          1   -1    0    0  501    0  0.00000000000E+00 -0.00000000000E+00 -0.26870393102E+02  0.26870393102E+02  0.00000000000E+00 0. -1.
         25    2    1    2    0    0  0.39614648907E+02 -0.79537451050E+02  0.47089478944E+03  0.49526104743E+03  0.12508427499E+03 0.  0.
          5    1    3    3  502    0  0.41829903116E+02 -0.10723540887E+03  0.28730225153E+03  0.30953066059E+03  0.41800000000E+01 0.  1.
         -5    1    3    3    0  502 -0.22152542096E+01  0.27697957822E+02  0.18359253790E+03  0.18573038683E+03  0.41800000000E+01 0.  1.
        -11    1    1    2    0    0 -0.65515048907E+02  0.78574670239E+02  0.21389376935E+03  0.23710070646E+03  0.00000000000E+00 0. -1.
         11    1    1    2    0    0  0.25900400000E+02  0.96278081162E+00  0.51374878452E+02  0.57542469560E+02  0.00000000000E+00 0.  1.
</event>
<event>
 7    1  0.2522928E-009  0.2975591E+03  0.7561462E-02  0.1086467E+00
          3   -1    0    0  501    0  0.00000000000E+00  0.00000000000E+00  0.93841055020E+02  0.93841055020E+02  0.00000000000E+00 0. -1.
         -3   -1    0    0    0  501 -0.00000000000E+00 -0.00000000000E+00 -0.10310699889E+04  0.10310699889E+04  0.00000000000E+00 0.  1.
         25    2    1    2    0    0 -0.18832590733E+03  0.22030461609E+03 -0.42315494482E+03  0.52792862897E+03  0.12509100174E+03 0.  0.
          5    1    3    3  502    0 -0.84029591515E+02  0.13101676346E+03 -0.12506130719E+03  0.19971020884E+03  0.41800000000E+01 0. -1.
         -5    1    3    3    0  502 -0.10429631582E+03  0.89287852632E+02 -0.29809363762E+03  0.32821842013E+03  0.41800000000E+01 0. -1.
        -11    1    1    2    0    0  0.15020732904E+03 -0.11237341204E+03 -0.29037331941E+03  0.34569739666E+03  0.00000000000E+00 0. -1.
         11    1    1    2    0    0  0.38118578293E+02 -0.10793120405E+03 -0.22370066970E+03  0.25128501834E+03  0.00000000000E+00 0.  1.
</event>
<event>
 7    1  0.2522928E-009  0.1061127E+03  0.7561462E-02  0.1267943E+00
          2   -1    0    0  501    0  0.00000000000E+00  0.00000000000E+00  0.10390600608E+04  0.10390600608E+04  0.00000000000E+00 0. -1.
         -2   -1    0    0    0  501 -0.00000000000E+00 -0.00000000000E+00 -0.18055503622E+02  0.18055503622E+02  0.00000000000E+00 0.  1.
         25    2    1    2    0    0 -0.55291099393E+02 -0.33946482114E+00  0.81843100864E+03  0.82977916920E+03  0.12508770055E+03 0.  0.
          5    1    3    3  502    0 -0.73467534250E+02 -0.41420279247E+02  0.64795329903E+03  0.65343252770E+03  0.41800000000E+01 0. -1.
         -5    1    3    3    0  502  0.18176434857E+02  0.41080814426E+02  0.17047770961E+03  0.17634664151E+03  0.41800000000E+01 0. -1.
        -11    1    1    2    0    0  0.10614377440E+02 -0.27874155868E+02  0.16881323508E+02  0.34272622561E+02  0.00000000000E+00 0.  1.
         11    1    1    2    0    0  0.44676721953E+02  0.28213620689E+02  0.18569222505E+03  0.19306377268E+03  0.00000000000E+00 0. -1.
</event>
<event>
 7    1  0.2522928E-009  0.7726894E+02  0.7561462E-02  0.1336985E+00
         -2   -1    0    0    0  501 -0.00000000000E+00  0.00000000000E+00  0.10007935176E+03  0.10007935176E+03  0.00000000000E+00 0.  1.
          2   -1    0    0  501    0  0.00000000000E+00 -0.00000000000E+00 -0.13593683093E+03  0.13593683093E+03  0.00000000000E+00 0. -1.
         25    2    1    2    0    0 -0.26650198793E+02  0.33877682922E+02 -0.24415866984E+02  0.13453646295E+03  0.12508395104E+03 0.  0.
          5    1    3    3  502    0 -0.50440826568E+02  0.16710331695E+02  0.37988593481E+02  0.65453172612E+02  0.41800000000E+01 0.  1.
         -5    1    3    3    0  502  0.23790627775E+02  0.17167351227E+02 -0.62404460466E+02  0.69083290339E+02  0.41800000000E+01 0.  1.
        -11    1    1    2    0    0  0.44264073548E+02 -0.17650245688E+02  0.28048212142E+02  0.55295041227E+02  0.00000000000E+00 0.  1.
         11    1    1    2    0    0 -0.17613874755E+02 -0.16227437234E+02 -0.39489824333E+02  0.46184678508E+02  0.00000000000E+00 0. -1.
</event>
<event>
 7    1  0.2522928E-009  0.1010935E+03  0.7561462E-02  0.1278013E+00
         -2   -1    0    0    0  501 -0.00000000000E+00  0.00000000000E+00  0.23053817222E+02  0.23053817222E+02  0.00000000000E+00 0.  1.
          2   -1    0    0  501    0  0.00000000000E+00 -0.00000000000E+00 -0.60937770083E+03  0.60937770083E+03  0.00000000000E+00 0. -1.
         25    2    1    2    0    0 -0.41046567842E+02 -0.25467133389E+02 -0.34496852541E+03  0.37011260483E+03  0.12508661444E+03 0.  0.
          5    1    3    3  502    0 -0.57048252932E+02  0.12543393406E+02 -0.31115573371E+03  0.31661838686E+03  0.41800000000E+01 0.  1.
         -5    1    3    3    0  502  0.16001685090E+02 -0.38010526795E+02 -0.33812791707E+02  0.53494217967E+02  0.41800000000E+01 0.  1.
        -11    1    1    2    0    0  0.63580058163E+02 -0.55654814142E+01 -0.13691751827E+03  0.15106225601E+03  0.00000000000E+00 0.  1.
         11    1    1    2    0    0 -0.22533490321E+02  0.31032614803E+02 -0.10443783992E+03  0.11125665722E+03  0.00000000000E+00 0. -1.
</event>
<event>
 7    1  0.2522928E-009  0.9214837E+02  0.7561462E-02  0.1297731E+00
          1   -1    0    0  501    0  0.00000000000E+00  0.00000000000E+00  0.54792151900E+02  0.54792151900E+02  0.00000000000E+00 0. -1.
         -1   -1    0    0    0  501 -0.00000000000E+00 -0.00000000000E+00 -0.37345305636E+03  0.37345305636E+03  0.00000000000E+00 0.  1.
         25    2    1    2    0    0  0.33902807925E+02  0.14878212957E+02 -0.30952299702E+03  0.33589131746E+03  0.12509088637E+03 0.  0.
          5    1    3    3  502    0  0.57642216967E+02  0.29468016299E+02 -0.29877190194E+03  0.30573372557E+03  0.41800000000E+01 0.  1.
         -5    1    3    3    0  502 -0.23739409041E+02 -0.14589803341E+02 -0.10751095079E+02  0.30157591890E+02  0.41800000000E+01 0.  1.
        -11    1    1    2    0    0 -0.39670361637E+02  0.27633924399E+02 -0.10321971331E+02  0.49435963248E+02  0.00000000000E+00 0.  1.
         11    1    1    2    0    0  0.57675537117E+01 -0.42512137357E+02  0.11840638880E+01  0.42917927556E+02  0.00000000000E+00 0. -1.
</event>
<event>
 7    1  0.2522928E-009  0.9663338E+02  0.7561462E-02  0.1287539E+00
          3   -1    0    0  501    0  0.00000000000E+00  0.00000000000E+00  0.90492163124E+02  0.90492163124E+02  0.00000000000E+00 0. -1.
         -3   -1    0    0    0  501 -0.00000000000E+00 -0.00000000000E+00 -0.25061716907E+03  0.25061716907E+03  0.00000000000E+00 0.  1.
         25    2    1    2    0    0  0.13890993918E+02 -0.52539813067E+02 -0.18475664512E+03  0.22966645997E+03  0.12513302222E+03 0.  0.
          5    1    3    3  502    0  0.64170596981E+01 -0.93363448751E+02 -0.11424205650E+03  0.14773839072E+03  0.41800000000E+01 0.  1.
         -5    1    3    3    0  502  0.74739342202E+01  0.40823635684E+02 -0.70514588621E+02  0.81928069253E+02  0.41800000000E+01 0.  1.
        -11    1    1    2    0    0 -0.19073004107E+02  0.40271369471E+02  0.59374205537E+02  0.74235159917E+02  0.00000000000E+00 0. -1.
         11    1    1    2    0    0  0.51820101890E+01  0.12268443596E+02 -0.34742566361E+02  0.37207712308E+02  0.00000000000E+00 0.  1.
</event>
<event>
 7    1  0.2522928E-009  0.3355548E+03  0.7561462E-02  0.1068705E+00
         -2   -1    0    0    0  501 -0.00000000000E+00  0.00000000000E+00  0.17852783193E+03  0.17852783193E+03  0.00000000000E+00 0.  1.
          2   -1    0    0  501    0  0.00000000000E+00 -0.00000000000E+00 -0.67522507959E+03  0.67522507959E+03  0.00000000000E+00 0. -1.
         25    2    1    2    0    0  0.13662560889E+03  0.29884844491E+03 -0.22599909432E+03  0.41797036299E+03  0.12508670463E+03 0.  0.
          5    1    3    3  502    0  0.12477200427E+03  0.29020342126E+03 -0.24040655613E+03  0.39698723329E+03  0.41800000000E+01 0. -1.
         -5    1    3    3    0  502  0.11853604612E+02  0.86450236454E+01  0.14407461812E+02  0.20983129700E+02  0.41800000000E+01 0. -1.
        -11    1    1    2    0    0 -0.68089007903E+02 -0.24041990254E+03 -0.21685141999E+03  0.33085099499E+03  0.00000000000E+00 0.  1.
         11    1    1    2    0    0 -0.68536600982E+02 -0.58428542369E+02 -0.53846733347E+02  0.10493155355E+03  0.00000000000E+00 0. -1.
</event>
<event>
 7    1  0.2522928E-009  0.1608201E+03  0.7561462E-02  0.1187774E+00
         -2   -1    0    0    0  501 -0.00000000000E+00  0.00000000000E+00  0.30121427657E+02  0.30121427657E+02  0.00000000000E+00 0.  1.
          2   -1    0    0  501    0  0.00000000000E+00 -0.00000000000E+00 -0.10192333603E+04  0.10192333603E+04  0.00000000000E+00 0. -1.
         25    2    1    2    0    0  0.11974561777E+03 -0.67137126393E+02 -0.54909650396E+03  0.57965716390E+03  0.12509616413E+03 0.  0.
          5    1    3    3  502    0  0.35573267069E+02  0.29755488242E+02 -0.24777860742E+03  0.25211615796E+03  0.41800000000E+01 0.  1.
         -5    1    3    3    0  502  0.84172350705E+02 -0.96892614635E+02 -0.30131789654E+03  0.32754100593E+03  0.41800000000E+01 0.  1.
        -11    1    1    2    0    0 -0.82324821697E+02  0.16941440086E+02 -0.35064957619E+03  0.36058218750E+03  0.00000000000E+00 0. -1.
         11    1    1    2    0    0 -0.37420796077E+02  0.50195686307E+02 -0.89365852462E+02  0.10911543653E+03  0.00000000000E+00 0.  1.
</event>
<event>
 7    1  0.2522928E-009  0.4230220E+03  0.7561462E-02  0.1036087E+00
         -2   -1    0    0    0  501 -0.00000000000E+00  0.00000000000E+00  0.18619380422E+03  0.18619380422E+03  0.00000000000E+00 0.  1.
          2   -1    0    0  501    0  0.00000000000E+00 -0.00000000000E+00 -0.11636525615E+04  0.11636525615E+04  0.00000000000E+00 0. -1.
         25    2    1    2    0    0 -0.10016917120E+03 -0.40343070019E+03 -0.75162353587E+03  0.86797276808E+03  0.12509433934E+03 0.  0.
          5    1    3    3  502    0 -0.84093094963E+02 -0.16585807022E+03 -0.42335896258E+03  0.46241845949E+03  0.41800000000E+01 0. -1.
         -5    1    3    3    0  502 -0.16076076236E+02 -0.23757262998E+03 -0.32826457329E+03  0.40555430859E+03  0.41800000000E+01 0. -1.
        -11    1    1    2    0    0 -0.79854019600E+01  0.89330257676E+02 -0.75526879131E+02  0.11725174221E+03  0.00000000000E+00 0. -1.
         11    1    1    2    0    0  0.10815457316E+03  0.31410044252E+03 -0.15030834225E+03  0.36462185540E+03  0.00000000000E+00 0.  1.
</event>
<event>
 7    1  0.2522928E-009  0.8632319E+02  0.7561462E-02  0.1312008E+00
          1   -1    0    0  501    0  0.00000000000E+00  0.00000000000E+00  0.85106404264E+02  0.85106404264E+02  0.00000000000E+00 0. -1.
         -1   -1    0    0    0  501 -0.00000000000E+00 -0.00000000000E+00 -0.21801034868E+03  0.21801034868E+03  0.00000000000E+00 0.  1.
         25    2    1    2    0    0 -0.16152166100E+01  0.59092330778E+02 -0.13325183638E+03  0.19208809651E+03  0.12508905805E+03 0.  0.
          5    1    3    3  502    0 -0.31580486280E+02  0.47687842765E+02 -0.25063930052E+01  0.57403935991E+02  0.41800000000E+01 0.  1.
         -5    1    3    3    0  502  0.29965269670E+02  0.11404488013E+02 -0.13074544337E+03  0.13468416052E+03  0.41800000000E+01 0.  1.
        -11    1    1    2    0    0 -0.93343367983E+01 -0.68129790060E+02 -0.31891568634E+02  0.75801519029E+02  0.00000000000E+00 0.  1.
         11    1    1    2    0    0  0.10949553408E+02  0.90374592822E+01  0.32239460594E+02  0.35227137402E+02  0.00000000000E+00 0. -1.
</event>
<event>
 6    1  0.2522928E-009  0.1393039E+03  0.7561462E-02  0.1214269E+00
          2   -1    0    0  501    0  0.00000000000E+00  0.00000000000E+00  0.68029791277E+03  0.68029791277E+03  0.00000000000E+00 0. -1.
         -2   -1    0    0    0  501 -0.00000000000E+00 -0.00000000000E+00 -0.39136230958E+02  0.39136230958E+02  0.00000000000E+00 0.  1.
          5    1    1    2  502    0  0.34995073110E+02  0.15358912908E+02  0.16773516783E+02  0.41944899725E+02  0.41800000000E+01 0.  1.
         -5    1    1    2    0  502 -0.35658482316E+01  0.10326148352E+03  0.34351374519E+03  0.35874059540E+03  0.41800000000E+01 0.  1.
        -11    1    1    2    0    0 -0.49592919060E+02 -0.80930401639E+02  0.24798922095E+03  0.26553312644E+03  0.00000000000E+00 0. -1.
         11    1    1    2    0    0  0.18163694181E+02 -0.37689994785E+02  0.32885198888E+02  0.53215522163E+02  0.00000000000E+00 0.  1.
</event>
<event>
 7    1  0.2522928E-009  0.8436004E+02  0.7561462E-02  0.1317115E+00
          2   -1    0    0  501    0  0.00000000000E+00  0.00000000000E+00  0.90276488226E+03  0.90276488226E+03  0.00000000000E+00 0. -1.
         -2   -1    0    0    0  501 -0.00000000000E+00 -0.00000000000E+00 -0.16421306173E+02  0.16421306173E+02  0.00000000000E+00 0.  1.
         25    2    1    2    0    0  0.34585709752E+02 -0.35883703861E+02  0.40332281246E+03  0.42520683730E+03  0.12509097458E+03 0.  0.
          5    1    3    3  502    0  0.22739500451E+00  0.85148527633E+01  0.34135108447E+03  0.34148292739E+03  0.41800000000E+01 0.  1.
         -5    1    3    3    0  502  0.34358314748E+02 -0.44398556624E+02  0.61971727981E+02  0.83723909916E+02  0.41800000000E+01 0.  1.
        -11    1    1    2    0    0 -0.43861726945E+02 -0.18618863574E+02  0.19873495737E+03  0.20436755235E+03  0.00000000000E+00 0.  1.
         11    1    1    2    0    0  0.92760171931E+01  0.54502567434E+02  0.28428580626E+03  0.28961179878E+03  0.00000000000E+00 0. -1.
</event>
<event>
 7    1  0.2522928E-009  0.1103280E+03  0.7561462E-02  0.1259964E+00
         -2   -1    0    0    0  501 -0.00000000000E+00  0.00000000000E+00  0.13075639092E+03  0.13075639092E+03  0.00000000000E+00 0.  1.
          2   -1    0    0  501    0  0.00000000000E+00 -0.00000000000E+00 -0.18048452625E+03  0.18048452625E+03  0.00000000000E+00 0. -1.
         25    2    1    2    0    0  0.45234430022E+00  0.55027011753E+02  0.68667652972E+02  0.15294085814E+03  0.12508989922E+03 0.  0.
          5    1    3    3  502    0  0.57108978811E+02  0.10315006178E+02  0.53563762903E+02  0.79084662923E+02  0.41800000000E+01 0. -1.
         -5    1    3    3    0  502 -0.56656634511E+02  0.44712005575E+02  0.15103890069E+02  0.73856195216E+02  0.41800000000E+01 0. -1.
        -11    1    1    2    0    0 -0.34581205162E+02 -0.15331454430E+02 -0.92416044761E+02  0.99858092184E+02  0.00000000000E+00 0. -1.
         11    1    1    2    0    0  0.34128860862E+02 -0.39695557323E+02 -0.25979743539E+02  0.58441966849E+02  0.00000000000E+00 0.  1.
</event>
<event>
 7    1  0.2522928E-009  0.8918437E+02  0.7561462E-02  0.1304839E+00
          2   -1    0    0  501    0  0.00000000000E+00  0.00000000000E+00  0.35055326963E+03  0.35055326963E+03  0.00000000000E+00 0. -1.
         -2   -1    0    0    0  501 -0.00000000000E+00 -0.00000000000E+00 -0.40230660828E+02  0.40230660828E+02  0.00000000000E+00 0.  1.
         25    2    1    2    0    0 -0.47546439499E+02 -0.14381414629E+02  0.17593643795E+03  0.22151455635E+03  0.12509028532E+03 0.  0.
          5    1    3    3  502    0  0.25612775787E+02 -0.28516127835E+00  0.13281972569E+03  0.13533162060E+03  0.41800000000E+01 0.  1.
         -5    1    3    3    0  502 -0.73159215286E+02 -0.14096253350E+02  0.43116712256E+02  0.86182935756E+02  0.41800000000E+01 0.  1.
        -11    1    1    2    0    0  0.46656266725E+02 -0.14531515173E+02  0.22670591710E+02  0.53869545074E+02  0.00000000000E+00 0.  1.
         11    1    1    2    0    0  0.89017277371E+00  0.28912929802E+02  0.11171557915E+03  0.11539982903E+03  0.00000000000E+00 0. -1.
</event>
<event>
 7    1  0.2522928E-009  0.6474476E+02  0.7561462E-02  0.1378934E+00
          2   -1    0    0  501    0  0.00000000000E+00  0.00000000000E+00  0.18090169011E+03  0.18090169011E+03  0.00000000000E+00 0.  1.
         -2   -1    0    0    0  501 -0.00000000000E+00 -0.00000000000E+00 -0.79589748608E+02  0.79589748608E+02  0.00000000000E+00 0. -1.
         25    2    1    2    0    0  0.37619785426E+02 -0.37035704476E+02  0.55862757233E+02  0.14682044711E+03  0.12509478159E+03 0.  0.
          5    1    3    3  502    0  0.27703505945E+01 -0.25068750461E+02 -0.38055882193E+02  0.45845824909E+02  0.41800000000E+01 0.  1.
         -5    1    3    3    0  502  0.34849434831E+02 -0.11966954015E+02  0.93918639426E+02  0.10097462220E+03  0.41800000000E+01 0.  1.
        -11    1    1    2    0    0 -0.23797312578E+02 -0.34633397700E+01  0.62988646857E+02  0.67423115036E+02  0.00000000000E+00 0.  1.
         11    1    1    2    0    0 -0.13822472848E+02  0.40499044246E+02 -0.17539462584E+02  0.46247876580E+02  0.00000000000E+00 0. -1.
</event>
<event>
 7    1  0.2522928E-009  0.9709409E+02  0.7561462E-02  0.1286528E+00
         -1   -1    0    0    0  501 -0.00000000000E+00  0.00000000000E+00  0.31188196403E+02  0.31188196403E+02  0.00000000000E+00 0.  1.
          1   -1    0    0  501    0  0.00000000000E+00 -0.00000000000E+00 -0.58722393206E+03  0.58722393206E+03  0.00000000000E+00 0. -1.
         25    2    1    2    0    0  0.39003045288E+02 -0.24588382236E+02 -0.46032237636E+03  0.47923896646E+03  0.12508985059E+03 0.  0.
          5    1    3    3  502    0  0.40110364833E+02 -0.51990369626E+02 -0.43989429152E+03  0.44478792701E+03  0.41800000000E+01 0.  1.
         -5    1    3    3    0  502 -0.11073195449E+01  0.27401987390E+02 -0.20428084838E+02  0.34451039457E+02  0.41800000000E+01 0.  1.
        -11    1    1    2    0    0  0.28530764176E+02  0.15608935166E+02 -0.25370909432E+02  0.41247138166E+02  0.00000000000E+00 0.  1.
         11    1    1    2    0    0 -0.67533809463E+02  0.89794470703E+01 -0.70342449866E+02  0.97926023831E+02  0.00000000000E+00 0. -1.
</event>
<event>
 7    1  0.2522928E-009  0.1244458E+03  0.7561462E-02  0.1235938E+00
          1   -1    0    0  501    0  0.00000000000E+00  0.00000000000E+00  0.71546597765E+02  0.71546597765E+02  0.00000000000E+00 0. -1.
         -1   -1    0    0    0  501 -0.00000000000E+00 -0.00000000000E+00 -0.28307031832E+03  0.28307031832E+03  0.00000000000E+00 0.  1.
         25    2    1    2    0    0  0.78166957969E+02  0.49061927703E+02 -0.93828170963E+02  0.18157006073E+03  0.12508723044E+03 0.  0.
          5    1    3    3  502    0  0.94252769549E+02  0.14729261639E+01 -0.90991283351E+02  0.13108256988E+03  0.41800000000E+01 0. -1.
         -5    1    3    3    0  502 -0.16085811580E+02  0.47589001539E+02 -0.28368876124E+01  0.50487490857E+02  0.41800000000E+01 0. -1.
        -11    1    1    2    0    0 -0.42580389899E+02 -0.53376521781E+02 -0.11897620168E+03  0.13717681745E+03  0.00000000000E+00 0.  1.
         11    1    1    2    0    0 -0.35586568070E+02  0.43145940782E+01  0.12806520858E+01  0.35870037898E+02  0.00000000000E+00 0. -1.
</event>
<event>
 7    1  0.2522928E-009  0.1743543E+03  0.7561462E-02  0.1173382E+00
         -1   -1    0    0    0  501 -0.00000000000E+00  0.00000000000E+00  0.11827794159E+03  0.11827794159E+03  0.00000000000E+00 0.  1.
          1   -1    0    0  501    0  0.00000000000E+00 -0.00000000000E+00 -0.32083351830E+03  0.32083351830E+03  0.00000000000E+00 0. -1.
         25    2    1    2    0    0 -0.12852104851E+03 -0.84109112010E+02 -0.16422228829E+03  0.25730955969E+03  0.12508895597E+03 0.  0.
          5    1    3    3  502    0 -0.16365145829E+01  0.26142212506E+02 -0.41064025103E+02  0.48885785382E+02  0.41800000000E+01 0.  1.
         -5    1    3    3    0  502 -0.12688453393E+03 -0.11025132452E+03 -0.12315826318E+03  0.20842377431E+03  0.41800000000E+01 0.  1.
        -11    1    1    2    0    0  0.58712791272E+02  0.45391071142E+02  0.26667087454E+02  0.78858574370E+02  0.00000000000E+00 0.  1.
         11    1    1    2    0    0  0.69808257241E+02  0.38718040867E+02 -0.65000375877E+02  0.10294332582E+03  0.00000000000E+00 0. -1.
</event>
<event>
 7    1  0.2522928E-009  0.1221339E+03  0.7561462E-02  0.1239618E+00
         -1   -1    0    0    0  501 -0.00000000000E+00  0.00000000000E+00  0.24643518585E+02  0.24643518585E+02  0.00000000000E+00 0.  1.
          1   -1    0    0  501    0  0.00000000000E+00 -0.00000000000E+00 -0.90613519495E+03  0.90613519495E+03  0.00000000000E+00 0. -1.
         25    2    1    2    0    0 -0.39361696328E+02 -0.95504527537E+02 -0.50127963608E+03  0.52687643181E+03  0.12508814061E+03 0.  0.
          5    1    3    3  502    0  0.31067121862E+01 -0.69332566241E+02 -0.44953408022E+03  0.45487912469E+03  0.41800000000E+01 0. -1.
         -5    1    3    3    0  502 -0.42468408514E+02 -0.26171961296E+02 -0.51745555863E+02  0.71997307112E+02  0.41800000000E+01 0. -1.
        -11    1    1    2    0    0  0.59208446530E+02  0.61940867983E+02 -0.17305047829E+03  0.19310302769E+03  0.00000000000E+00 0.  1.
         11    1    1    2    0    0 -0.19846750202E+02  0.33563659554E+02 -0.20716156199E+03  0.21079925404E+03  0.00000000000E+00 0. -1.
</event>
<event>
 7    1  0.3594167E-009  0.1278656E+03  0.7561462E-02  0.1230658E+00
         -1   -1    0    0    0  501 -0.00000000000E+00  0.00000000000E+00  0.28073718634E+03  0.28073718634E+03  0.00000000000E+00 0.  1.
          1   -1    0    0  501    0  0.00000000000E+00 -0.00000000000E+00 -0.83004628890E+02  0.83004628890E+02  0.00000000000E+00 0. -1.
         25    2    1    2    0    0  0.98797276919E+02 -0.41310741937E+02  0.10657464002E+03  0.19614748091E+03  0.12509276977E+03 0.  0.
          5    1    3    3  502    0  0.33039882041E+02  0.13242576270E+02  0.10461333181E+03  0.11058219216E+03  0.41800000000E+01 0.  1.
         -5    1    3    3    0  502  0.65757394878E+02 -0.54553318208E+02  0.19613082048E+01  0.85565288748E+02  0.41800000000E+01 0.  1.
        -11    1    1    2    0    0 -0.29384344652E+02  0.56144092702E+02  0.67958440360E+02  0.92919042570E+02  0.00000000000E+00 0.  1.
         11    1    1    2    0    0 -0.69412932267E+02 -0.14833350764E+02  0.23199477071E+02  0.74675291745E+02  0.00000000000E+00 0. -1.
</event>
<event>
 7    1  0.2522928E-009  0.1514856E+03  0.7561462E-02  0.1198659E+00
         -1   -1    0    0    0  501 -0.00000000000E+00  0.00000000000E+00  0.24981814439E+02  0.24981814439E+02  0.00000000000E+00 0.  1.
          1   -1    0    0  501    0  0.00000000000E+00 -0.00000000000E+00 -0.12484158967E+04  0.12484158967E+04  0.00000000000E+00 0. -1.
         25    2    1    2    0    0  0.10603320143E+03  0.46015534683E+02 -0.92314098218E+03  0.93872070761E+03  0.12508726820E+03 0.  0.
          5    1    3    3  502    0  0.61773700797E+02  0.84176603785E+02 -0.71100758706E+03  0.71864521984E+03  0.41800000000E+01 0. -1.
         -5    1    3    3    0  502  0.44259500636E+02 -0.38161069102E+02 -0.21213339512E+03  0.22007548777E+03  0.41800000000E+01 0. -1.
        -11    1    1    2    0    0 -0.43530863629E+02 -0.61640566778E+02 -0.21450172550E+03  0.22738840296E+03  0.00000000000E+00 0. -1.
         11    1    1    2    0    0 -0.62502337804E+02  0.15625032095E+02 -0.85791374569E+02  0.10728860056E+03  0.00000000000E+00 0.  1.
</event>
<event>
 7    1  0.2800080E-009  0.9445215E+02  0.7561462E-02  0.1292415E+00
          2   -1    0    0  501    0  0.00000000000E+00  0.00000000000E+00  0.13947032193E+04  0.13947032193E+04  0.00000000000E+00 0. -1.
         -2   -1    0    0    0  501 -0.00000000000E+00 -0.00000000000E+00 -0.16719999231E+02  0.16719999231E+02  0.00000000000E+00 0.  1.
         25    2    1    2    0    0 -0.35042532865E+02  0.66866640705E+02  0.10897353715E+04  0.10994849492E+04  0.12507936272E+03 0.  0.
          5    1    3    3  502    0  0.99854631012E+01  0.14836554171E+02  0.84571293049E+03  0.84591232761E+03  0.41800000000E+01 0. -1.
         -5    1    3    3    0  502 -0.45027995966E+02  0.52030086534E+02  0.24402244099E+03  0.25357262161E+03  0.41800000000E+01 0. -1.
        -11    1    1    2    0    0  0.45558759912E+02 -0.13943221327E+02  0.56098289843E+02  0.73600490141E+02  0.00000000000E+00 0.  1.
         11    1    1    2    0    0 -0.10516227047E+02 -0.52923419378E+02  0.23214955879E+03  0.23833777921E+03  0.00000000000E+00 0. -1.
</event>
<event>
 7    1  0.2522928E-009  0.1429550E+03  0.7561462E-02  0.1209407E+00
         -2   -1    0    0    0  501 -0.00000000000E+00  0.00000000000E+00  0.94591404758E+02  0.94591404758E+02  0.00000000000E+00 0. -1.
          2   -1    0    0  501    0  0.00000000000E+00 -0.00000000000E+00 -0.26072815899E+03  0.26072815899E+03  0.00000000000E+00 0.  1.
         25    2    1    2    0    0  0.10705427842E+03  0.21734271250E+02 -0.55145325378E+02  0.17499457031E+03  0.12509634547E+03 0.  0.
          5    1    3    3  502    0  0.11600607804E+03 -0.22690571776E+02 -0.52503703059E+02  0.12940781825E+03  0.41800000000E+01 0. -1.
         -5    1    3    3    0  502 -0.89517996178E+01  0.44424843026E+02 -0.26416223191E+01  0.45586752054E+02  0.41800000000E+01 0. -1.
        -11    1    1    2    0    0 -0.18729873484E+02 -0.27875934825E+02  0.54738916917E+01  0.34027039150E+02  0.00000000000E+00 0. -1.
         11    1    1    2    0    0 -0.88324404940E+02  0.61416635742E+01 -0.11646532054E+03  0.14629795429E+03  0.00000000000E+00 0.  1.
</event>
<event>
 7    1  0.2522928E-009  0.8556046E+02  0.7561462E-02  0.1313973E+00
          1   -1    0    0  501    0  0.00000000000E+00  0.00000000000E+00  0.17803778806E+03  0.17803778806E+03  0.00000000000E+00 0. -1.
         -1   -1    0    0    0  501 -0.00000000000E+00 -0.00000000000E+00 -0.89588879027E+02  0.89588879027E+02  0.00000000000E+00 0.  1.
         25    2    1    2    0    0  0.96003397188E+01 -0.44728018586E+02  0.28507400553E+02  0.13620846520E+03  0.12508921590E+03 0.  0.
          5    1    3    3  502    0  0.28015416312E+02 -0.37086358182E+02  0.73360904286E+02  0.86945708301E+02  0.41800000000E+01 0.  1.
         -5    1    3    3    0  502 -0.18415076593E+02 -0.76416604046E+01 -0.44853503733E+02  0.49262756894E+02  0.41800000000E+01 0.  1.
        -11    1    1    2    0    0 -0.23621610054E+01  0.73945333375E+02  0.12203545535E+02  0.74982789067E+02  0.00000000000E+00 0.  1.
         11    1    1    2    0    0 -0.72381787134E+01 -0.29217314789E+02  0.47737962941E+02  0.56435412821E+02  0.00000000000E+00 0. -1.
</event>
<event>
 7    1  0.2522928E-009  0.9456345E+02  0.7561462E-02  0.1292162E+00
          2   -1    0    0  501    0  0.00000000000E+00  0.00000000000E+00  0.89970557396E+02  0.89970557396E+02  0.00000000000E+00 0. -1.
         -2   -1    0    0    0  501 -0.00000000000E+00 -0.00000000000E+00 -0.16360168020E+03  0.16360168020E+03  0.00000000000E+00 0.  1.
         25    2    1    2    0    0 -0.43747096417E+02 -0.27903178676E+02 -0.24110196451E+02  0.13755457942E+03  0.12509022713E+03 0.  0.
          5    1    3    3  502    0 -0.31021310062E+02  0.32628327875E+02  0.30823770175E+02  0.54722085722E+02  0.41800000000E+01 0.  1.
         -5    1    3    3    0  502 -0.12725786355E+02 -0.60531506551E+02 -0.54933966626E+02  0.82832493703E+02  0.41800000000E+01 0.  1.
        -11    1    1    2    0    0  0.60373301334E+02  0.21152072176E+02 -0.65812857679E+02  0.91780596573E+02  0.00000000000E+00 0.  1.
         11    1    1    2    0    0 -0.16626204916E+02  0.67511065000E+01  0.16291931322E+02  0.24237061602E+02  0.00000000000E+00 0. -1.
</event>
<event>
 7    1  0.5788488E-009  0.1418881E+03  0.7561462E-02  0.1210811E+00
          1   -1    0    0  501    0  0.00000000000E+00  0.00000000000E+00  0.14879106860E+04  0.14879106860E+04  0.00000000000E+00 0. -1.
         -1   -1    0    0    0  501 -0.00000000000E+00 -0.00000000000E+00 -0.18284527004E+02  0.18284527004E+02  0.00000000000E+00 0.  1.
         25    2    1    2    0    0  0.22724517437E+02  0.10821313807E+03  0.10396312307E+04  0.10529515204E+04  0.12508925469E+03 0.  0.
          5    1    3    3  502    0  0.69339788324E+02  0.29865425661E+02  0.48718802303E+03  0.49302088402E+03  0.41800000000E+01 0.  1.
         -5    1    3    3    0  502 -0.46615270887E+02  0.78347712406E+02  0.55244320763E+03  0.55993063639E+03  0.41800000000E+01 0.  1.
        -11    1    1    2    0    0 -0.30282422927E+02 -0.51950418814E+02  0.88083457843E+02  0.10665161367E+03  0.00000000000E+00 0.  1.
         11    1    1    2    0    0  0.75579054895E+01 -0.56262719253E+02  0.34191147054E+03  0.34659207896E+03  0.00000000000E+00 0. -1.
</event>
<event>
 7    1  0.2522928E-009  0.1836505E+03  0.7561462E-02  0.1164316E+00
         -2   -1    0    0    0  501 -0.00000000000E+00  0.00000000000E+00  0.72740770088E+02  0.72740770088E+02  0.00000000000E+00 0.  1.
          2   -1    0    0  501    0  0.00000000000E+00 -0.00000000000E+00 -0.59909153679E+03  0.59909153679E+03  0.00000000000E+00 0. -1.
         25    2    1    2    0    0 -0.24565752256E+02  0.16268418872E+03 -0.38227652336E+03  0.43457105007E+03  0.12508811217E+03 0.  0.
          5    1    3    3  502    0 -0.68422179696E+02  0.13106728369E+03 -0.23548989541E+03  0.27808845853E+03  0.41800000000E+01 0.  1.
         -5    1    3    3    0  502  0.43856427441E+02  0.31616905035E+02 -0.14678662794E+03  0.15648259154E+03  0.41800000000E+01 0.  1.
        -11    1    1    2    0    0  0.88350953723E+01 -0.10505959026E+03 -0.14281435250E+03  0.17751483232E+03  0.00000000000E+00 0. -1.
         11    1    1    2    0    0  0.15730656883E+02 -0.57624598464E+02 -0.12598908531E+01  0.59746424488E+02  0.00000000000E+00 0.  1.
</event>
<event>
 7    1  0.2522928E-009  0.1000568E+03  0.7561462E-02  0.1280176E+00
         -2   -1    0    0    0  501 -0.00000000000E+00  0.00000000000E+00  0.32473978069E+03  0.32473978069E+03  0.00000000000E+00 0. -1.
          2   -1    0    0  501    0  0.00000000000E+00 -0.00000000000E+00 -0.39085203822E+02  0.39085203822E+02  0.00000000000E+00 0.  1.
         25    2    1    2    0    0  0.10680889982E+02  0.53965607033E+01  0.20744250447E+03  0.24253438315E+03  0.12508928840E+03 0.  0.
          5    1    3    3  502    0  0.25659235613E+02 -0.55789614914E+02  0.87315755836E+02  0.10682879350E+03  0.41800000000E+01 0. -1.
         -5    1    3    3    0  502 -0.14978345630E+02  0.61186175617E+02  0.12012674864E+03  0.13570558965E+03  0.41800000000E+01 0. -1.
        -11    1    1    2    0    0  0.24950649837E+02 -0.24529700681E+02  0.72426473132E+02  0.80435285498E+02  0.00000000000E+00 0.  1.
         11    1    1    2    0    0 -0.35631539820E+02  0.19133139978E+02  0.57855992671E+01  0.40855315862E+02  0.00000000000E+00 0. -1.
</event>
<event>
 7    1  0.2522928E-009  0.7344415E+02  0.7561462E-02  0.1348758E+00
         -1   -1    0    0    0  501 -0.00000000000E+00  0.00000000000E+00  0.66994932896E+02  0.66994932896E+02  0.00000000000E+00 0.  1.
          1   -1    0    0  501    0  0.00000000000E+00 -0.00000000000E+00 -0.18060528814E+03  0.18060528814E+03  0.00000000000E+00 0. -1.
         25    2    1    2    0    0 -0.40987133210E+01  0.11953500625E+02 -0.75613093076E+02  0.14671067505E+03  0.12508795585E+03 0.  0.
          5    1    3    3  502    0 -0.25001417512E+02 -0.10805636067E+02 -0.10212721583E+03  0.10577936123E+03  0.41800000000E+01 0. -1.
         -5    1    3    3    0  502  0.20902704191E+02  0.22759136691E+02  0.26514122755E+02  0.40931313818E+02  0.41800000000E+01 0. -1.
        -11    1    1    2    0    0  0.11729471505E+02  0.36892096917E+02 -0.33593862412E+02  0.51255779269E+02  0.00000000000E+00 0.  1.
         11    1    1    2    0    0 -0.76307581839E+01 -0.48845597542E+02 -0.44033997579E+01  0.49633766723E+02  0.00000000000E+00 0. -1.
</event>
<event>
 7    1  0.4641087E-009  0.9016043E+02  0.7561462E-02  0.1302464E+00
          2   -1    0    0  501    0  0.00000000000E+00  0.00000000000E+00  0.11713515364E+04  0.11713515364E+04  0.00000000000E+00 0.  1.
         -2   -1    0    0    0  501 -0.00000000000E+00 -0.00000000000E+00 -0.16212572110E+02  0.16212572110E+02  0.00000000000E+00 0. -1.
         25    2    1    2    0    0  0.10321921060E+02  0.42143125833E+02  0.94761668833E+03  0.95682134491E+03  0.12508842060E+03 0.  0.
          5    1    3    3  502    0 -0.32604229035E+02  0.37154922190E+02  0.14932296878E+03  0.15734784841E+03  0.41800000000E+01 0. -1.
         -5    1    3    3    0  502  0.42926150096E+02  0.49882036430E+01  0.79829371954E+03  0.79947349650E+03  0.41800000000E+01 0. -1.
        -11    1    1    2    0    0  0.32461330268E+02 -0.25919053982E+02  0.42237052385E+02  0.59241066130E+02  0.00000000000E+00 0. -1.
         11    1    1    2    0    0 -0.42783251328E+02 -0.16224071851E+02  0.16528522357E+03  0.17150169746E+03  0.00000000000E+00 0.  1.
</event>
<event>
 7    1  0.2522928E-009  0.9480012E+02  0.7561462E-02  0.1291627E+00
         -2   -1    0    0    0  501 -0.00000000000E+00  0.00000000000E+00  0.17970233529E+03  0.17970233529E+03  0.00000000000E+00 0.  1.
          2   -1    0    0  501    0  0.00000000000E+00 -0.00000000000E+00 -0.70493012605E+02  0.70493012605E+02  0.00000000000E+00 0. -1.
         25    2    1    2    0    0  0.20770662170E+02 -0.38304061513E+00  0.36798202158E+02  0.13203549820E+03  0.12509075895E+03 0.  0.
          5    1    3    3  502    0 -0.35692529319E+02 -0.40677443400E+02  0.30494987993E+02  0.62257752477E+02  0.41800000000E+01 0. -1.
         -5    1    3    3    0  502  0.56463191489E+02  0.40294402785E+02  0.63032141652E+01  0.69777745720E+02  0.41800000000E+01 0. -1.
        -11    1    1    2    0    0 -0.42974831475E+02 -0.41263790153E+01  0.82688463610E+02  0.93280465041E+02  0.00000000000E+00 0.  1.
         11    1    1    2    0    0  0.22204169305E+02  0.45094196304E+01 -0.10277343086E+02  0.24879384655E+02  0.00000000000E+00 0. -1.
</event>
<event>
 7    1  0.2522928E-009  0.1015967E+03  0.7561462E-02  0.1276974E+00
          1   -1    0    0  501    0  0.00000000000E+00  0.00000000000E+00  0.18073613844E+02  0.18073613844E+02  0.00000000000E+00 0. -1.
         -1   -1    0    0    0  501 -0.00000000000E+00 -0.00000000000E+00 -0.80224244679E+03  0.80224244679E+03  0.00000000000E+00 0.  1.
         25    2    1    2    0    0  0.11578676673E+02 -0.30380599372E+02 -0.30528522378E+03  0.33151673175E+03  0.12508888439E+03 0.  0.
          5    1    3    3  502    0  0.37520209100E+02 -0.58870070606E+02 -0.27064827230E+03  0.27953785254E+03  0.41800000000E+01 0. -1.
         -5    1    3    3    0  502 -0.25941532427E+02  0.28489471234E+02 -0.34636951482E+02  0.51978879209E+02  0.41800000000E+01 0. -1.
        -11    1    1    2    0    0 -0.30694253678E+02  0.55208526690E+02 -0.37534648435E+03  0.38062462078E+03  0.00000000000E+00 0.  1.
         11    1    1    2    0    0  0.19115577004E+02 -0.24827927318E+02 -0.10353712482E+03  0.10817470811E+03  0.00000000000E+00 0. -1.
</event>
<event>
 7    1  0.2522928E-009  0.1075385E+03  0.7561462E-02  0.1265197E+00
         -2   -1    0    0    0  501 -0.00000000000E+00  0.00000000000E+00  0.24968096874E+02  0.24968096874E+02  0.00000000000E+00 0.  1.
          2   -1    0    0  501    0  0.00000000000E+00 -0.00000000000E+00 -0.75655975849E+03  0.75655975849E+03  0.00000000000E+00 0. -1.
         25    2    1    2    0    0 -0.57934403573E+02  0.30077786634E+02 -0.55174032611E+03  0.56949734395E+03  0.12509503961E+03 0.  0.
          5    1    3    3  502    0 -0.25663372375E+02 -0.30151386133E+02 -0.41169313340E+03  0.41361385767E+03  0.41800000000E+01 0.  1.
         -5    1    3    3    0  502 -0.32271031198E+02  0.60229172767E+02 -0.14004719271E+03  0.15588348628E+03  0.41800000000E+01 0.  1.
        -11    1    1    2    0    0  0.43247255285E+02 -0.59713578243E+02 -0.90364262407E+02  0.11662648257E+03  0.00000000000E+00 0. -1.
         11    1    1    2    0    0  0.14687148289E+02  0.29635791609E+02 -0.89487073098E+02  0.95404028849E+02  0.00000000000E+00 0.  1.
</event>
<event>
 7    1  0.2522928E-009  0.8607498E+02  0.7561462E-02  0.1312645E+00
         -2   -1    0    0    0  501 -0.00000000000E+00  0.00000000000E+00  0.28208925065E+03  0.28208925065E+03  0.00000000000E+00 0.  1.
          2   -1    0    0  501    0  0.00000000000E+00 -0.00000000000E+00 -0.47256100099E+02  0.47256100099E+02  0.00000000000E+00 0. -1.
         25    2    1    2    0    0  0.31363880320E+02  0.68538078642E+01  0.14422844373E+03  0.19360008618E+03  0.12509389161E+03 0.  0.
          5    1    3    3  502    0  0.68167203957E+02  0.26013714986E+02  0.44650082628E+02  0.85642182022E+02  0.41800000000E+01 0.  1.
         -5    1    3    3    0  502 -0.36803323637E+02 -0.19159907122E+02  0.99578361098E+02  0.10795790416E+03  0.41800000000E+01 0.  1.
        -11    1    1    2    0    0 -0.38331445223E+02 -0.19440612431E+02  0.10617610178E+03  0.11454519498E+03  0.00000000000E+00 0.  1.
         11    1    1    2    0    0  0.69675649025E+01  0.12586804567E+02 -0.15571394950E+02  0.21200069588E+02  0.00000000000E+00 0. -1.
</event>
<event>
 7    1  0.2522928E-009  0.9321984E+02  0.7561462E-02  0.1295237E+00
         -1   -1    0    0    0  501 -0.00000000000E+00  0.00000000000E+00  0.63737366671E+02  0.63737366671E+02  0.00000000000E+00 0.  1.
          1   -1    0    0  501    0  0.00000000000E+00 -0.00000000000E+00 -0.42394062484E+03  0.42394062484E+03  0.00000000000E+00 0. -1.
         25    2    1    2    0    0  0.70304039131E+02  0.34424389205E+01 -0.33896100400E+03  0.36809766833E+03  0.12508726113E+03 0.  0.
          5    1    3    3  502    0  0.47254811631E+02 -0.25748567583E+02 -0.40967613053E+02  0.67762996348E+02  0.41800000000E+01 0.  1.
         -5    1    3    3    0  502  0.23049227499E+02  0.29191006503E+02 -0.29799339095E+03  0.30033467199E+03  0.41800000000E+01 0.  1.
        -11    1    1    2    0    0 -0.20871214978E+02 -0.31806386086E+02  0.25561446108E+02  0.45832753982E+02  0.00000000000E+00 0.  1.
         11    1    1    2    0    0 -0.49432824153E+02  0.28363947165E+02 -0.46803700282E+02  0.73747569198E+02  0.00000000000E+00 0. -1.
</event>
<event>
 7    1  0.2522928E-009  0.1050313E+03  0.7561462E-02  0.1270058E+00
         -1   -1    0    0    0  501 -0.00000000000E+00  0.00000000000E+00  0.17660988244E+03  0.17660988244E+03  0.00000000000E+00 0.  1.
          1   -1    0    0  501    0  0.00000000000E+00 -0.00000000000E+00 -0.11603541741E+03  0.11603541741E+03  0.00000000000E+00 0. -1.
         25    2    1    2    0    0 -0.90753331176E+02 -0.85794564208E+01  0.13459388076E+02  0.15536562930E+03  0.12509016528E+03 0.  0.
          5    1    3    3  502    0 -0.46196227360E+02 -0.19379140913E+02  0.67635011880E+02  0.84271049340E+02  0.41800000000E+01 0.  1.
         -5    1    3    3    0  502 -0.44557103816E+02  0.10799684492E+02 -0.54175623804E+02  0.71094579964E+02  0.41800000000E+01 0.  1.
        -11    1    1    2    0    0  0.61694326144E+00 -0.19373653214E+02  0.37761632601E+02  0.42445965115E+02  0.00000000000E+00 0.  1.
         11    1    1    2    0    0  0.90136387915E+02  0.27953109635E+02  0.93534443544E+01  0.94833705432E+02  0.00000000000E+00 0. -1.
</event>
<event>
 7    1  0.2522928E-009  0.1062031E+03  0.7561462E-02  0.1267767E+00
          1   -1    0    0  501    0  0.00000000000E+00  0.00000000000E+00  0.28111301580E+03  0.28111301580E+03  0.00000000000E+00 0. -1.
         -1   -1    0    0    0  501 -0.00000000000E+00 -0.00000000000E+00 -0.62527657054E+02  0.62527657054E+02  0.00000000000E+00 0.  1.
         25    2    1    2    0    0 -0.46415833583E+01 -0.73184193186E+02  0.11494972486E+03  0.18503744848E+03  0.12509175699E+03 0.  0.
          5    1    3    3  502    0  0.44525733186E+02  0.18419408612E+01  0.81378240325E+01  0.45493188961E+02  0.41800000000E+01 0. -1.
         -5    1    3    3    0  502 -0.49167316544E+02 -0.75026134047E+02  0.10681190083E+03  0.13954425952E+03  0.41800000000E+01 0. -1.
        -11    1    1    2    0    0  0.13355259429E+02  0.63202406762E+02  0.12075947455E+03  0.13695166253E+03  0.00000000000E+00 0. -1.
         11    1    1    2    0    0 -0.87136760707E+01  0.99817864242E+01 -0.17123840671E+02  0.21651561842E+02  0.00000000000E+00 0.  1.
</event>
<event>
 7    1  0.2522928E-009  0.1410014E+03  0.7561462E-02  0.1211988E+00
          1   -1    0    0  501    0  0.00000000000E+00  0.00000000000E+00  0.67064691790E+03  0.67064691790E+03  0.00000000000E+00 0. -1.
         -1   -1    0    0    0  501 -0.00000000000E+00 -0.00000000000E+00 -0.33560797378E+02  0.33560797378E+02  0.00000000000E+00 0.  1.
         25    2    1    2    0    0 -0.95876869780E+02  0.35156688380E+02  0.38229388608E+03  0.41499998284E+03  0.12509198028E+03 0.  0.
          5    1    3    3  502    0 -0.43134530856E+02  0.76182546153E+02  0.27405100283E+03  0.28772520335E+03  0.41800000000E+01 0. -1.
         -5    1    3    3    0  502 -0.52742338924E+02 -0.41025857774E+02  0.10824288324E+03  0.12727477949E+03  0.41800000000E+01 0. -1.
        -11    1    1    2    0    0 -0.79660636554E+01 -0.21178143618E+02  0.14004384589E+02  0.26610049324E+02  0.00000000000E+00 0.  1.
         11    1    1    2    0    0  0.10384293344E+03 -0.13978544761E+02  0.24078784986E+03  0.26259768312E+03  0.00000000000E+00 0. -1.
</event>
<event>
 7    1  0.2522928E-009  0.1256273E+03  0.7561462E-02  0.1234092E+00
         -1   -1    0    0    0  501 -0.00000000000E+00  0.00000000000E+00  0.11120917838E+03  0.11120917838E+03  0.00000000000E+00 0.  1.
          1   -1    0    0  501    0  0.00000000000E+00 -0.00000000000E+00 -0.17033725494E+03  0.17033725494E+03  0.00000000000E+00 0. -1.
         25    2    1    2    0    0 -0.24925668346E+01  0.73282090094E+02 -0.44789879449E+02  0.15175733283E+03  0.12509067570E+03 0.  0.
          5    1    3    3  502    0 -0.58687116515E+01 -0.25006796340E+02 -0.46522286162E+02  0.53306445664E+02  0.41800000000E+01 0. -1.
         -5    1    3    3    0  502  0.33761448170E+01  0.98288886434E+02  0.17324067128E+01  0.98450887164E+02  0.41800000000E+01 0. -1.
        -11    1    1    2    0    0 -0.72311981367E+01 -0.99018789417E+02 -0.11738026154E+01  0.99289418856E+02  0.00000000000E+00 0. -1.
         11    1    1    2    0    0  0.97237649712E+01  0.25736699323E+02 -0.13164394503E+02  0.30499681636E+02  0.00000000000E+00 0.  1.
</event>
<event>
 7    1  0.2522928E-009  0.3437959E+03  0.7561462E-02  0.1065191E+00
          1   -1    0    0  501    0  0.00000000000E+00  0.00000000000E+00  0.73328885253E+03  0.73328885253E+03  0.00000000000E+00 0. -1.
         -1   -1    0    0    0  501 -0.00000000000E+00 -0.00000000000E+00 -0.18650674523E+03  0.18650674523E+03  0.00000000000E+00 0.  1.
         25    2    1    2    0    0  0.33361363882E+03 -0.79432510700E+02  0.38288064074E+03  0.52901139432E+03  0.12509151252E+03 0.  0.
          5    1    3    3  502    0  0.30967796631E+03 -0.67679251358E+02  0.28103461868E+03  0.42364944610E+03  0.41800000000E+01 0.  1.
         -5    1    3    3    0  502  0.23935672513E+02 -0.11753259342E+02  0.10184602206E+03  0.10536194823E+03  0.41800000000E+01 0.  1.
        -11    1    1    2    0    0 -0.19447618306E+03  0.35604427524E+02  0.45432971742E+02  0.20286156846E+03  0.00000000000E+00 0.  1.
         11    1    1    2    0    0 -0.13913745576E+03  0.43828083175E+02  0.11846849482E+03  0.18792263497E+03  0.00000000000E+00 0. -1.
</event>
<event>
 7    1  0.2522928E-009  0.1718362E+03  0.7561462E-02  0.1175946E+00
         -1   -1    0    0    0  501 -0.00000000000E+00  0.00000000000E+00  0.64075513690E+03  0.64075513690E+03  0.00000000000E+00 0.  1.
          1   -1    0    0  501    0  0.00000000000E+00 -0.00000000000E+00 -0.53332225263E+02  0.53332225263E+02  0.00000000000E+00 0. -1.
         25    2    1    2    0    0  0.12437176185E+03  0.72427197609E+02  0.23654743089E+03  0.30383562113E+03  0.12508942204E+03 0.  0.
          5    1    3    3  502    0  0.12552761198E+03  0.10125835286E+03  0.19516331190E+03  0.25321261048E+03  0.41800000000E+01 0. -1.
         -5    1    3    3    0  502 -0.11558501253E+01 -0.28831155255E+02  0.41384118992E+02  0.50623010653E+02  0.41800000000E+01 0. -1.
        -11    1    1    2    0    0  0.38688949180E+01 -0.96638098998E+01 -0.10545549309E+01  0.10462774764E+02  0.00000000000E+00 0. -1.
         11    1    1    2    0    0 -0.12824065677E+03 -0.62763387709E+02  0.35193003568E+03  0.37978896627E+03  0.00000000000E+00 0.  1.
</event>
<event>
 7    1  0.2522928E-009  0.1650591E+03  0.7561462E-02  0.1183101E+00
         -2   -1    0    0    0  501 -0.00000000000E+00  0.00000000000E+00  0.13629388123E+03  0.13629388123E+03  0.00000000000E+00 0.  1.
          2   -1    0    0  501    0  0.00000000000E+00 -0.00000000000E+00 -0.29082570318E+03  0.29082570318E+03  0.00000000000E+00 0. -1.
         25    2    1    2    0    0 -0.12154720002E+03  0.25532338157E+02  0.37462494157E+02  0.18020471127E+03  0.12507868472E+03 0.  0.
          5    1    3    3  502    0  0.14823672988E+02 -0.26061436518E+02  0.90794887663E+01  0.31604576733E+02  0.41800000000E+01 0. -1.
         -5    1    3    3    0  502 -0.13637087301E+03  0.51593774674E+02  0.28383005391E+02  0.14860013454E+03  0.41800000000E+01 0. -1.
        -11    1    1    2    0    0  0.10968601234E+03 -0.54645770805E+02 -0.16466021374E+03  0.20525634596E+03  0.00000000000E+00 0. -1.
         11    1    1    2    0    0  0.11861187685E+02  0.29113432648E+02 -0.27334102365E+02  0.41658527170E+02  0.00000000000E+00 0.  1.
</event>
<event>
 7    1  0.2522928E-009  0.9963535E+02  0.7561462E-02  0.1281065E+00
         -2   -1    0    0    0  501 -0.00000000000E+00  0.00000000000E+00  0.59717698296E+02  0.59717698296E+02  0.00000000000E+00 0.  1.
          2   -1    0    0  501    0  0.00000000000E+00 -0.00000000000E+00 -0.24659176442E+03  0.24659176442E+03  0.00000000000E+00 0. -1.
         25    2    1    2    0    0 -0.58399986653E+01  0.14799859211E+02 -0.41490837866E+02  0.13277039544E+03  0.12511333606E+03 0.  0.
          5    1    3    3  502    0 -0.12524533142E+01 -0.44673537763E+02 -0.55475678874E+02  0.71360471986E+02  0.41800000000E+01 0.  1.
         -5    1    3    3    0  502 -0.45875453511E+01  0.59473396974E+02  0.13984841008E+02  0.61409923449E+02  0.41800000000E+01 0.  1.
        -11    1    1    2    0    0 -0.16923100616E+01  0.39616697796E+02 -0.55830280259E+02  0.68478951886E+02  0.00000000000E+00 0.  1.
         11    1    1    2    0    0  0.75323087269E+01 -0.54416557007E+02 -0.89552947994E+02  0.10506011539E+03  0.00000000000E+00 0. -1.
</event>
<event>
 7    1  0.2522928E-009  0.1203536E+03  0.7561462E-02  0.1242515E+00
          2   -1    0    0  501    0  0.00000000000E+00  0.00000000000E+00  0.34783885364E+03  0.34783885364E+03  0.00000000000E+00 0. -1.
         -2   -1    0    0    0  501 -0.00000000000E+00 -0.00000000000E+00 -0.51948201682E+02  0.51948201682E+02  0.00000000000E+00 0.  1.
         25    2    1    2    0    0  0.39366132470E+02  0.67407297776E+02  0.17635674287E+03  0.22987303929E+03  0.12508587953E+03 0.  0.
          5    1    3    3  502    0 -0.30982597886E+02 -0.18502040710E+02  0.43227749902E+02  0.56465543864E+02  0.41800000000E+01 0.  1.
         -5    1    3    3    0  502  0.70348730356E+02  0.85909338486E+02  0.13312899297E+03  0.17340749543E+03  0.41800000000E+01 0.  1.
        -11    1    1    2    0    0 -0.38860283361E+02 -0.16279130039E+02  0.25093678406E+01  0.42206973650E+02  0.00000000000E+00 0.  1.
         11    1    1    2    0    0 -0.50584910870E+00 -0.51128167737E+02  0.11702454125E+03  0.12770704238E+03  0.00000000000E+00 0. -1.
</event>
<event>
 7    1  0.2522928E-009  0.5339908E+03  0.7561462E-02  0.1005269E+00
          1   -1    0    0  501    0  0.00000000000E+00  0.00000000000E+00  0.27554331173E+04  0.27554331173E+04  0.00000000000E+00 0. -1.
         -1   -1    0    0    0  501 -0.00000000000E+00 -0.00000000000E+00 -0.10809879088E+03  0.10809879088E+03  0.00000000000E+00 0.  1.
         25    2    1    2    0    0 -0.33842255109E+03 -0.41288028169E+03  0.12527711641E+04  0.13675099242E+04  0.12509137843E+03 0.  0.
          5    1    3    3  502    0 -0.17732566065E+03 -0.21004742295E+03  0.79929249632E+03  0.84525160567E+03  0.41800000000E+01 0.  1.
         -5    1    3    3    0  502 -0.16109689045E+03 -0.20283285873E+03  0.45347866782E+03  0.52225831852E+03  0.41800000000E+01 0.  1.
        -11    1    1    2    0    0  0.28357973772E+03  0.33845357039E+03  0.12356434655E+04  0.13121673143E+04  0.00000000000E+00 0.  1.
         11    1    1    2    0    0  0.54842813376E+02  0.74426711295E+02  0.15891969673E+03  0.18385466962E+03  0.00000000000E+00 0. -1.
</event>
<event>
 7    1  0.2522928E-009  0.9498270E+02  0.7561462E-02  0.1291215E+00
          1   -1    0    0  501    0  0.00000000000E+00  0.00000000000E+00  0.63819942120E+03  0.63819942120E+03  0.00000000000E+00 0. -1.
         -1   -1    0    0    0  501 -0.00000000000E+00 -0.00000000000E+00 -0.28254964131E+02  0.28254964131E+02  0.00000000000E+00 0.  1.
         25    2    1    2    0    0 -0.41433950761E+02 -0.37411777977E+01  0.51946292680E+03  0.53592955539E+03  0.12509191555E+03 0.  0.
          5    1    3    3  502    0  0.42472104252E+02  0.61865584271E+01  0.24359351289E+03  0.24738113321E+03  0.41800000000E+01 0.  1.
         -5    1    3    3    0  502 -0.83906055013E+02 -0.99277362248E+01  0.27586941391E+03  0.28854842219E+03  0.41800000000E+01 0.  1.
        -11    1    1    2    0    0  0.29112341405E+02 -0.20122838199E+02  0.96686681541E+02  0.10296004772E+03  0.00000000000E+00 0. -1.
         11    1    1    2    0    0  0.12321609356E+02  0.23864015997E+02 -0.62051512689E+01  0.27564782221E+02  0.00000000000E+00 0.  1.
</event>
<event>
 7    1  0.2522928E-009  0.2070471E+03  0.7561462E-02  0.1143926E+00
         -2   -1    0    0    0  501 -0.00000000000E+00  0.00000000000E+00  0.69751279138E+03  0.69751279138E+03  0.00000000000E+00 0.  1.
          2   -1    0    0  501    0  0.00000000000E+00 -0.00000000000E+00 -0.68456244637E+02  0.68456244637E+02  0.00000000000E+00 0. -1.
         25    2    1    2    0    0 -0.16164251351E+03 -0.97775685502E+02  0.35044843936E+03  0.41731301685E+03  0.12509060129E+03 0.  0.
          5    1    3    3  502    0 -0.14095421061E+03 -0.38414291887E+02  0.30921776983E+03  0.34201878441E+03  0.41800000000E+01 0.  1.
         -5    1    3    3    0  502 -0.20688302903E+02 -0.59361393615E+02  0.41230669534E+02  0.75294232443E+02  0.41800000000E+01 0.  1.
        -11    1    1    2    0    0  0.13527688750E+03  0.39422109115E+02  0.22332127187E+03  0.26405743589E+03  0.00000000000E+00 0.  1.
         11    1    1    2    0    0  0.26365626007E+02  0.58353576387E+02  0.55286835509E+02  0.84598583277E+02  0.00000000000E+00 0. -1.
</event>
<event>
 7    1  0.2522928E-009  0.7697335E+02  0.7561462E-02  0.1337867E+00
         -1   -1    0    0    0  501 -0.00000000000E+00  0.00000000000E+00  0.11147181669E+02  0.11147181669E+02  0.00000000000E+00 0.  1.
          1   -1    0    0  501    0  0.00000000000E+00 -0.00000000000E+00 -0.11691691273E+04  0.11691691273E+04  0.00000000000E+00 0. -1.
         25    2    1    2    0    0 -0.10290599302E+02  0.42949829516E+01 -0.83442439775E+03  0.84382238405E+03  0.12509115456E+03 0.  0.
          5    1    3    3  502    0  0.23584873097E+02  0.12094206955E+02 -0.77025911909E+03  0.77072634509E+03  0.41800000000E+01 0. -1.
         -5    1    3    3    0  502 -0.33875472399E+02 -0.77992240032E+01 -0.64165278662E+02  0.73096038957E+02  0.41800000000E+01 0. -1.
        -11    1    1    2    0    0  0.37652525299E+02  0.30061603355E+02 -0.15927712436E+03  0.16640497289E+03  0.00000000000E+00 0. -1.
         11    1    1    2    0    0 -0.27361925997E+02 -0.34356586307E+02 -0.16432042353E+03  0.17008895204E+03  0.00000000000E+00 0.  1.
</event>
<event>
 7    1  0.2522928E-009  0.1087383E+03  0.7561462E-02  0.1262924E+00
         -2   -1    0    0    0  501 -0.00000000000E+00  0.00000000000E+00  0.79302348278E+02  0.79302348278E+02  0.00000000000E+00 0. -1.
          2   -1    0    0  501    0  0.00000000000E+00 -0.00000000000E+00 -0.23782675536E+03  0.23782675536E+03  0.00000000000E+00 0.  1.
         25    2    1    2    0    0  0.65603491767E+02 -0.36591284062E+02 -0.49330811852E+02  0.15402387391E+03  0.12508830695E+03 0.  0.
          5    1    3    3  502    0  0.66922560940E+01  0.15660235923E+02  0.34643495495E+02  0.38828771046E+02  0.41800000000E+01 0.  1.
         -5    1    3    3    0  502  0.58911235673E+02 -0.52251519985E+02 -0.83974307347E+02  0.11519510286E+03  0.41800000000E+01 0.  1.
        -11    1    1    2    0    0 -0.58731567879E+02 -0.21534067003E+02 -0.59301728424E+02  0.86196334616E+02  0.00000000000E+00 0.  1.
         11    1    1    2    0    0 -0.68719238879E+01  0.58125351064E+02 -0.49891866809E+02  0.76908895116E+02  0.00000000000E+00 0. -1.
</event>
<event>
 7    1  0.2522928E-009  0.3644208E+02  0.7561462E-02  0.1536155E+00
          1   -1    0    0  501    0  0.00000000000E+00  0.00000000000E+00  0.67325508135E+02  0.67325508135E+02  0.00000000000E+00 0. -1.
         -1   -1    0    0    0  501 -0.00000000000E+00 -0.00000000000E+00 -0.30180830814E+03  0.30180830814E+03  0.00000000000E+00 0.  1.
         25    2    1    2    0    0 -0.16686850160E+02 -0.23940374085E+02 -0.23430865209E+03  0.26720757188E+03  0.12509096510E+03 0.  0.
          5    1    3    3  502    0 -0.25438552432E+02 -0.17376631604E+02  0.14836726844E+01  0.31124603779E+02  0.41800000000E+01 0.  1.
         -5    1    3    3    0  502  0.87517022723E+01 -0.65637424810E+01 -0.23579232477E+03  0.23608296810E+03  0.41800000000E+01 0.  1.
        -11    1    1    2    0    0  0.94064774954E+01  0.72545832886E+01 -0.48684301472E+02  0.50112593302E+02  0.00000000000E+00 0.  1.
         11    1    1    2    0    0  0.72803726645E+01  0.16685790797E+02  0.48510153558E+02  0.51813651087E+02  0.00000000000E+00 0. -1.
</event>
<event>
 7    1  0.2522928E-009  0.1635018E+03  0.7561462E-02  0.1184799E+00
          2   -1    0    0  501    0  0.00000000000E+00  0.00000000000E+00  0.11159411317E+04  0.11159411317E+04  0.00000000000E+00 0. -1.
         -2   -1    0    0    0  501 -0.00000000000E+00 -0.00000000000E+00 -0.32914782365E+02  0.32914782365E+02  0.00000000000E+00 0.  1.
         25    2    1    2    0    0 -0.14307377409E+03 -0.44097177991E+02  0.42218811743E+03  0.46508655561E+03  0.12509209318E+03 0.  0.
          5    1    3    3  502    0 -0.62978984692E+02 -0.40575400491E+02  0.65897461561E+02  0.99863223852E+02  0.41800000000E+01 0. -1.
         -5    1    3    3    0  502 -0.80094789402E+02 -0.35217774995E+01  0.35629065587E+03  0.36522333176E+03  0.41800000000E+01 0. -1.
        -11    1    1    2    0    0  0.10966921789E+03  0.69398930089E+02  0.43001420180E+03  0.44917230836E+03  0.00000000000E+00 0.  1.
         11    1    1    2    0    0  0.33404556201E+02 -0.25301752098E+02  0.23082403010E+03  0.23459705008E+03  0.00000000000E+00 0. -1.
</event>
<event>
 7    1  0.2522928E-009  0.1348646E+03  0.7561462E-02  0.1220411E+00
         -1   -1    0    0    0  501 -0.00000000000E+00  0.00000000000E+00  0.14186486910E+04  0.14186486910E+04  0.00000000000E+00 0.  1.
          1   -1    0    0  501    0  0.00000000000E+00 -0.00000000000E+00 -0.16724323011E+02  0.16724323011E+02  0.00000000000E+00 0. -1.
         25    2    1    2    0    0 -0.20606640033E+01 -0.10494471688E+03  0.88076938684E+03  0.89577902975E+03  0.12509083659E+03 0.  0.
          5    1    3    3  502    0  0.51051435185E+02 -0.68263753373E+02  0.66700460182E+03  0.67244241412E+03  0.41800000000E+01 0. -1.
         -5    1    3    3    0  502 -0.53112099188E+02 -0.36680963510E+02  0.21376478502E+03  0.22333661563E+03  0.41800000000E+01 0. -1.
        -11    1    1    2    0    0 -0.22799465905E+02  0.84478981165E+02  0.47691728636E+03  0.48487793509E+03  0.00000000000E+00 0.  1.
         11    1    1    2    0    0  0.24860129908E+02  0.20465735719E+02  0.44237694786E+02  0.54716049177E+02  0.00000000000E+00 0. -1.
</event>
<event>
 7    1  0.2522928E-009  0.1127675E+03  0.7561462E-02  0.1255529E+00
          1   -1    0    0  501    0  0.00000000000E+00  0.00000000000E+00  0.31342163767E+03  0.31342163767E+03  0.00000000000E+00 0.  1.
         -1   -1    0    0    0  501 -0.00000000000E+00 -0.00000000000E+00 -0.45797817223E+02  0.45797817223E+02  0.00000000000E+00 0. -1.
         25    2    1    2    0    0 -0.35213816585E+02 -0.28808621246E+02  0.18205316542E+03  0.22552310959E+03  0.12508944153E+03 0.  0.
          5    1    3    3  502    0  0.11997832103E+01 -0.73519330697E+02  0.84176032918E+02  0.11184636062E+03  0.41800000000E+01 0.  1.
         -5    1    3    3    0  502 -0.36413599796E+02  0.44710709451E+02  0.97877132501E+02  0.11367674897E+03  0.41800000000E+01 0.  1.
        -11    1    1    2    0    0 -0.17587443648E+02 -0.16784571956E+02  0.13688111153E+01  0.24349818761E+02  0.00000000000E+00 0. -1.
         11    1    1    2    0    0  0.52801260234E+02  0.45593193202E+02  0.84201843912E+02  0.10934652654E+03  0.00000000000E+00 0.  1.
</event>
<event>
 7    1  0.2522928E-009  0.1236346E+03  0.7561462E-02  0.1237219E+00
         -3   -1    0    0    0  501 -0.00000000000E+00  0.00000000000E+00  0.30944499805E+03  0.30944499805E+03  0.00000000000E+00 0.  1.
          3   -1    0    0  501    0  0.00000000000E+00 -0.00000000000E+00 -0.65661924969E+02  0.65661924969E+02  0.00000000000E+00 0. -1.
         25    2    1    2    0    0 -0.60984253439E+02 -0.29191497604E+02  0.51791493910E+02  0.15132981598E+03  0.12508849533E+03 0.  0.
          5    1    3    3  502    0  0.43360708244E+01  0.43552276662E+02  0.21142008032E+02  0.48785850575E+02  0.41800000000E+01 0. -1.
         -5    1    3    3    0  502 -0.65320324263E+02 -0.72743774267E+02  0.30649485878E+02  0.10254396541E+03  0.41800000000E+01 0. -1.
        -11    1    1    2    0    0  0.35449924492E+02 -0.26446889635E+02  0.12705842345E+03  0.13453615903E+03  0.00000000000E+00 0. -1.
         11    1    1    2    0    0  0.25534328947E+02  0.55638387239E+02  0.64933155724E+02  0.89240948010E+02  0.00000000000E+00 0.  1.
</event>
<event>
 7    1  0.2872295E-009  0.1629005E+03  0.7561462E-02  0.1185460E+00
         -2   -1    0    0    0  501 -0.00000000000E+00  0.00000000000E+00  0.36249670353E+02  0.36249670353E+02  0.00000000000E+00 0.  1.
          2   -1    0    0  501    0  0.00000000000E+00 -0.00000000000E+00 -0.76840486623E+03  0.76840486623E+03  0.00000000000E+00 0. -1.
         25    2    1    2    0    0 -0.77633499547E+02 -0.93675762255E+02 -0.30474508562E+03  0.35116805045E+03  0.12508926317E+03 0.  0.
          5    1    3    3  502    0  0.32771240579E+02 -0.67888433042E+01 -0.66085005214E+02  0.74193954718E+02  0.41800000000E+01 0. -1.
         -5    1    3    3    0  502 -0.11040474013E+03 -0.86886918951E+02 -0.23866008040E+03  0.27697409573E+03  0.41800000000E+01 0. -1.
        -11    1    1    2    0    0  0.75006219087E+02  0.19773431917E+02 -0.22418706438E+03  0.23722723568E+03  0.00000000000E+00 0. -1.
         11    1    1    2    0    0  0.26272804610E+01  0.73902330338E+02 -0.20322304587E+03  0.21625925045E+03  0.00000000000E+00 0.  1.
</event>
<event>
 7    1  0.2522928E-009  0.1737006E+03  0.7561462E-02  0.1174043E+00
         -2   -1    0    0    0  501 -0.00000000000E+00  0.00000000000E+00  0.31974726587E+02  0.31974726587E+02  0.00000000000E+00 0.  1.
          2   -1    0    0  501    0  0.00000000000E+00 -0.00000000000E+00 -0.11928616637E+04  0.11928616637E+04  0.00000000000E+00 0. -1.
         25    2    1    2    0    0  0.54499313011E+02 -0.14731842542E+03 -0.64646871349E+03  0.67693587913E+03  0.12508994106E+03 0.  0.
          5    1    3    3  502    0  0.18584080009E+01 -0.56693108719E+02 -0.66264035851E+02  0.87326726171E+02  0.41800000000E+01 0.  1.
         -5    1    3    3    0  502  0.52640905010E+02 -0.90625316703E+02 -0.58020467764E+03  0.58960915296E+03  0.41800000000E+01 0.  1.
        -11    1    1    2    0    0  0.21530006161E+02  0.83932526450E+02 -0.19239821194E+03  0.21101014696E+03  0.00000000000E+00 0.  1.
         11    1    1    2    0    0 -0.76029319173E+02  0.63385898971E+02 -0.32202001173E+03  0.33689036424E+03  0.00000000000E+00 0. -1.
</event>
<event>
 7    1  0.2522928E-009  0.1029038E+03  0.7561462E-02  0.1274306E+00
          2   -1    0    0  501    0  0.00000000000E+00  0.00000000000E+00  0.91035528333E+02  0.91035528333E+02  0.00000000000E+00 0.  1.
         -2   -1    0    0    0  501 -0.00000000000E+00 -0.00000000000E+00 -0.25856577107E+03  0.25856577107E+03  0.00000000000E+00 0. -1.
         25    2    1    2    0    0 -0.99647321376E+02  0.30751113585E+01 -0.14145264019E+03  0.21353137743E+03  0.12509098594E+03 0.  0.
          5    1    3    3  502    0 -0.22183275596E+02  0.61918457326E+01  0.22284958121E+02  0.32319165029E+02  0.41800000000E+01 0.  1.
         -5    1    3    3    0  502 -0.77464045780E+02 -0.31167343741E+01 -0.16373759832E+03  0.18121221240E+03  0.41800000000E+01 0.  1.
        -11    1    1    2    0    0  0.85949214789E+01  0.95376391547E+01  0.27019486569E+02  0.29914743695E+02  0.00000000000E+00 0.  1.
         11    1    1    2    0    0  0.91052399898E+02 -0.12612750513E+02 -0.53097089111E+02  0.10615517828E+03  0.00000000000E+00 0. -1.
</event>
<event>
 7    1  0.2522928E-009  0.1306775E+03  0.7561462E-02  0.1226454E+00
          2   -1    0    0  501    0  0.00000000000E+00  0.00000000000E+00  0.49716332105E+03  0.49716332105E+03  0.00000000000E+00 0.  1.
         -2   -1    0    0    0  501 -0.00000000000E+00 -0.00000000000E+00 -0.58411841429E+02  0.58411841429E+02  0.00000000000E+00 0. -1.
         25    2    1    2    0    0  0.12897599053E+03  0.35548525980E+01  0.20388904621E+03  0.27178779953E+03  0.12510164548E+03 0.  0.
          5    1    3    3  502    0  0.40707955670E+02  0.14161549135E+02  0.17180808694E+03  0.17718120179E+03  0.41800000000E+01 0.  1.
         -5    1    3    3    0  502  0.88268034861E+02 -0.10606696537E+02  0.32080959267E+02  0.94606597747E+02  0.41800000000E+01 0.  1.
        -11    1    1    2    0    0 -0.25234834352E+02 -0.17174299338E+01 -0.18224392660E+01  0.25358779845E+02  0.00000000000E+00 0. -1.
         11    1    1    2    0    0 -0.10374115618E+03 -0.18374226642E+01  0.23668487268E+03  0.25842858310E+03  0.00000000000E+00 0.  1.
</event>
<event>
 7    1  0.2522928E-009  0.1024637E+03  0.7561462E-02  0.1275199E+00
         -1   -1    0    0    0  501 -0.00000000000E+00  0.00000000000E+00  0.17505772616E+03  0.17505772616E+03  0.00000000000E+00 0.  1.
          1   -1    0    0  501    0  0.00000000000E+00 -0.00000000000E+00 -0.13578939798E+03  0.13578939798E+03  0.00000000000E+00 0. -1.
         25    2    1    2    0    0  0.10445138171E+02 -0.18864590796E+02  0.12901546664E+03  0.18098872093E+03  0.12508778028E+03 0.  0.
          5    1    3    3  502    0 -0.25203615352E+02  0.45413937100E+02  0.65938015260E+02  0.84041312259E+02  0.41800000000E+01 0. -1.
         -5    1    3    3    0  502  0.35648753523E+02 -0.64278527896E+02  0.63077451376E+02  0.96947408672E+02  0.41800000000E+01 0. -1.
        -11    1    1    2    0    0 -0.43544094428E+02  0.73808083058E+01 -0.83231149658E+02  0.94223079785E+02  0.00000000000E+00 0.  1.
         11    1    1    2    0    0  0.33098956257E+02  0.11483782490E+02 -0.65159887902E+01  0.35635323423E+02  0.00000000000E+00 0. -1.
</event>
<event>
 7    1  0.2522928E-009  0.1143282E+03  0.7561462E-02  0.1252758E+00
          1   -1    0    0  501    0  0.00000000000E+00  0.00000000000E+00  0.13427635794E+03  0.13427635794E+03  0.00000000000E+00 0. -1.
         -1   -1    0    0    0  501 -0.00000000000E+00 -0.00000000000E+00 -0.15201598610E+03  0.15201598610E+03  0.00000000000E+00 0.  1.
         25    2    1    2    0    0 -0.38702648987E+02  0.50844783746E+02 -0.75068040766E+02  0.15926900265E+03  0.12509323478E+03 0.  0.
          5    1    3    3  502    0  0.78692575191E+01  0.66841984734E+02  0.22904235979E+01  0.67472176320E+02  0.41800000000E+01 0.  1.
         -5    1    3    3    0  502 -0.46571906507E+02 -0.15997200988E+02 -0.77358464364E+02  0.91796826328E+02  0.41800000000E+01 0.  1.
        -11    1    1    2    0    0 -0.30358028091E+02 -0.12691182225E+02  0.76325530601E+01  0.33777682603E+02  0.00000000000E+00 0.  1.
         11    1    1    2    0    0  0.69060677078E+02 -0.38153601520E+02  0.49695859550E+02  0.93245658794E+02  0.00000000000E+00 0. -1.
</event>
<event>
 7    1  0.2522928E-009  0.1050434E+03  0.7561462E-02  0.1270034E+00
         -2   -1    0    0    0  501 -0.00000000000E+00  0.00000000000E+00  0.52884854818E+02  0.52884854818E+02  0.00000000000E+00 0.  1.
          2   -1    0    0  501    0  0.00000000000E+00 -0.00000000000E+00 -0.23668007146E+03  0.23668007146E+03  0.00000000000E+00 0. -1.
         25    2    1    2    0    0  0.16445115117E+02 -0.61823172084E+01 -0.75376713788E+02  0.14714112820E+03  0.12514071987E+03 0.  0.
          5    1    3    3  502    0  0.11415551819E+01 -0.61101050918E+02 -0.13163160158E+02  0.62652875089E+02  0.41800000000E+01 0. -1.
         -5    1    3    3    0  502  0.15303559936E+02  0.54918733710E+02 -0.62213553630E+02  0.84488253114E+02  0.41800000000E+01 0. -1.
        -11    1    1    2    0    0 -0.53860544714E+02  0.79067120149E+00 -0.55014534751E+02  0.76994691192E+02  0.00000000000E+00 0. -1.
         11    1    1    2    0    0  0.37415429597E+02  0.53916460069E+01 -0.53403968107E+02  0.65429106888E+02  0.00000000000E+00 0.  1.
</event>
<event>
 7    1  0.2522928E-009  0.1430528E+03  0.7561462E-02  0.1209279E+00
         -4   -1    0    0    0  501 -0.00000000000E+00  0.00000000000E+00  0.55159366656E+03  0.55159366656E+03  0.00000000000E+00 0.  1.
          4   -1    0    0  501    0  0.00000000000E+00 -0.00000000000E+00 -0.52776708756E+02  0.52776708756E+02  0.00000000000E+00 0. -1.
         25    2    1    2    0    0  0.25820646894E+02  0.12685057961E+03  0.21857410289E+03  0.28316117506E+03  0.12509131567E+03 0.  0.
          5    1    3    3  502    0  0.12452652122E+02  0.76587595793E+02  0.23429404866E+02  0.81161183990E+02  0.41800000000E+01 0. -1.
         -5    1    3    3    0  502  0.13367994772E+02  0.50262983815E+02  0.19514469802E+03  0.20199999107E+03  0.41800000000E+01 0. -1.
        -11    1    1    2    0    0 -0.56035878996E+02 -0.56112894630E+02  0.12658529128E+03  0.14937373480E+03  0.00000000000E+00 0.  1.
         11    1    1    2    0    0  0.30215232103E+02 -0.70737684978E+02  0.15365756364E+03  0.17183546546E+03  0.00000000000E+00 0. -1.
</event>
<event>
 7    1  0.2522928E-009  0.1657206E+03  0.7561462E-02  0.1182385E+00
         -2   -1    0    0    0  501 -0.00000000000E+00  0.00000000000E+00  0.25178452014E+03  0.25178452014E+03  0.00000000000E+00 0.  1.
          2   -1    0    0  501    0  0.00000000000E+00 -0.00000000000E+00 -0.12172710166E+03  0.12172710166E+03  0.00000000000E+00 0. -1.
         25    2    1    2    0    0  0.11139642037E+03  0.79607195934E+02  0.53912834885E+02  0.19312979404E+03  0.12508419351E+03 0.  0.
          5    1    3    3  502    0  0.12888006726E+03  0.61281956231E+02  0.11086092205E+02  0.14319889572E+03  0.41800000000E+01 0. -1.
         -5    1    3    3    0  502 -0.17483646886E+02  0.18325239704E+02  0.42826742680E+02  0.49930898322E+02  0.41800000000E+01 0. -1.
        -11    1    1    2    0    0 -0.89609989923E+02 -0.99214362126E+02  0.56761739895E+02  0.14524233220E+03  0.00000000000E+00 0.  1.
         11    1    1    2    0    0 -0.21786430447E+02  0.19607166192E+02  0.19382843702E+02  0.35139495552E+02  0.00000000000E+00 0. -1.
</event>
<event>
 7    1  0.2522928E-009  0.9127754E+02  0.7561462E-02  0.1299787E+00
         -2   -1    0    0    0  501 -0.00000000000E+00  0.00000000000E+00  0.71414035276E+02  0.71414035276E+02  0.00000000000E+00 0.  1.
          2   -1    0    0  501    0  0.00000000000E+00 -0.00000000000E+00 -0.19647669625E+03  0.19647669625E+03  0.00000000000E+00 0. -1.
         25    2    1    2    0    0  0.16859042733E+02 -0.44723003738E+02 -0.80224761151E+02  0.15609964012E+03  0.12508681369E+03 0.  0.
          5    1    3    3  502    0 -0.35726552481E+01 -0.63590019515E+02  0.72289447883E+01  0.64235383475E+02  0.41800000000E+01 0.  1.
         -5    1    3    3    0  502  0.20431697981E+02  0.18867015777E+02 -0.87453705939E+02  0.91864256646E+02  0.41800000000E+01 0.  1.
        -11    1    1    2    0    0  0.25091622472E+02  0.41544779970E+02  0.23261049651E+01  0.48589803718E+02  0.00000000000E+00 0.  1.
         11    1    1    2    0    0 -0.41950665205E+02  0.31782237683E+01 -0.47164004787E+02  0.63201287685E+02  0.00000000000E+00 0. -1.
</event>
<event>
 7    1  0.2522928E-009  0.1524439E+03  0.7561462E-02  0.1197502E+00
          2   -1    0    0  501    0  0.00000000000E+00  0.00000000000E+00  0.14410136815E+04  0.14410136815E+04  0.00000000000E+00 0. -1.
         -2   -1    0    0    0  501 -0.00000000000E+00 -0.00000000000E+00 -0.22017537047E+02  0.22017537047E+02  0.00000000000E+00 0.  1.
         25    2    1    2    0    0 -0.12302150848E+03 -0.61895899847E+02  0.63053034153E+03  0.65740488469E+03  0.12508907569E+03 0.  0.
          5    1    3    3  502    0 -0.11381819555E+03 -0.45666889713E+02  0.27238125490E+03  0.29874582319E+03  0.41800000000E+01 0. -1.
         -5    1    3    3    0  502 -0.92033129231E+01 -0.16229010134E+02  0.35814908663E+03  0.35865906150E+03  0.41800000000E+01 0. -1.
        -11    1    1    2    0    0  0.12875264041E+03  0.74825511490E+02  0.75004205404E+03  0.76468240624E+03  0.00000000000E+00 0. -1.
         11    1    1    2    0    0 -0.57311319306E+01 -0.12929611642E+02  0.38423748831E+02  0.40943927568E+02  0.00000000000E+00 0.  1.
</event>
<event>
 7    1  0.2522928E-009  0.1257256E+03  0.7561462E-02  0.1233940E+00
         -2   -1    0    0    0  501 -0.00000000000E+00  0.00000000000E+00  0.24888625700E+03  0.24888625700E+03  0.00000000000E+00 0.  1.
          2   -1    0    0  501    0  0.00000000000E+00 -0.00000000000E+00 -0.82334048781E+02  0.82334048781E+02  0.00000000000E+00 0. -1.
         25    2    1    2    0    0  0.65506686018E+02 -0.59060511504E+02  0.64422935049E+02  0.16606647436E+03  0.12509392237E+03 0.  0.
          5    1    3    3  502    0  0.10333474650E+02 -0.78345565686E+02  0.20736731516E+00  0.79134845437E+02  0.41800000000E+01 0. -1.
         -5    1    3    3    0  502  0.55173211367E+02  0.19285054182E+02  0.64215567734E+02  0.86931628920E+02  0.41800000000E+01 0. -1.
        -11    1    1    2    0    0 -0.23867439999E+02  0.67183157416E+02  0.99819525466E+02  0.12266690261E+03  0.00000000000E+00 0.  1.
         11    1    1    2    0    0 -0.41639246018E+02 -0.81226459117E+01  0.23097477080E+01  0.42486928814E+02  0.00000000000E+00 0. -1.
</event>
<event>
 7    1  0.2522928E-009  0.1597451E+03  0.7561462E-02  0.1188985E+00
         -2   -1    0    0    0  501 -0.00000000000E+00  0.00000000000E+00  0.76069842490E+02  0.76069842490E+02  0.00000000000E+00 0. -1.
          2   -1    0    0  501    0  0.00000000000E+00 -0.00000000000E+00 -0.47226350323E+03  0.47226350323E+03  0.00000000000E+00 0.  1.
         25    2    1    2    0    0  0.12070967500E+03  0.67546888729E+02 -0.10790794212E+03  0.21546532374E+03  0.12509106261E+03 0.  0.
          5    1    3    3  502    0 -0.66084596110E+01 -0.18363906623E+01 -0.63152537823E+02  0.63661287315E+02  0.41800000000E+01 0. -1.
         -5    1    3    3    0  502  0.12731813461E+03  0.69383279392E+02 -0.44755404299E+02  0.15180403642E+03  0.41800000000E+01 0. -1.
        -11    1    1    2    0    0 -0.92259895768E+02  0.91395479246E+00 -0.15810164985E+03  0.18305424159E+03  0.00000000000E+00 0. -1.
         11    1    1    2    0    0 -0.28449779230E+02 -0.68460843522E+02 -0.13018406877E+03  0.14981378039E+03  0.00000000000E+00 0.  1.
</event>
<event>
 7    1  0.2522928E-009  0.1252035E+03  0.7561462E-02  0.1234752E+00
         -2   -1    0    0    0  501 -0.00000000000E+00  0.00000000000E+00  0.64378953144E+02  0.64378953144E+02  0.00000000000E+00 0.  1.
          2   -1    0    0  501    0  0.00000000000E+00 -0.00000000000E+00 -0.28440624434E+03  0.28440624434E+03  0.00000000000E+00 0. -1.
         25    2    1    2    0    0 -0.49692546059E+02 -0.62310895426E+02 -0.11804236725E+03  0.18956113709E+03  0.12508967745E+03 0.  0.
          5    1    3    3  502    0  0.30858190169E+02 -0.22618332598E+02 -0.85835742483E+02  0.94069463470E+02  0.41800000000E+01 0. -1.
         -5    1    3    3    0  502 -0.80550736228E+02 -0.39692562828E+02 -0.32206624772E+02  0.95491673616E+02  0.41800000000E+01 0. -1.
        -11    1    1    2    0    0  0.64454670807E+02  0.77528238789E+02 -0.80243748334E+02  0.12885686456E+03  0.00000000000E+00 0.  1.
         11    1    1    2    0    0 -0.14762124749E+02 -0.15217343362E+02 -0.21741175611E+02  0.30367195838E+02  0.00000000000E+00 0. -1.
</event>
<event>
 7    1  0.2522928E-009  0.1087902E+03  0.7561462E-02  0.1262827E+00
         -2   -1    0    0    0  501 -0.00000000000E+00  0.00000000000E+00  0.20666653893E+02  0.20666653893E+02  0.00000000000E+00 0.  1.
          2   -1    0    0  501    0  0.00000000000E+00 -0.00000000000E+00 -0.79638380976E+03  0.79638380976E+03  0.00000000000E+00 0. -1.
         25    2    1    2    0    0  0.26102031690E+01  0.33542653590E+02 -0.61419672553E+03  0.62770689944E+03  0.12508561544E+03 0.  0.
          5    1    3    3  502    0  0.10022363229E+01 -0.43347402596E+02 -0.34400364560E+03  0.34675060544E+03  0.41800000000E+01 0. -1.
         -5    1    3    3    0  502  0.16079668461E+01  0.76890056187E+02 -0.27019307993E+03  0.28095629400E+03  0.41800000000E+01 0. -1.
        -11    1    1    2    0    0 -0.50671498157E+01 -0.65125189392E+02 -0.90828172144E+02  0.11187816210E+03  0.00000000000E+00 0.  1.
         11    1    1    2    0    0  0.24569466468E+01  0.31582535802E+02 -0.70692258193E+02  0.77465402103E+02  0.00000000000E+00 0. -1.
</event>
<event>
 7    1  0.2522928E-009  0.1309591E+03  0.7561462E-02  0.1226039E+00
         -2   -1    0    0    0  501 -0.00000000000E+00  0.00000000000E+00  0.14881475948E+03  0.14881475948E+03  0.00000000000E+00 0.  1.
          2   -1    0    0  501    0  0.00000000000E+00 -0.00000000000E+00 -0.23524839414E+03  0.23524839414E+03  0.00000000000E+00 0. -1.
         25    2    1    2    0    0 -0.12123669979E+02  0.10194508913E+03  0.60892415949E+02  0.17291229608E+03  0.12510392177E+03 0.  0.
          5    1    3    3  502    0 -0.29790676961E+02 -0.38380732052E+01 -0.21861057111E+02  0.37384401262E+02  0.41800000000E+01 0. -1.
         -5    1    3    3    0  502  0.17667006981E+02  0.10578316234E+03  0.82753473060E+02  0.13552789482E+03  0.41800000000E+01 0. -1.
        -11    1    1    2    0    0  0.89009797807E+00 -0.11027412404E+03 -0.65762969489E+02  0.12839759680E+03  0.00000000000E+00 0.  1.
         11    1    1    2    0    0  0.11233572001E+02  0.83290349115E+01 -0.81563081113E+02  0.82753260740E+02  0.00000000000E+00 0. -1.
</event>
<event>
 7    1  0.2522928E-009  0.1060788E+03  0.7561462E-02  0.1268009E+00
         -1   -1    0    0    0  501 -0.00000000000E+00  0.00000000000E+00  0.20548140220E+02  0.20548140220E+02  0.00000000000E+00 0.  1.
          1   -1    0    0  501    0  0.00000000000E+00 -0.00000000000E+00 -0.13140542723E+04  0.13140542723E+04  0.00000000000E+00 0. -1.
         25    2    1    2    0    0  0.45455640529E+02 -0.39346376710E+02 -0.10404039020E+04  0.10496164259E+04  0.12506002395E+03 0.  0.
          5    1    3    3  502    0  0.20879641758E+02  0.16725600549E+02 -0.46419171195E+02  0.53739343204E+02  0.41800000000E+01 0. -1.
         -5    1    3    3    0  502  0.24575998771E+02 -0.56071977258E+02 -0.99398473082E+03  0.99587708270E+03  0.41800000000E+01 0. -1.
        -11    1    1    2    0    0 -0.76683141806E+02  0.49035075378E+02 -0.13787477808E+03  0.16520955567E+03  0.00000000000E+00 0.  1.
         11    1    1    2    0    0  0.31227501277E+02 -0.96886986678E+01 -0.11522745196E+03  0.11977643091E+03  0.00000000000E+00 0. -1.
</event>
<event>
 7    1  0.2522928E-009  0.5839470E+02  0.7561462E-02  0.1404695E+00
         -3   -1    0    0    0  501 -0.00000000000E+00  0.00000000000E+00  0.94893030970E+02  0.94893030970E+02  0.00000000000E+00 0.  1.
          3   -1    0    0  501    0  0.00000000000E+00 -0.00000000000E+00 -0.23185169048E+03  0.23185169048E+03  0.00000000000E+00 0. -1.
         25    2    1    2    0    0 -0.16725010654E+02  0.54958990144E+02 -0.16549631586E+03  0.21525715800E+03  0.12508555844E+03 0.  0.
          5    1    3    3  502    0 -0.48935985104E+01  0.18864495519E+02  0.18584369163E+02  0.27251929744E+02  0.41800000000E+01 0.  1.
         -5    1    3    3    0  502 -0.11831412143E+02  0.36094494625E+02 -0.18408068502E+03  0.18800522826E+03  0.41800000000E+01 0.  1.
        -11    1    1    2    0    0  0.84662642036E+01 -0.44595898366E+02  0.61224809928E+02  0.76216462338E+02  0.00000000000E+00 0.  1.
         11    1    1    2    0    0  0.82587464500E+01 -0.10363091778E+02 -0.32687153585E+02  0.35271101112E+02  0.00000000000E+00 0. -1.
</event>
<event>
 7    1  0.2661429E-009  0.1065227E+03  0.7561462E-02  0.1267148E+00
          2   -1    0    0  501    0  0.00000000000E+00  0.00000000000E+00  0.58892905488E+02  0.58892905488E+02  0.00000000000E+00 0. -1.
         -2   -1    0    0    0  501 -0.00000000000E+00 -0.00000000000E+00 -0.34463649882E+03  0.34463649882E+03  0.00000000000E+00 0.  1.
         25    2    1    2    0    0  0.69692015379E+02 -0.56964791847E+02 -0.12787139035E+03  0.20025311430E+03  0.12509297662E+03 0.  0.
          5    1    3    3  502    0 -0.46421147161E+01  0.65228853302E+01 -0.97335404452E+02  0.97753519742E+02  0.41800000000E+01 0. -1.
         -5    1    3    3    0  502  0.74334130096E+02 -0.63487677177E+02 -0.30535985897E+02  0.10249959456E+03  0.41800000000E+01 0. -1.
        -11    1    1    2    0    0 -0.31760997419E+02 -0.63230407346E+01 -0.11155188240E+03  0.11615749769E+03  0.00000000000E+00 0.  1.
         11    1    1    2    0    0 -0.37931017961E+02  0.63287832582E+02 -0.46320320579E+02  0.87118792318E+02  0.00000000000E+00 0. -1.
</event>
<event>
 7    1  0.2522928E-009  0.9083558E+02  0.7561462E-02  0.1300841E+00
          2   -1    0    0  501    0  0.00000000000E+00  0.00000000000E+00  0.25097988069E+03  0.25097988069E+03  0.00000000000E+00 0. -1.
         -2   -1    0    0    0  501 -0.00000000000E+00 -0.00000000000E+00 -0.73366716038E+02  0.73366716038E+02  0.00000000000E+00 0.  1.
         25    2    1    2    0    0 -0.23659347189E+02  0.17814500589E+02  0.18744201936E+03  0.22728702082E+03  0.12509099915E+03 0.  0.
          5    1    3    3  502    0 -0.37192676589E+01 -0.44993519855E+02  0.13666862700E+03  0.14399317965E+03  0.41800000000E+01 0. -1.
         -5    1    3    3    0  502 -0.19940079530E+02  0.62808020445E+02  0.50773392360E+02  0.83293841162E+02  0.41800000000E+01 0. -1.
        -11    1    1    2    0    0  0.24567800251E+02  0.20487066905E+02 -0.37876843529E+02  0.49577736892E+02  0.00000000000E+00 0.  1.
         11    1    1    2    0    0 -0.90845306188E+00 -0.38301567495E+02  0.28047988818E+02  0.47481839015E+02  0.00000000000E+00 0. -1.
</event>
<event>
 7    1  0.2522928E-009  0.1317907E+03  0.7561462E-02  0.1224823E+00
         -1   -1    0    0    0  501 -0.00000000000E+00  0.00000000000E+00  0.94711772577E+02  0.94711772577E+02  0.00000000000E+00 0.  1.
          1   -1    0    0  501    0  0.00000000000E+00 -0.00000000000E+00 -0.35916289178E+03  0.35916289178E+03  0.00000000000E+00 0. -1.
         25    2    1    2    0    0  0.19540353139E+02  0.11320466589E+03 -0.22427721741E+02  0.17131140433E+03  0.12508985879E+03 0.  0.
          5    1    3    3  502    0  0.30613336974E+02  0.31849737403E+02  0.46318818089E+02  0.64144270847E+02  0.41800000000E+01 0. -1.
         -5    1    3    3    0  502 -0.11072983836E+02  0.81354928489E+02 -0.68746539831E+02  0.10716713348E+03  0.41800000000E+01 0. -1.
        -11    1    1    2    0    0  0.15641820779E+02 -0.97014334709E+02 -0.12321561210E+03  0.15760245798E+03  0.00000000000E+00 0.  1.
         11    1    1    2    0    0 -0.35182173918E+02 -0.16190331182E+02 -0.11880778536E+03  0.12496080205E+03  0.00000000000E+00 0. -1.
</event>
<event>
 7    1  0.2522928E-009  0.1000324E+03  0.7561462E-02  0.1280228E+00
         -1   -1    0    0    0  501 -0.00000000000E+00  0.00000000000E+00  0.10137805735E+02  0.10137805735E+02  0.00000000000E+00 0.  1.
          1   -1    0    0  501    0  0.00000000000E+00 -0.00000000000E+00 -0.15881314142E+04  0.15881314142E+04  0.00000000000E+00 0. -1.
         25    2    1    2    0    0 -0.47768001082E+02 -0.36600046981E+02 -0.13191238093E+04  0.13264070647E+04  0.12508689612E+03 0.  0.
          5    1    3    3  502    0 -0.98589870242E+01 -0.67754109110E+02 -0.10846879107E+04  0.10868547073E+04  0.41800000000E+01 0.  1.
         -5    1    3    3    0  502 -0.37909014057E+02  0.31154062129E+02 -0.23443589869E+03  0.23955235739E+03  0.41800000000E+01 0.  1.
        -11    1    1    2    0    0  0.27015929403E+02  0.50482276917E+02 -0.16176841908E+03  0.17160227894E+03  0.00000000000E+00 0.  1.
         11    1    1    2    0    0  0.20752071678E+02 -0.13882229936E+02 -0.97101380039E+02  0.10025987628E+03  0.00000000000E+00 0. -1.
</event>
<event>
 7    1  0.2522928E-009  0.7579066E+02  0.7561462E-02  0.1341440E+00
          1   -1    0    0  501    0  0.00000000000E+00  0.00000000000E+00  0.20716780943E+03  0.20716780943E+03  0.00000000000E+00 0. -1.
         -1   -1    0    0    0  501 -0.00000000000E+00 -0.00000000000E+00 -0.76191497959E+02  0.76191497959E+02  0.00000000000E+00 0.  1.
         25    2    1    2    0    0  0.77870015664E+01 -0.14735808647E+02  0.40973540116E+01  0.12626709036E+03  0.12509519715E+03 0.  0.
          5    1    3    3  502    0 -0.14745634237E+01  0.24285789280E+02 -0.51777627115E+02  0.57361737839E+02  0.41800000000E+01 0. -1.
         -5    1    3    3    0  502  0.92615649901E+01 -0.39021597927E+02  0.55874981127E+02  0.68905352526E+02  0.41800000000E+01 0. -1.
        -11    1    1    2    0    0  0.37716147541E+02  0.16192173682E+02  0.32670476939E+02  0.52460026090E+02  0.00000000000E+00 0.  1.
         11    1    1    2    0    0 -0.45503149108E+02 -0.14563650351E+01  0.94208480518E+02  0.10463219093E+03  0.00000000000E+00 0. -1.
</event>
<event>
 7    1  0.2522928E-009  0.1085331E+03  0.7561462E-02  0.1263311E+00
         -1   -1    0    0    0  501 -0.00000000000E+00  0.00000000000E+00  0.27141082474E+03  0.27141082474E+03  0.00000000000E+00 0.  1.
          1   -1    0    0  501    0  0.00000000000E+00 -0.00000000000E+00 -0.54746645442E+02  0.54746645442E+02  0.00000000000E+00 0. -1.
         25    2    1    2    0    0 -0.71437345033E+01  0.55344443418E+02  0.12651188089E+03  0.18645692559E+03  0.12508752429E+03 0.  0.
          5    1    3    3  502    0 -0.40741180262E+02 -0.18110431547E+02  0.12178823965E+02  0.46407193980E+02  0.41800000000E+01 0. -1.
         -5    1    3    3    0  502  0.33597445759E+02  0.73454874965E+02  0.11433305693E+03  0.14004973161E+03  0.41800000000E+01 0. -1.
        -11    1    1    2    0    0 -0.29826656205E+02 -0.71665650982E+01  0.68798427896E+02  0.75327370568E+02  0.00000000000E+00 0.  1.
         11    1    1    2    0    0  0.36970390708E+02 -0.48177878319E+02  0.21353870514E+02  0.64373174028E+02  0.00000000000E+00 0. -1.
</event>
<event>
 7    1  0.2522928E-009  0.1043311E+03  0.7561462E-02  0.1271443E+00
          1   -1    0    0  501    0  0.00000000000E+00  0.00000000000E+00  0.23828294992E+03  0.23828294992E+03  0.00000000000E+00 0. -1.
         -1   -1    0    0    0  501 -0.00000000000E+00 -0.00000000000E+00 -0.70951855030E+02  0.70951855030E+02  0.00000000000E+00 0.  1.
         25    2    1    2    0    0 -0.11230667766E+00 -0.50334980147E+02  0.34328854385E+02  0.13913868384E+03  0.12508988872E+03 0.  0.
          5    1    3    3  502    0 -0.46578670453E+02 -0.47625225323E+02 -0.17848862652E+02  0.69092611227E+02  0.41800000000E+01 0.  1.
         -5    1    3    3    0  502  0.46466363776E+02 -0.27097548245E+01  0.52177717037E+02  0.70046072616E+02  0.41800000000E+01 0.  1.
        -11    1    1    2    0    0  0.37180463017E+02  0.43951702848E+02  0.11454496226E+03  0.12819784472E+03  0.00000000000E+00 0. -1.
         11    1    1    2    0    0 -0.37068156339E+02  0.63832772992E+01  0.18457278245E+02  0.41898276381E+02  0.00000000000E+00 0.  1.
</event>
<event>
 7    1  0.2522928E-009  0.9516745E+02  0.7561462E-02  0.1290799E+00
          1   -1    0    0  501    0  0.00000000000E+00  0.00000000000E+00  0.43929333855E+02  0.43929333855E+02  0.00000000000E+00 0. -1.
         -1   -1    0    0    0  501 -0.00000000000E+00 -0.00000000000E+00 -0.32737237140E+03  0.32737237140E+03  0.00000000000E+00 0.  1.
         25    2    1    2    0    0 -0.53341120160E+02 -0.81765011217E+01 -0.16338820806E+03  0.21273156085E+03  0.12508749009E+03 0.  0.
          5    1    3    3  502    0 -0.71020019186E+02 -0.52136861328E+02 -0.11434733018E+03  0.14441218700E+03  0.41800000000E+01 0. -1.
         -5    1    3    3    0  502  0.17678899026E+02  0.43960360206E+02 -0.49040877880E+02  0.68319373851E+02  0.41800000000E+01 0. -1.
        -11    1    1    2    0    0  0.39178404608E+02  0.23382020549E+01 -0.13290263687E+03  0.13857678545E+03  0.00000000000E+00 0.  1.
         11    1    1    2    0    0  0.14162715552E+02  0.58382990668E+01  0.12847807388E+02  0.19993358960E+02  0.00000000000E+00 0. -1.
</event>
<event>
 7    1  0.3721397E-009  0.9338823E+02  0.7561462E-02  0.1294848E+00
         -2   -1    0    0    0  501 -0.00000000000E+00  0.00000000000E+00  0.39213162532E+02  0.39213162532E+02  0.00000000000E+00 0.  1.
          2   -1    0    0  501    0  0.00000000000E+00 -0.00000000000E+00 -0.46886739282E+03  0.46886739282E+03  0.00000000000E+00 0. -1.
         25    2    1    2    0    0 -0.77663196570E+02 -0.23519282789E+02 -0.24420500873E+03  0.28612679236E+03  0.12509087198E+03 0.  0.
          5    1    3    3  502    0 -0.41667674684E+02 -0.71040854982E+01 -0.24262343579E+03  0.24631335153E+03  0.41800000000E+01 0. -1.
         -5    1    3    3    0  502 -0.35995521886E+02 -0.16415197291E+02 -0.15815729350E+01  0.39813440832E+02  0.41800000000E+01 0. -1.
        -11    1    1    2    0    0  0.50889778252E+01  0.31133595033E+02 -0.11950635916E+03  0.12360003363E+03  0.00000000000E+00 0. -1.
         11    1    1    2    0    0  0.72574218745E+02 -0.76143122441E+01 -0.65942862403E+02  0.98353729361E+02  0.00000000000E+00 0.  1.
</event>
<event>
 7    1  0.2522928E-009  0.1149716E+03  0.7561462E-02  0.1251631E+00
          1   -1    0    0  501    0  0.00000000000E+00  0.00000000000E+00  0.20827530087E+03  0.20827530087E+03  0.00000000000E+00 0. -1.
         -1   -1    0    0    0  501 -0.00000000000E+00 -0.00000000000E+00 -0.10318887774E+03  0.10318887774E+03  0.00000000000E+00 0.  1.
         25    2    1    2    0    0 -0.23687293994E+02 -0.91852254496E+02  0.28849413381E+02  0.15961713301E+03  0.12508963165E+03 0.  0.
          5    1    3    3  502    0  0.29751104822E+02 -0.46166479010E+02  0.61006766586E+02  0.82193491176E+02  0.41800000000E+01 0. -1.
         -5    1    3    3    0  502 -0.53438398816E+02 -0.45685775487E+02 -0.32157353205E+02  0.77423641835E+02  0.41800000000E+01 0. -1.
        -11    1    1    2    0    0 -0.12765957449E+02  0.30558422812E+02  0.73343288504E+02  0.80473752510E+02  0.00000000000E+00 0. -1.
         11    1    1    2    0    0  0.36453251443E+02  0.61293831684E+02  0.28937212488E+01  0.71373293086E+02  0.00000000000E+00 0.  1.
</event>
<event>
 7    1  0.2522928E-009  0.1526500E+03  0.7561462E-02  0.1197254E+00
          2   -1    0    0  501    0  0.00000000000E+00  0.00000000000E+00  0.68808032546E+02  0.68808032546E+02  0.00000000000E+00 0. -1.
         -2   -1    0    0    0  501 -0.00000000000E+00 -0.00000000000E+00 -0.37872976184E+03  0.37872976184E+03  0.00000000000E+00 0.  1.
         25    2    1    2    0    0 -0.11525207642E+03  0.30263170557E+02 -0.15371657693E+03  0.23124682549E+03  0.12508959855E+03 0.  0.
          5    1    3    3  502    0  0.18259563903E+02 -0.24322565475E+01 -0.64770993698E+02  0.67469115678E+02  0.41800000000E+01 0. -1.
         -5    1    3    3    0  502 -0.13351164032E+03  0.32695427104E+02 -0.88945583234E+02  0.16377770981E+03  0.41800000000E+01 0. -1.
        -11    1    1    2    0    0  0.12784899390E+03 -0.14434482414E+02 -0.12716613985E+03  0.18090037769E+03  0.00000000000E+00 0. -1.
         11    1    1    2    0    0 -0.12596917479E+02 -0.15828688142E+02 -0.29039012518E+02  0.35390591212E+02  0.00000000000E+00 0.  1.
</event>
<event>
 7    1  0.2522928E-009  0.1911294E+03  0.7561462E-02  0.1157447E+00
          2   -1    0    0  501    0  0.00000000000E+00  0.00000000000E+00  0.13382384336E+04  0.13382384336E+04  0.00000000000E+00 0. -1.
         -2   -1    0    0    0  501 -0.00000000000E+00 -0.00000000000E+00 -0.29769318374E+02  0.29769318374E+02  0.00000000000E+00 0.  1.
         25    2    1    2    0    0  0.16222971996E+03 -0.19481725035E+02  0.56610056381E+03  0.60234377429E+03  0.12510057726E+03 0.  0.
          5    1    3    3  502    0  0.46356197193E+02 -0.57189507144E+02  0.31073652681E+03  0.31936530531E+03  0.41800000000E+01 0.  1.
         -5    1    3    3    0  502  0.11587352277E+03  0.37707782109E+02  0.25536403700E+03  0.28297846897E+03  0.41800000000E+01 0.  1.
        -11    1    1    2    0    0 -0.13645681085E+03  0.51183399555E+02  0.54806914420E+03  0.56711549833E+03  0.00000000000E+00 0.  1.
         11    1    1    2    0    0 -0.25772909111E+02 -0.31701674519E+02  0.19429940727E+03  0.19854847941E+03  0.00000000000E+00 0. -1.
</event>
<event>
 7    1  0.2620212E-009  0.1317000E+03  0.7561462E-02  0.1224955E+00
          1   -1    0    0  501    0  0.00000000000E+00  0.00000000000E+00  0.42949598275E+03  0.42949598275E+03  0.00000000000E+00 0. -1.
         -1   -1    0    0    0  501 -0.00000000000E+00 -0.00000000000E+00 -0.77827147637E+02  0.77827147637E+02  0.00000000000E+00 0.  1.
         25    2    1    2    0    0 -0.10042378767E+03 -0.68455942462E+02  0.71513940198E+02  0.18850335750E+03  0.12509244164E+03 0.  0.
          5    1    3    3  502    0 -0.70486455077E+02 -0.30492514417E+02 -0.24668546347E+02  0.80772169487E+02  0.41800000000E+01 0.  1.
         -5    1    3    3    0  502 -0.29937332593E+02 -0.37963428045E+02  0.96182486545E+02  0.10773118801E+03  0.41800000000E+01 0.  1.
        -11    1    1    2    0    0  0.82403169608E+02  0.17951187479E+02  0.23160963799E+03  0.24648641322E+03  0.00000000000E+00 0. -1.
         11    1    1    2    0    0  0.18020618063E+02  0.50504754983E+02  0.48545256931E+02  0.72333359674E+02  0.00000000000E+00 0.  1.
</event>
<event>
 7    1  0.2522928E-009  0.9556069E+02  0.7561462E-02  0.1289918E+00
          2   -1    0    0  501    0  0.00000000000E+00  0.00000000000E+00  0.19749467413E+03  0.19749467413E+03  0.00000000000E+00 0.  1.
         -2   -1    0    0    0  501 -0.00000000000E+00 -0.00000000000E+00 -0.83501008583E+02  0.83501008583E+02  0.00000000000E+00 0. -1.
         25    2    1    2    0    0  0.36446039080E+02  0.59778171400E+02  0.63112238201E+02  0.15662977770E+03  0.12509192264E+03 0.  0.
          5    1    3    3  502    0  0.37390301443E+02 -0.18995419760E+02  0.65287581150E+02  0.77709724400E+02  0.41800000000E+01 0.  1.
         -5    1    3    3    0  502 -0.94426236306E+00  0.78773591159E+02 -0.21753429486E+01  0.78920053298E+02  0.41800000000E+01 0.  1.
        -11    1    1    2    0    0 -0.22455903048E+02 -0.33813747379E+02  0.75649712965E+02  0.85851710322E+02  0.00000000000E+00 0.  1.
         11    1    1    2    0    0 -0.13990136032E+02 -0.25964424020E+02 -0.24768285615E+02  0.38514194698E+02  0.00000000000E+00 0. -1.
</event>
<event>
 7    1  0.2522928E-009  0.1073199E+03  0.7561462E-02  0.1265615E+00
          4   -1    0    0  501    0  0.00000000000E+00  0.00000000000E+00  0.16112214970E+03  0.16112214970E+03  0.00000000000E+00 0. -1.
         -4   -1    0    0    0  501 -0.00000000000E+00 -0.00000000000E+00 -0.79880202773E+02  0.79880202773E+02  0.00000000000E+00 0.  1.
         25    2    1    2    0    0 -0.24353199415E+02 -0.24775784830E+02  0.45039431686E+02  0.13741501822E+03  0.12508964381E+03 0.  0.
          5    1    3    3  502    0 -0.36152195993E+02 -0.67826332931E+02  0.50781863394E+02  0.92215306559E+02  0.41800000000E+01 0. -1.
         -5    1    3    3    0  502  0.11798996578E+02  0.43050548102E+02 -0.57424317078E+01  0.45199711658E+02  0.41800000000E+01 0. -1.
        -11    1    1    2    0    0 -0.93527271688E+01 -0.28385762379E+02 -0.20027618363E+01  0.29953899016E+02  0.00000000000E+00 0.  1.
         11    1    1    2    0    0  0.33705926584E+02  0.53161547208E+02  0.38205277074E+02  0.73633435237E+02  0.00000000000E+00 0. -1.
</event>
<event>
 7    1  0.2522928E-009  0.1180050E+03  0.7561462E-02  0.1246425E+00
         -3   -1    0    0    0  501 -0.00000000000E+00  0.00000000000E+00  0.57307172098E+02  0.57307172098E+02  0.00000000000E+00 0.  1.
          3   -1    0    0  501    0  0.00000000000E+00 -0.00000000000E+00 -0.32590970063E+03  0.32590970063E+03  0.00000000000E+00 0. -1.
         25    2    1    2    0    0  0.19869099562E+02 -0.62270779540E+02 -0.21541735744E+03  0.25753609438E+03  0.12509105051E+03 0.  0.
          5    1    3    3  502    0  0.64168041293E+02 -0.53458104606E+02 -0.18471603650E+03  0.20276289851E+03  0.41800000000E+01 0.  1.
         -5    1    3    3    0  502 -0.44298941731E+02 -0.88126749334E+01 -0.30701320937E+02  0.54773195864E+02  0.41800000000E+01 0.  1.
        -11    1    1    2    0    0 -0.21844087445E+02  0.83192428914E+02 -0.58479333660E+02  0.10400950365E+03  0.00000000000E+00 0. -1.
         11    1    1    2    0    0  0.19749878829E+01 -0.20921649374E+02  0.52941625694E+01  0.21671274697E+02  0.00000000000E+00 0.  1.
</event>
<event>
 7    1  0.2522928E-009  0.1136945E+03  0.7561462E-02  0.1253877E+00
         -1   -1    0    0    0  501 -0.00000000000E+00  0.00000000000E+00  0.50843120919E+02  0.50843120919E+02  0.00000000000E+00 0.  1.
          1   -1    0    0  501    0  0.00000000000E+00 -0.00000000000E+00 -0.38682326264E+03  0.38682326264E+03  0.00000000000E+00 0. -1.
         25    2    1    2    0    0  0.70813216230E+02  0.89322172877E+01 -0.23340825933E+03  0.27426464108E+03  0.12508949486E+03 0.  0.
          5    1    3    3  502    0  0.35204282971E+01  0.32439983192E+02 -0.29855068221E+01  0.33032280816E+02  0.41800000000E+01 0.  1.
         -5    1    3    3    0  502  0.67292787933E+02 -0.23507765904E+02 -0.23042275251E+03  0.24123236026E+03  0.41800000000E+01 0.  1.
        -11    1    1    2    0    0  0.14172868409E+02 -0.32025146415E+02 -0.49308772378E+02  0.60480039974E+02  0.00000000000E+00 0. -1.
         11    1    1    2    0    0 -0.84986084638E+02  0.23092929127E+02 -0.53263110011E+02  0.10292170250E+03  0.00000000000E+00 0.  1.
</event>
<event>
 7    1  0.2522928E-009  0.1351097E+03  0.7561462E-02  0.1220065E+00
          1   -1    0    0  501    0  0.00000000000E+00  0.00000000000E+00  0.51731274743E+02  0.51731274743E+02  0.00000000000E+00 0. -1.
         -1   -1    0    0    0  501 -0.00000000000E+00 -0.00000000000E+00 -0.49149947646E+03  0.49149947646E+03  0.00000000000E+00 0.  1.
         25    2    1    2    0    0 -0.58570211360E+02 -0.98393348126E+02 -0.20093176872E+03  0.26292982823E+03  0.12508716271E+03 0.  0.
          5    1    3    3  502    0 -0.80700550789E+02 -0.80345721931E+02 -0.20424096752E+03  0.23388001014E+03  0.41800000000E+01 0.  1.
         -5    1    3    3    0  502  0.22130339429E+02 -0.18047626195E+02  0.33091987917E+01  0.29049818092E+02  0.41800000000E+01 0.  1.
        -11    1    1    2    0    0  0.10328001791E+02  0.71362339149E+02 -0.62252804107E+02  0.95261023976E+02  0.00000000000E+00 0. -1.
         11    1    1    2    0    0  0.48242209569E+02  0.27031008977E+02 -0.17658362889E+03  0.18503989900E+03  0.00000000000E+00 0.  1.
</event>
<event>
 7    1  0.2522928E-009  0.9653966E+02  0.7561462E-02  0.1287746E+00
          1   -1    0    0  501    0  0.00000000000E+00  0.00000000000E+00  0.66997601370E+02  0.66997601370E+02  0.00000000000E+00 0. -1.
         -1   -1    0    0    0  501 -0.00000000000E+00 -0.00000000000E+00 -0.25986613287E+03  0.25986613287E+03  0.00000000000E+00 0.  1.
         25    2    1    2    0    0  0.68680310446E+02 -0.34713907065E+02 -0.81071072643E+02  0.16775730993E+03  0.12509178962E+03 0.  0.
          5    1    3    3  502    0  0.44172334028E+02 -0.11449521753E+02  0.27860672897E+02  0.53628128218E+02  0.41800000000E+01 0. -1.
         -5    1    3    3    0  502  0.24507976418E+02 -0.23264385311E+02 -0.10893174554E+03  0.11412918171E+03  0.41800000000E+01 0. -1.
        -11    1    1    2    0    0 -0.63407583573E+02 -0.13397535729E+02 -0.64411175545E+02  0.91371850990E+02  0.00000000000E+00 0. -1.
         11    1    1    2    0    0 -0.52727268726E+01  0.48111442794E+02 -0.47386283308E+02  0.67734573314E+02  0.00000000000E+00 0.  1.
</event>
<event>
 7    1  0.2522928E-009  0.1165976E+03  0.7561462E-02  0.1248818E+00
          2   -1    0    0  501    0  0.00000000000E+00  0.00000000000E+00  0.87867314151E+02  0.87867314151E+02  0.00000000000E+00 0. -1.
         -2   -1    0    0    0  501 -0.00000000000E+00 -0.00000000000E+00 -0.16504346123E+03  0.16504346123E+03  0.00000000000E+00 0.  1.
         25    2    1    2    0    0  0.35831690588E+02 -0.18179927494E+02 -0.49070701299E+02  0.14025026829E+03  0.12509110366E+03 0.  0.
          5    1    3    3  502    0  0.21117840870E+02  0.50903113143E+02 -0.20713411940E+01  0.55306898168E+02  0.41800000000E+01 0. -1.
         -5    1    3    3    0  502  0.14713849718E+02 -0.69083040637E+02 -0.46999360105E+02  0.84943370120E+02  0.41800000000E+01 0. -1.
        -11    1    1    2    0    0  0.20528617832E+02  0.41403559157E+02 -0.17419157982E+01  0.46246222890E+02  0.00000000000E+00 0. -1.
         11    1    1    2    0    0 -0.56360308420E+02 -0.23223631663E+02 -0.26363529980E+02  0.66414284201E+02  0.00000000000E+00 0.  1.
</event>
<event>
 7    1  0.2522928E-009  0.2654299E+03  0.7561462E-02  0.1103924E+00
          2   -1    0    0  501    0  0.00000000000E+00  0.00000000000E+00  0.79531649655E+03  0.79531649655E+03  0.00000000000E+00 0. -1.
         -2   -1    0    0    0  501 -0.00000000000E+00 -0.00000000000E+00 -0.10270149524E+03  0.10270149524E+03  0.00000000000E+00 0.  1.
         25    2    1    2    0    0  0.23562669729E+03  0.10498021204E+03  0.44021179684E+03  0.52533351169E+03  0.12509231404E+03 0.  0.
          5    1    3    3  502    0  0.73798544560E+02  0.79780269821E+02  0.10007007428E+03  0.14779245176E+03  0.41800000000E+01 0.  1.
         -5    1    3    3    0  502  0.16182815273E+03  0.25199942220E+02  0.34014172256E+03  0.37754105993E+03  0.41800000000E+01 0.  1.
        -11    1    1    2    0    0 -0.15563288183E+03 -0.62694374015E+02  0.21976828275E+03  0.27649643134E+03  0.00000000000E+00 0. -1.
         11    1    1    2    0    0 -0.79993815467E+02 -0.42285838025E+02  0.32634921718E+02  0.96188048769E+02  0.00000000000E+00 0.  1.
</event>
<event>
 7    1  0.2522928E-009  0.9550243E+02  0.7561462E-02  0.1290048E+00
         -3   -1    0    0    0  501 -0.00000000000E+00  0.00000000000E+00  0.14899681114E+03  0.14899681114E+03  0.00000000000E+00 0.  1.
          3   -1    0    0  501    0  0.00000000000E+00 -0.00000000000E+00 -0.79401682507E+02  0.79401682507E+02  0.00000000000E+00 0. -1.
         25    2    1    2    0    0 -0.27400165308E+02 -0.68202212195E+01  0.36920769106E+02  0.13346714238E+03  0.12511215140E+03 0.  0.
          5    1    3    3  502    0 -0.24186749697E+02 -0.51424710066E+02  0.60188394825E+02  0.82883140251E+02  0.41800000000E+01 0. -1.
         -5    1    3    3    0  502 -0.32134156114E+01  0.44604488846E+02 -0.23267625718E+02  0.50584002132E+02  0.41800000000E+01 0. -1.
        -11    1    1    2    0    0  0.45045051573E+02 -0.25880229486E+02  0.20121078526E+02  0.55710867437E+02  0.00000000000E+00 0.  1.
         11    1    1    2    0    0 -0.17644886265E+02  0.32700450705E+02  0.12553280997E+02  0.39220483825E+02  0.00000000000E+00 0. -1.
</event>
<event>
 7    1  0.2522928E-009  0.4190468E+03  0.7561462E-02  0.1037377E+00
          1   -1    0    0  501    0  0.00000000000E+00  0.00000000000E+00  0.38597211755E+03  0.38597211755E+03  0.00000000000E+00 0. -1.
         -1   -1    0    0    0  501 -0.00000000000E+00 -0.00000000000E+00 -0.46165190988E+03  0.46165190988E+03  0.00000000000E+00 0.  1.
         25    2    1    2    0    0  0.37521665900E+03 -0.15316524403E+03 -0.81701508704E+02  0.43193697662E+03  0.12508909656E+03 0.  0.
          5    1    3    3  502    0  0.11297931481E+03  0.10269965943E+02 -0.38679982838E+02  0.11993086028E+03  0.41800000000E+01 0. -1.
         -5    1    3    3    0  502  0.26223734419E+03 -0.16343520997E+03 -0.43021525866E+02  0.31200611634E+03  0.41800000000E+01 0. -1.
        -11    1    1    2    0    0 -0.27636063552E+03  0.15462941134E+03  0.84277373288E+01  0.31679091286E+03  0.00000000000E+00 0.  1.
         11    1    1    2    0    0 -0.98856023480E+02 -0.14641673143E+01 -0.24060209593E+01  0.98896137948E+02  0.00000000000E+00 0. -1.
</event>
<event>
 7    1  0.2522928E-009  0.1248372E+03  0.7561462E-02  0.1235324E+00
         -1   -1    0    0    0  501 -0.00000000000E+00  0.00000000000E+00  0.22969583025E+02  0.22969583025E+02  0.00000000000E+00 0.  1.
          1   -1    0    0  501    0  0.00000000000E+00 -0.00000000000E+00 -0.11083282868E+04  0.11083282868E+04  0.00000000000E+00 0. -1.
         25    2    1    2    0    0  0.59124263171E+02 -0.97238930307E+02 -0.72163430300E+03  0.74118400753E+03  0.12508628099E+03 0.  0.
          5    1    3    3  502    0  0.21573263505E+02 -0.17413344444E+02 -0.52359106410E+03  0.52434121054E+03  0.41800000000E+01 0. -1.
         -5    1    3    3    0  502  0.37550999666E+02 -0.79825585863E+02 -0.19804323890E+03  0.21684279699E+03  0.41800000000E+01 0. -1.
        -11    1    1    2    0    0 -0.71775022541E+02  0.58583028139E+02 -0.30438758169E+03  0.31817514820E+03  0.00000000000E+00 0.  1.
         11    1    1    2    0    0  0.12650759370E+02  0.38655902169E+02 -0.59336819053E+02  0.71938714058E+02  0.00000000000E+00 0. -1.
</event>
<event>
 7    1  0.2522928E-009  0.1646352E+03  0.7561462E-02  0.1183561E+00
          3   -1    0    0  501    0  0.00000000000E+00  0.00000000000E+00  0.52234082905E+03  0.52234082905E+03  0.00000000000E+00 0. -1.
         -3   -1    0    0    0  501 -0.00000000000E+00 -0.00000000000E+00 -0.97105423574E+02  0.97105423574E+02  0.00000000000E+00 0.  1.
         25    2    1    2    0    0 -0.64723021070E+02  0.12778124224E+03  0.40754580736E+03  0.44972993187E+03  0.12508521575E+03 0.  0.
          5    1    3    3  502    0 -0.66803819893E+02  0.14078763865E+03  0.27218475364E+03  0.31366530261E+03  0.41800000000E+01 0.  1.
         -5    1    3    3    0  502  0.20807988224E+01 -0.13006396408E+02  0.13536105372E+03  0.13606462926E+03  0.41800000000E+01 0.  1.
        -11    1    1    2    0    0  0.77104711618E+02 -0.83817178092E+02 -0.13091682940E+02  0.11463789975E+03  0.00000000000E+00 0.  1.
         11    1    1    2    0    0 -0.12381690548E+02 -0.43964064146E+02  0.30781281063E+02  0.55078421010E+02  0.00000000000E+00 0. -1.
</event>
<event>
 7    1  0.2522928E-009  0.9698404E+02  0.7561462E-02  0.1286769E+00
          2   -1    0    0  501    0  0.00000000000E+00  0.00000000000E+00  0.96637699147E+03  0.96637699147E+03  0.00000000000E+00 0.  1.
         -2   -1    0    0    0  501 -0.00000000000E+00 -0.00000000000E+00 -0.16628937465E+02  0.16628937465E+02  0.00000000000E+00 0. -1.
         25    2    1    2    0    0 -0.50899879665E+02  0.51171125411E+02  0.67381858743E+03  0.68912106519E+03  0.12508825644E+03 0.  0.
          5    1    3    3  502    0  0.15020350723E+02  0.11676103904E+02  0.12075707829E+02  0.22918059643E+02  0.41800000000E+01 0. -1.
         -5    1    3    3    0  502 -0.65920230389E+02  0.39495021507E+02  0.66174287960E+03  0.66620300555E+03  0.41800000000E+01 0. -1.
        -11    1    1    2    0    0  0.65951404065E+02 -0.32432254645E+02  0.16902749038E+03  0.18431421904E+03  0.00000000000E+00 0. -1.
         11    1    1    2    0    0 -0.15051524399E+02 -0.18738870766E+02  0.10690197620E+03  0.10957064470E+03  0.00000000000E+00 0.  1.
</event>
<event>
 7    1  0.2522928E-009  0.8013709E+02  0.7561462E-02  0.1328663E+00
          1   -1    0    0  501    0  0.00000000000E+00  0.00000000000E+00  0.37091447735E+03  0.37091447735E+03  0.00000000000E+00 0. -1.
         -1   -1    0    0    0  501 -0.00000000000E+00 -0.00000000000E+00 -0.53143874524E+02  0.53143874524E+02  0.00000000000E+00 0.  1.
         25    2    1    2    0    0 -0.15921201099E+02 -0.22048914832E+02  0.30237649952E+03  0.32835877613E+03  0.12509316174E+03 0.  0.
          5    1    3    3  502    0 -0.54291327196E+02  0.12489975805E+02  0.66449752265E+02  0.86813533970E+02  0.41800000000E+01 0. -1.
         -5    1    3    3    0  502  0.38370126098E+02 -0.34538890637E+02  0.23592674725E+03  0.24154524216E+03  0.41800000000E+01 0. -1.
        -11    1    1    2    0    0  0.28825697031E+02  0.21619652895E+01  0.47611631582E+02  0.55699751930E+02  0.00000000000E+00 0. -1.
         11    1    1    2    0    0 -0.12904495932E+02  0.19886949542E+02 -0.32217528269E+02  0.39999823813E+02  0.00000000000E+00 0.  1.
</event>
<event>
 7    1  0.2522928E-009  0.8420272E+02  0.7561462E-02  0.1317531E+00
          1   -1    0    0  501    0  0.00000000000E+00  0.00000000000E+00  0.15605774879E+02  0.15605774879E+02  0.00000000000E+00 0. -1.
         -1   -1    0    0    0  501 -0.00000000000E+00 -0.00000000000E+00 -0.11682335938E+04  0.11682335938E+04  0.00000000000E+00 0.  1.
         25    2    1    2    0    0  0.64441501814E+02 -0.58497720353E+01 -0.88359159883E+03  0.89474484273E+03  0.12508914055E+03 0.  0.
          5    1    3    3  502    0  0.15591052893E+01 -0.17959902462E+02 -0.70028394920E+03  0.70052842256E+03  0.41800000000E+01 0. -1.
         -5    1    3    3    0  502  0.62882396525E+02  0.12110130427E+02 -0.18330764962E+03  0.19421642017E+03  0.41800000000E+01 0. -1.
        -11    1    1    2    0    0 -0.46440508182E+02 -0.22919889279E+02 -0.69394764241E+02  0.86589118420E+02  0.00000000000E+00 0. -1.
         11    1    1    2    0    0 -0.18000993632E+02  0.28769661314E+02 -0.19964145589E+03  0.20250540757E+03  0.00000000000E+00 0.  1.
</event>
<event>
 7    1  0.2522928E-009  0.1803513E+03  0.7561462E-02  0.1167463E+00
         -3   -1    0    0    0  501 -0.00000000000E+00  0.00000000000E+00  0.66071875239E+02  0.66071875239E+02  0.00000000000E+00 0.  1.
          3   -1    0    0  501    0  0.00000000000E+00 -0.00000000000E+00 -0.55324281253E+03  0.55324281253E+03  0.00000000000E+00 0. -1.
         25    2    1    2    0    0  0.21684896680E+02  0.15050620136E+03 -0.33293412454E+03  0.38679996103E+03  0.12508687853E+03 0.  0.
          5    1    3    3  502    0 -0.46390028474E+02  0.82311967422E+02 -0.21181909571E+03  0.23197434434E+03  0.41800000000E+01 0. -1.
         -5    1    3    3    0  502  0.68074925154E+02  0.68194233934E+02 -0.12111502883E+03  0.15482561669E+03  0.41800000000E+01 0. -1.
        -11    1    1    2    0    0 -0.39365981991E+02 -0.34536056392E+02 -0.72922879731E+02  0.89778427907E+02  0.00000000000E+00 0.  1.
         11    1    1    2    0    0  0.17681085311E+02 -0.11597014496E+03 -0.81313933022E+02  0.14273629883E+03  0.00000000000E+00 0. -1.
</event>
<event>
 7    1  0.2522928E-009  0.9291632E+02  0.7561462E-02  0.1295939E+00
         -3   -1    0    0    0  501 -0.00000000000E+00  0.00000000000E+00  0.39514547435E+03  0.39514547435E+03  0.00000000000E+00 0.  1.
          3   -1    0    0  501    0  0.00000000000E+00 -0.00000000000E+00 -0.40964998298E+02  0.40964998298E+02  0.00000000000E+00 0. -1.
         25    2    1    2    0    0 -0.63481424957E+02  0.30979857760E+01  0.23055816534E+03  0.26989539313E+03  0.12508783633E+03 0.  0.
          5    1    3    3  502    0  0.21875698222E+01  0.74086727229E+01 -0.14041701264E+02  0.16562477702E+02  0.41800000000E+01 0.  1.
         -5    1    3    3    0  502 -0.65668994779E+02 -0.43106869468E+01  0.24459986660E+03  0.25333291543E+03  0.41800000000E+01 0.  1.
        -11    1    1    2    0    0  0.34901538338E+02 -0.47109495044E+02  0.64796826453E+02  0.87384498740E+02  0.00000000000E+00 0. -1.
         11    1    1    2    0    0  0.28579886619E+02  0.44011509268E+02  0.58825484259E+02  0.78830580776E+02  0.00000000000E+00 0.  1.
</event>
<event>
 7    1  0.2522928E-009  0.1103126E+03  0.7561462E-02  0.1259992E+00
          1   -1    0    0  501    0  0.00000000000E+00  0.00000000000E+00  0.16163454770E+03  0.16163454770E+03  0.00000000000E+00 0. -1.
         -1   -1    0    0    0  501 -0.00000000000E+00 -0.00000000000E+00 -0.13748703491E+03  0.13748703491E+03  0.00000000000E+00 0.  1.
         25    2    1    2    0    0 -0.71791537747E+02  0.62936130623E+02  0.48238977827E+02  0.16458925696E+03  0.12509053960E+03 0.  0.
          5    1    3    3  502    0  0.59818920761E+01  0.68006599861E+01 -0.35696842553E+02  0.37064389612E+02  0.41800000000E+01 0. -1.
         -5    1    3    3    0  502 -0.77773429823E+02  0.56135470636E+02  0.83935820381E+02  0.12752486735E+03  0.41800000000E+01 0. -1.
        -11    1    1    2    0    0  0.24448963790E+02 -0.62701756601E+02  0.19614149213E+02  0.70099764341E+02  0.00000000000E+00 0. -1.
         11    1    1    2    0    0  0.47342573956E+02 -0.23437402131E+00 -0.43705614252E+02  0.64432561311E+02  0.00000000000E+00 0.  1.
</event>
<event>
 7    1  0.2522928E-009  0.1045102E+03  0.7561462E-02  0.1271088E+00
          1   -1    0    0  501    0  0.00000000000E+00  0.00000000000E+00  0.55098766179E+02  0.55098766179E+02  0.00000000000E+00 0. -1.
         -1   -1    0    0    0  501 -0.00000000000E+00 -0.00000000000E+00 -0.22861915812E+03  0.22861915812E+03  0.00000000000E+00 0.  1.
         25    2    1    2    0    0 -0.13029197877E+02  0.15244116580E+02 -0.13752840575E+03  0.18699171846E+03  0.12509875019E+03 0.  0.
          5    1    3    3  502    0  0.39944353315E+02  0.47136019723E+02 -0.49205114012E+02  0.79094698697E+02  0.41800000000E+01 0.  1.
         -5    1    3    3    0  502 -0.52973551191E+02 -0.31891903143E+02 -0.88323291735E+02  0.10789701977E+03  0.41800000000E+01 0.  1.
        -11    1    1    2    0    0  0.51663264197E+01 -0.49604064886E+02 -0.35948520277E+02  0.61478047236E+02  0.00000000000E+00 0. -1.
         11    1    1    2    0    0  0.78628714569E+01  0.34359948306E+02 -0.43465917109E-01  0.35248158596E+02  0.00000000000E+00 0.  1.
</event>
<event>
 7    1  0.2522928E-009  0.1038447E+03  0.7561462E-02  0.1272413E+00
          2   -1    0    0  501    0  0.00000000000E+00  0.00000000000E+00  0.28367906697E+03  0.28367906697E+03  0.00000000000E+00 0.  1.
         -2   -1    0    0    0  501 -0.00000000000E+00 -0.00000000000E+00 -0.57201702490E+02  0.57201702490E+02  0.00000000000E+00 0. -1.
         25    2    1    2    0    0  0.11447293711E+02  0.33012760261E+02  0.20085247802E+03  0.23918668529E+03  0.12509064561E+03 0.  0.
          5    1    3    3  502    0 -0.21862403892E+01 -0.37497270488E+02  0.13984956507E+03  0.14486613887E+03  0.41800000000E+01 0.  1.
         -5    1    3    3    0  502  0.13633534100E+02  0.70510030749E+02  0.61002912949E+02  0.94320546417E+02  0.41800000000E+01 0.  1.
        -11    1    1    2    0    0  0.22305536554E+02  0.23331533833E+02  0.13071122032E+02  0.34824584177E+02  0.00000000000E+00 0.  1.
         11    1    1    2    0    0 -0.33752830264E+02 -0.56344294094E+02  0.12553764425E+02  0.66869499991E+02  0.00000000000E+00 0. -1.
</event>
<event>
 7    1  0.2522928E-009  0.1346840E+03  0.7561462E-02  0.1220666E+00
          2   -1    0    0  501    0  0.00000000000E+00  0.00000000000E+00  0.79367730477E+03  0.79367730477E+03  0.00000000000E+00 0. -1.
         -2   -1    0    0    0  501 -0.00000000000E+00 -0.00000000000E+00 -0.31459456274E+02  0.31459456274E+02  0.00000000000E+00 0.  1.
         25    2    1    2    0    0 -0.77802004150E+02  0.50521071450E+02  0.23207684339E+03  0.27948707941E+03  0.12509130990E+03 0.  0.
          5    1    3    3  502    0  0.24028677516E+02  0.29703917846E+02  0.12255201372E+03  0.12843741100E+03  0.41800000000E+01 0. -1.
         -5    1    3    3    0  502 -0.10183068167E+03  0.20817153604E+02  0.10952482967E+03  0.15104966841E+03  0.41800000000E+01 0. -1.
        -11    1    1    2    0    0  0.81406202395E+02 -0.53318761895E+01  0.38686088736E+03  0.39536912482E+03  0.00000000000E+00 0. -1.
         11    1    1    2    0    0 -0.36041982447E+01 -0.45189195261E+02  0.14328011774E+03  0.15028055681E+03  0.00000000000E+00 0.  1.
</event>
<event>
 7    1  0.2522928E-009  0.1140154E+03  0.7561462E-02  0.1253310E+00
          1   -1    0    0  501    0  0.00000000000E+00  0.00000000000E+00  0.53222288906E+03  0.53222288906E+03  0.00000000000E+00 0. -1.
         -1   -1    0    0    0  501 -0.00000000000E+00 -0.00000000000E+00 -0.35607204502E+02  0.35607204502E+02  0.00000000000E+00 0.  1.
         25    2    1    2    0    0 -0.70267785815E+02  0.12234219351E+02  0.36323428274E+03  0.39073568750E+03  0.12509194811E+03 0.  0.
          5    1    3    3  502    0 -0.80821207863E+02 -0.19902481383E+02  0.12601728814E+03  0.15108277769E+03  0.41800000000E+01 0.  1.
         -5    1    3    3    0  502  0.10553422048E+02  0.32136700734E+02  0.23721699460E+03  0.23965290980E+03  0.41800000000E+01 0.  1.
        -11    1    1    2    0    0  0.14310214926E+02  0.34724367311E+02  0.20921619309E+02  0.42991604888E+02  0.00000000000E+00 0.  1.
         11    1    1    2    0    0  0.55957570889E+02 -0.46958586662E+02  0.11245978252E+03  0.13410280118E+03  0.00000000000E+00 0. -1.
</event>
<event>
 7    1  0.2522928E-009  0.1403599E+03  0.7561462E-02  0.1212845E+00
         -2   -1    0    0    0  501 -0.00000000000E+00  0.00000000000E+00  0.13312414470E+03  0.13312414470E+03  0.00000000000E+00 0.  1.
          2   -1    0    0  501    0  0.00000000000E+00 -0.00000000000E+00 -0.16558900761E+03  0.16558900761E+03  0.00000000000E+00 0. -1.
         25    2    1    2    0    0 -0.54255753559E+01  0.95413228201E+02  0.14142001311E+02  0.15805526006E+03  0.12509335733E+03 0.  0.
          5    1    3    3  502    0  0.52205989513E+02  0.82647643754E+02  0.33429791246E+01  0.97901717393E+02  0.41800000000E+01 0.  1.
         -5    1    3    3    0  502 -0.57631564869E+02  0.12765584446E+02  0.10799022187E+02  0.60153542669E+02  0.41800000000E+01 0.  1.
        -11    1    1    2    0    0  0.41765578891E+02 -0.58698244241E+02 -0.14659630133E+01  0.72055509884E+02  0.00000000000E+00 0.  1.
         11    1    1    2    0    0 -0.36340003536E+02 -0.36714983960E+02 -0.45140901206E+02  0.68602382362E+02  0.00000000000E+00 0. -1.
</event>
<event>
 6    1  0.2522928E-009  0.1045576E+03  0.7561462E-02  0.1270994E+00
          1   -1    0    0  501    0  0.00000000000E+00  0.00000000000E+00  0.10784178778E+03  0.10784178778E+03  0.00000000000E+00 0. -1.
         -1   -1    0    0    0  501 -0.00000000000E+00 -0.00000000000E+00 -0.13076296615E+03  0.13076296615E+03  0.00000000000E+00 0.  1.
          5    1    1    2  502    0  0.31174576280E+02  0.46921487048E+02  0.41805799428E+02  0.70275724250E+02  0.41800000000E+01 0.  1.
         -5    1    1    2    0  502 -0.48285665062E+02 -0.33763170290E+02 -0.10050528520E+02  0.59916130066E+02  0.41800000000E+01 0.  1.
        -11    1    1    2    0    0 -0.18970994454E+02  0.31116731848E+02 -0.23132944520E+02  0.43165759042E+02  0.00000000000E+00 0. -1.
         11    1    1    2    0    0  0.36082083236E+02 -0.44275048606E+02 -0.31543504759E+02  0.65247140567E+02  0.00000000000E+00 0.  1.
</event>
<event>
 7    1  0.2522928E-009  0.7584061E+02  0.7561462E-02  0.1341288E+00
         -4   -1    0    0    0  501 -0.00000000000E+00  0.00000000000E+00  0.16104496817E+03  0.16104496817E+03  0.00000000000E+00 0.  1.
          4   -1    0    0  501    0  0.00000000000E+00 -0.00000000000E+00 -0.77764585577E+02  0.77764585577E+02  0.00000000000E+00 0. -1.
         25    2    1    2    0    0  0.11897221451E+02  0.25588018413E+02  0.62366401845E+02  0.14259573631E+03  0.12509070857E+03 0.  0.
          5    1    3    3  502    0  0.31048211623E+02  0.23481738802E+02 -0.29256796571E+02  0.48875515831E+02  0.41800000000E+01 0. -1.
         -5    1    3    3    0  502 -0.19150990172E+02  0.21062796119E+01  0.91623198416E+02  0.93720220477E+02  0.41800000000E+01 0. -1.
        -11    1    1    2    0    0 -0.37414550162E+02 -0.46598939527E+02  0.63624595557E+01  0.60098174852E+02  0.00000000000E+00 0. -1.
         11    1    1    2    0    0  0.25517328711E+02  0.21010921114E+02  0.14551521194E+02  0.36115642590E+02  0.00000000000E+00 0.  1.
</event>
<event>
 7    1  0.2522928E-009  0.1223553E+03  0.7561462E-02  0.1239261E+00
          2   -1    0    0  501    0  0.00000000000E+00  0.00000000000E+00  0.10584866352E+03  0.10584866352E+03  0.00000000000E+00 0. -1.
         -2   -1    0    0    0  501 -0.00000000000E+00 -0.00000000000E+00 -0.20173403423E+03  0.20173403423E+03  0.00000000000E+00 0.  1.
         25    2    1    2    0    0  0.70187713061E+02 -0.67755643620E+02 -0.60034251554E+02  0.16961205375E+03  0.12508794950E+03 0.  0.
          5    1    3    3  502    0  0.17616040322E+02  0.84998527260E+01  0.32794448134E+02  0.38412505795E+02  0.41800000000E+01 0. -1.
         -5    1    3    3    0  502  0.52571672739E+02 -0.76255496346E+02 -0.92828699688E+02  0.13119954795E+03  0.41800000000E+01 0. -1.
        -11    1    1    2    0    0 -0.91232907774E+02  0.61547124240E+02 -0.22634605721E+02  0.11235576238E+03  0.00000000000E+00 0. -1.
         11    1    1    2    0    0  0.21045194713E+02  0.62085193798E+01 -0.13216513427E+02  0.25614881623E+02  0.00000000000E+00 0.  1.
</event>
<event>
 7    1  0.2522928E-009  0.3299858E+03  0.7561462E-02  0.1071143E+00
          1   -1    0    0  501    0  0.00000000000E+00  0.00000000000E+00  0.24109547418E+03  0.24109547418E+03  0.00000000000E+00 0. -1.
         -1   -1    0    0    0  501 -0.00000000000E+00 -0.00000000000E+00 -0.66201445134E+03  0.66201445134E+03  0.00000000000E+00 0.  1.
         25    2    1    2    0    0  0.21932811251E+03  0.22301819562E+03 -0.46469647390E+03  0.57396252670E+03  0.12509289620E+03 0.  0.
          5    1    3    3  502    0  0.75439699968E+02  0.16462470710E+03 -0.23607396491E+03  0.29755811504E+03  0.41800000000E+01 0. -1.
         -5    1    3    3    0  502  0.14388841254E+03  0.58393488526E+02 -0.22862250899E+03  0.27640441166E+03  0.41800000000E+01 0. -1.
        -11    1    1    2    0    0 -0.19194132782E+03 -0.14425629166E+03  0.50946076264E+02  0.24545234506E+03  0.00000000000E+00 0.  1.
         11    1    1    2    0    0 -0.27386784695E+02 -0.78761903962E+02 -0.71685795259E+01  0.83695053761E+02  0.00000000000E+00 0. -1.
</event>
<event>
 7    1  0.2522928E-009  0.1105355E+03  0.7561462E-02  0.1259581E+00
          2   -1    0    0  501    0  0.00000000000E+00  0.00000000000E+00  0.11583523148E+04  0.11583523148E+04  0.00000000000E+00 0. -1.
         -2   -1    0    0    0  501 -0.00000000000E+00 -0.00000000000E+00 -0.15365429474E+02  0.15365429474E+02  0.00000000000E+00 0.  1.
         25    2    1    2    0    0  0.48712481374E+02 -0.14571592665E+02  0.88080278112E+03  0.89109243869E+03  0.12508780077E+03 0.  0.
          5    1    3    3  502    0  0.75317671195E+02 -0.34189950186E+02  0.79071308836E+03  0.79503859327E+03  0.41800000000E+01 0. -1.
         -5    1    3    3    0  502 -0.26605189821E+02  0.19618357521E+02  0.90089692760E+02  0.96053845414E+02  0.41800000000E+01 0. -1.
        -11    1    1    2    0    0 -0.27127307846E+02  0.53745914050E+02  0.16507434719E+03  0.17571014259E+03  0.00000000000E+00 0.  1.
         11    1    1    2    0    0 -0.21585173528E+02 -0.39174321385E+02  0.97109757051E+02  0.10691516303E+03  0.00000000000E+00 0. -1.
</event>
<event>
 7    1  0.2522928E-009  0.9147065E+02  0.7561462E-02  0.1299329E+00
          1   -1    0    0  501    0  0.00000000000E+00  0.00000000000E+00  0.69868321898E+03  0.69868321898E+03  0.00000000000E+00 0. -1.
         -1   -1    0    0    0  501 -0.00000000000E+00 -0.00000000000E+00 -0.21272887552E+02  0.21272887552E+02  0.00000000000E+00 0.  1.
         25    2    1    2    0    0  0.14738464512E+02  0.46524248897E+02  0.48366535530E+03  0.50195807755E+03  0.12509199664E+03 0.  0.
          5    1    3    3  502    0 -0.20446454335E+02 -0.14886386210E+02  0.34746394704E+03  0.34840827901E+03  0.41800000000E+01 0. -1.
         -5    1    3    3    0  502  0.35184918847E+02  0.61410635107E+02  0.13620140826E+03  0.15354979854E+03  0.41800000000E+01 0. -1.
        -11    1    1    2    0    0 -0.43343689218E+02 -0.21416398610E+02  0.51030938527E+02  0.70295762400E+02  0.00000000000E+00 0.  1.
         11    1    1    2    0    0  0.28605224706E+02 -0.25107850288E+02  0.14271403760E+03  0.14770226658E+03  0.00000000000E+00 0. -1.
</event>
<event>
 7    1  0.2522928E-009  0.8683674E+02  0.7561462E-02  0.1310698E+00
          2   -1    0    0  501    0  0.00000000000E+00  0.00000000000E+00  0.44273561313E+03  0.44273561313E+03  0.00000000000E+00 0. -1.
         -2   -1    0    0    0  501 -0.00000000000E+00 -0.00000000000E+00 -0.31462337224E+02  0.31462337224E+02  0.00000000000E+00 0.  1.
         25    2    1    2    0    0 -0.42582663871E+02 -0.13378614622E+02  0.25488439771E+03  0.28741227747E+03  0.12508992945E+03 0.  0.
          5    1    3    3  502    0 -0.59956808729E+02 -0.13495488839E+02  0.26127158883E+03  0.26843483877E+03  0.41800000000E+01 0.  1.
         -5    1    3    3    0  502  0.17374144858E+02  0.11687421726E+00 -0.63871911227E+01  0.18977438699E+02  0.41800000000E+01 0.  1.
        -11    1    1    2    0    0  0.66635394688E+02 -0.93910043799E-01  0.72444479179E+02  0.98430113318E+02  0.00000000000E+00 0.  1.
         11    1    1    2    0    0 -0.24052730817E+02  0.13472524666E+02  0.83944399012E+02  0.88355559566E+02  0.00000000000E+00 0. -1.
</event>
<event>
 7    1  0.2522928E-009  0.1991196E+03  0.7561462E-02  0.1150484E+00
         -4   -1    0    0    0  501 -0.00000000000E+00  0.00000000000E+00  0.27280268810E+03  0.27280268810E+03  0.00000000000E+00 0.  1.
          4   -1    0    0  501    0  0.00000000000E+00 -0.00000000000E+00 -0.16707686686E+03  0.16707686686E+03  0.00000000000E+00 0. -1.
         25    2    1    2    0    0 -0.17655305045E+03  0.17719430920E+02  0.10303761758E+03  0.24031094395E+03  0.12509053238E+03 0.  0.
          5    1    3    3  502    0 -0.18920150532E+02  0.52172362312E+02  0.28389184358E+02  0.62476761071E+02  0.41800000000E+01 0.  1.
         -5    1    3    3    0  502 -0.15763289992E+03 -0.34452931392E+02  0.74648433226E+02  0.17783418288E+03  0.41800000000E+01 0.  1.
        -11    1    1    2    0    0  0.12101397676E+03 -0.29146009368E+02  0.41095701858E+02  0.13108290943E+03  0.00000000000E+00 0.  1.
         11    1    1    2    0    0  0.55539073693E+02  0.11426578448E+02 -0.38407498205E+02  0.68485701574E+02  0.00000000000E+00 0. -1.
</event>
<event>
 7    1  0.2522928E-009  0.1125346E+03  0.7561462E-02  0.1255947E+00
         -4   -1    0    0    0  501 -0.00000000000E+00  0.00000000000E+00  0.79949470653E+02  0.79949470653E+02  0.00000000000E+00 0. -1.
          4   -1    0    0  501    0  0.00000000000E+00 -0.00000000000E+00 -0.20878084340E+03  0.20878084340E+03  0.00000000000E+00 0.  1.
         25    2    1    2    0    0  0.52473909032E+02 -0.12306485197E+02 -0.21268300548E+02  0.13785896996E+03  0.12509114390E+03 0.  0.
          5    1    3    3  502    0  0.34720524256E+02 -0.62726539391E+02 -0.38570832332E+02  0.81518801852E+02  0.41800000000E+01 0. -1.
         -5    1    3    3    0  502  0.17753384775E+02  0.50420054194E+02  0.17302531784E+02  0.56340168105E+02  0.41800000000E+01 0. -1.
        -11    1    1    2    0    0 -0.50126031394E+02 -0.29234334637E+02 -0.36588434989E+02  0.68600137900E+02  0.00000000000E+00 0.  1.
         11    1    1    2    0    0 -0.23478776379E+01  0.41540819833E+02 -0.70974637209E+02  0.82271206195E+02  0.00000000000E+00 0. -1.
</event>
<event>
 7    1  0.2522928E-009  0.1019671E+03  0.7561462E-02  0.1276213E+00
         -1   -1    0    0    0  501 -0.00000000000E+00  0.00000000000E+00  0.16995783804E+03  0.16995783804E+03  0.00000000000E+00 0. -1.
          1   -1    0    0  501    0  0.00000000000E+00 -0.00000000000E+00 -0.93384765126E+02  0.93384765126E+02  0.00000000000E+00 0.  1.
         25    2    1    2    0    0  0.30838385624E+02  0.55541452244E+02  0.36484359461E+02  0.14499696961E+03  0.12512854896E+03 0.  0.
          5    1    3    3  502    0 -0.21521626745E+02  0.31084685522E+02  0.68827989010E+02  0.78639700934E+02  0.41800000000E+01 0. -1.
         -5    1    3    3    0  502  0.52360012369E+02  0.24456766722E+02 -0.32343629549E+02  0.66357268676E+02  0.41800000000E+01 0. -1.
        -11    1    1    2    0    0 -0.48456619124E+00  0.23386386992E+02 -0.27465124577E+01  0.23552096119E+02  0.00000000000E+00 0.  1.
         11    1    1    2    0    0 -0.30353819433E+02 -0.78927839236E+02  0.42835225906E+02  0.94793537433E+02  0.00000000000E+00 0. -1.
</event>
<event>
 7    1  0.2522928E-009  0.1072760E+03  0.7561462E-02  0.1265699E+00
          2   -1    0    0  501    0  0.00000000000E+00  0.00000000000E+00  0.37956597153E+03  0.37956597153E+03  0.00000000000E+00 0. -1.
         -2   -1    0    0    0  501 -0.00000000000E+00 -0.00000000000E+00 -0.64175981520E+02  0.64175981520E+02  0.00000000000E+00 0.  1.
         25    2    1    2    0    0 -0.32154391425E+02  0.94384940082E+00  0.32174591215E+03  0.34669261339E+03  0.12506214636E+03 0.  0.
          5    1    3    3  502    0 -0.48155132680E+02 -0.50223752730E+02  0.12950656756E+03  0.14707401397E+03  0.41800000000E+01 0. -1.
         -5    1    3    3    0  502  0.16000741255E+02  0.51167602131E+02  0.19223934458E+03  0.19961859942E+03  0.41800000000E+01 0. -1.
        -11    1    1    2    0    0 -0.26515737706E+02  0.14747390883E+02 -0.17903137334E+02  0.35229138654E+02  0.00000000000E+00 0.  1.
         11    1    1    2    0    0  0.58670129131E+02 -0.15691240283E+02  0.11547215195E+02  0.61820201008E+02  0.00000000000E+00 0. -1.
</event>
<event>
 7    1  0.2522928E-009  0.1024427E+03  0.7561462E-02  0.1275241E+00
          2   -1    0    0  501    0  0.00000000000E+00  0.00000000000E+00  0.28797278331E+03  0.28797278331E+03  0.00000000000E+00 0. -1.
         -2   -1    0    0    0  501 -0.00000000000E+00 -0.00000000000E+00 -0.44656940794E+02  0.44656940794E+02  0.00000000000E+00 0.  1.
         25    2    1    2    0    0 -0.26242274024E+02  0.18779799357E+02  0.10287489903E+03  0.16514049242E+03  0.12508716791E+03 0.  0.
          5    1    3    3  502    0 -0.66051953491E+02  0.32991377676E+02  0.28035315598E+02  0.79086932432E+02  0.41800000000E+01 0.  1.
         -5    1    3    3    0  502  0.39809679467E+02 -0.14211578319E+02  0.74839583433E+02  0.86053559985E+02  0.41800000000E+01 0.  1.
        -11    1    1    2    0    0 -0.21920381501E+02 -0.31747646189E+02  0.41349105803E+02  0.56552318382E+02  0.00000000000E+00 0.  1.
         11    1    1    2    0    0  0.48162655524E+02  0.12967846832E+02  0.99091837681E+02  0.11093691331E+03  0.00000000000E+00 0. -1.
</event>
<event>
 7    1  0.2522928E-009  0.7745127E+02  0.7561462E-02  0.1336444E+00
          1   -1    0    0  501    0  0.00000000000E+00  0.00000000000E+00  0.15182568838E+02  0.15182568838E+02  0.00000000000E+00 0. -1.
         -1   -1    0    0    0  501 -0.00000000000E+00 -0.00000000000E+00 -0.90938065242E+03  0.90938065242E+03  0.00000000000E+00 0.  1.
         25    2    1    2    0    0 -0.29217990104E+02  0.25520489525E+02 -0.62212862892E+03  0.63576467063E+03  0.12509076370E+03 0.  0.
          5    1    3    3  502    0 -0.21446753651E+02  0.37357323590E+02 -0.62953617335E+02  0.76394785185E+02  0.41800000000E+01 0. -1.
         -5    1    3    3    0  502 -0.77712364530E+01 -0.11836834065E+02 -0.55917501159E+03  0.55936988544E+03  0.41800000000E+01 0. -1.
        -11    1    1    2    0    0  0.43642732078E+02 -0.51279765210E+02 -0.19043313562E+03  0.20198782519E+03  0.00000000000E+00 0. -1.
         11    1    1    2    0    0 -0.14424741975E+02  0.25759275685E+02 -0.81636319035E+02  0.86810725434E+02  0.00000000000E+00 0.  1.
</event>
<event>
 7    1  0.2522928E-009  0.1002046E+03  0.7561462E-02  0.1279866E+00
          2   -1    0    0  501    0  0.00000000000E+00  0.00000000000E+00  0.89561291773E+02  0.89561291773E+02  0.00000000000E+00 0. -1.
         -2   -1    0    0    0  501 -0.00000000000E+00 -0.00000000000E+00 -0.19386807499E+03  0.19386807499E+03  0.00000000000E+00 0.  1.
         25    2    1    2    0    0 -0.17856612950E+02  0.40863523884E+02  0.72666615266E+01  0.13300292020E+03  0.12509311013E+03 0.  0.
          5    1    3    3  502    0  0.78285518549E+01 -0.38799809483E+02  0.25455513745E+02  0.47245814842E+02  0.41800000000E+01 0.  1.
         -5    1    3    3    0  502 -0.25685164805E+02  0.79663333367E+02 -0.18188852218E+02  0.85757105357E+02  0.41800000000E+01 0.  1.
        -11    1    1    2    0    0  0.33167764518E+02 -0.45595081981E-02 -0.28688703023E+01  0.33291606160E+02  0.00000000000E+00 0. -1.
         11    1    1    2    0    0 -0.15311151568E+02 -0.40858964376E+02 -0.10870457444E+03  0.11713484041E+03  0.00000000000E+00 0.  1.
</event>
<event>
 7    1  0.2522928E-009  0.1300629E+03  0.7561462E-02  0.1227362E+00
         -2   -1    0    0    0  501 -0.00000000000E+00  0.00000000000E+00  0.13854190024E+03  0.13854190024E+03  0.00000000000E+00 0.  1.
          2   -1    0    0  501    0  0.00000000000E+00 -0.00000000000E+00 -0.15854727268E+03  0.15854727268E+03  0.00000000000E+00 0. -1.
         25    2    1    2    0    0  0.27826894790E+02 -0.93019426900E+02 -0.37733693963E+02  0.16278148029E+03  0.12508808420E+03 0.  0.
          5    1    3    3  502    0 -0.37528600507E+02 -0.34223556164E+02  0.22936901055E+02  0.55885789630E+02  0.41800000000E+01 0. -1.
         -5    1    3    3    0  502  0.65355495297E+02 -0.58795870736E+02 -0.60670595018E+02  0.10689569066E+03  0.41800000000E+01 0. -1.
        -11    1    1    2    0    0 -0.38486955918E+02  0.10083849702E+03 -0.49613818173E+01  0.10804750606E+03  0.00000000000E+00 0. -1.
         11    1    1    2    0    0  0.10660061128E+02 -0.78190701194E+01  0.22689703339E+02  0.26260186564E+02  0.00000000000E+00 0.  1.
</event>
<event>
 7    1  0.2522928E-009  0.1683512E+03  0.7561462E-02  0.1179578E+00
         -2   -1    0    0    0  501 -0.00000000000E+00  0.00000000000E+00  0.31437990102E+02  0.31437990102E+02  0.00000000000E+00 0.  1.
          2   -1    0    0  501    0  0.00000000000E+00 -0.00000000000E+00 -0.92004419297E+03  0.92004419297E+03  0.00000000000E+00 0. -1.
         25    2    1    2    0    0  0.91596069953E+02 -0.92293063557E+02 -0.49042803131E+03  0.52256599181E+03  0.12509081620E+03 0.  0.
          5    1    3    3  502    0  0.10328662827E+03 -0.11409602786E+03 -0.39641928708E+03  0.42526668658E+03  0.41800000000E+01 0. -1.
         -5    1    3    3    0  502 -0.11690558315E+02  0.21802964304E+02 -0.94008744230E+02  0.97299305228E+02  0.41800000000E+01 0. -1.
        -11    1    1    2    0    0  0.11222416399E+02  0.41465387883E+02 -0.13917070090E+03  0.14564959667E+03  0.00000000000E+00 0. -1.
         11    1    1    2    0    0 -0.10281848635E+03  0.50827675674E+02 -0.25900747066E+03  0.28326659459E+03  0.00000000000E+00 0.  1.
</event>
<event>
 7    1  0.2522928E-009  0.1505209E+03  0.7561462E-02  0.1199834E+00
         -2   -1    0    0    0  501 -0.00000000000E+00  0.00000000000E+00  0.83282101267E+02  0.83282101267E+02  0.00000000000E+00 0.  1.
          2   -1    0    0  501    0  0.00000000000E+00 -0.00000000000E+00 -0.35190625551E+03  0.35190625551E+03  0.00000000000E+00 0. -1.
         25    2    1    2    0    0 -0.94621459757E+02  0.82999620487E+02 -0.94067449216E+02  0.20084264949E+03  0.12508767807E+03 0.  0.
          5    1    3    3  502    0 -0.11947997918E+03  0.81987836845E+02 -0.56491631709E+02  0.15558357133E+03  0.41800000000E+01 0.  1.
         -5    1    3    3    0  502  0.24858519425E+02  0.10117836423E+01 -0.37575817507E+02  0.45259078155E+02  0.41800000000E+01 0.  1.
        -11    1    1    2    0    0  0.63360993992E+02 -0.31882039398E+02 -0.28437560466E+02  0.76418419514E+02  0.00000000000E+00 0.  1.
         11    1    1    2    0    0  0.31260465765E+02 -0.51117581090E+02 -0.14611914456E+03  0.15792728777E+03  0.00000000000E+00 0. -1.
</event>
<event>
 7    1  0.4650708E-009  0.4700293E+02  0.7561462E-02  0.1462212E+00
          1   -1    0    0  501    0  0.00000000000E+00  0.00000000000E+00  0.80127438423E+03  0.80127438423E+03  0.00000000000E+00 0. -1.
         -1   -1    0    0    0  501 -0.00000000000E+00 -0.00000000000E+00 -0.18540147045E+02  0.18540147045E+02  0.00000000000E+00 0.  1.
         25    2    1    2    0    0 -0.25400423926E+01 -0.17929740437E+02  0.61593556654E+03  0.62876880500E+03  0.12508261509E+03 0.  0.
          5    1    3    3  502    0  0.14312618039E+02 -0.21916604518E+02  0.60911676462E+03  0.60969327857E+03  0.41800000000E+01 0.  1.
         -5    1    3    3    0  502 -0.16852660432E+02  0.39868640810E+01  0.68188019195E+01  0.19075526427E+02  0.41800000000E+01 0.  1.
        -11    1    1    2    0    0 -0.35442952336E+01 -0.15399909687E+02 -0.44983428784E+01  0.16430287147E+02  0.00000000000E+00 0.  1.
         11    1    1    2    0    0  0.60843376261E+01  0.33329650124E+02  0.17129701352E+03  0.17461543913E+03  0.00000000000E+00 0. -1.
</event>
<event>
 7    1  0.2522928E-009  0.9163399E+02  0.7561462E-02  0.1298942E+00
          2   -1    0    0  501    0  0.00000000000E+00  0.00000000000E+00  0.26926180628E+03  0.26926180628E+03  0.00000000000E+00 0. -1.
         -2   -1    0    0    0  501 -0.00000000000E+00 -0.00000000000E+00 -0.53315661686E+02  0.53315661686E+02  0.00000000000E+00 0.  1.
         25    2    1    2    0    0  0.49556101572E+02  0.11132376424E+02  0.10991000283E+03  0.17409012781E+03  0.12508967532E+03 0.  0.
          5    1    3    3  502    0 -0.20147889853E-01 -0.21329397293E+02 -0.21067849848E+02  0.30269956921E+02  0.41800000000E+01 0.  1.
         -5    1    3    3    0  502  0.49576249462E+02  0.32461773716E+02  0.13097785267E+03  0.14382017089E+03  0.41800000000E+01 0.  1.
        -11    1    1    2    0    0 -0.45685097932E+02 -0.47295674753E+02  0.54479723978E+02  0.85393497107E+02  0.00000000000E+00 0.  1.
         11    1    1    2    0    0 -0.38710036398E+01  0.36163298329E+02  0.51556417787E+02  0.63093843046E+02  0.00000000000E+00 0. -1.
</event>
<event>
 7    1  0.2522928E-009  0.1004628E+03  0.7561462E-02  0.1279326E+00
          1   -1    0    0  501    0  0.00000000000E+00  0.00000000000E+00  0.15840205405E+04  0.15840205405E+04  0.00000000000E+00 0. -1.
         -1   -1    0    0    0  501 -0.00000000000E+00 -0.00000000000E+00 -0.12364201049E+02  0.12364201049E+02  0.00000000000E+00 0.  1.
         25    2    1    2    0    0 -0.20704880941E+02  0.18489423155E+02  0.13327440005E+04  0.13388890965E+04  0.12508753326E+03 0.  0.
          5    1    3    3  502    0  0.36612794708E+02 -0.21277834617E+02  0.22800952264E+03  0.23194623902E+03  0.41800000000E+01 0. -1.
         -5    1    3    3    0  502 -0.57317675649E+02  0.39767257772E+02  0.11047344778E+04  0.11069428574E+04  0.41800000000E+01 0. -1.
        -11    1    1    2    0    0  0.40645945184E+02 -0.41464626367E+02  0.10317841922E+03  0.11839423251E+03  0.00000000000E+00 0.  1.
         11    1    1    2    0    0 -0.19941064243E+02  0.22975203211E+02  0.13573391978E+03  0.13910141259E+03  0.00000000000E+00 0. -1.
</event>
<event>
 7    1  0.2537603E-009  0.2388490E+03  0.7561462E-02  0.1120562E+00
          2   -1    0    0  501    0  0.00000000000E+00  0.00000000000E+00  0.13475847184E+04  0.13475847184E+04  0.00000000000E+00 0.  1.
         -2   -1    0    0    0  501 -0.00000000000E+00 -0.00000000000E+00 -0.54086862459E+02  0.54086862459E+02  0.00000000000E+00 0. -1.
         25    2    1    2    0    0 -0.21850722269E+03 -0.21668749949E+02  0.37001901639E+03  0.44808310091E+03  0.12509776875E+03 0.  0.
          5    1    3    3  502    0 -0.18035811025E+03  0.22230778044E+02  0.20984107427E+03  0.27762205294E+03  0.41800000000E+01 0. -1.
         -5    1    3    3    0  502 -0.38149112442E+02 -0.43899527992E+02  0.16017794211E+03  0.17046104798E+03  0.41800000000E+01 0. -1.
        -11    1    1    2    0    0  0.15518161791E+03 -0.27302995781E+02  0.62637350711E+03  0.64588741939E+03  0.00000000000E+00 0.  1.
         11    1    1    2    0    0  0.63325604785E+02  0.48971745729E+02  0.29710533247E+03  0.30770106058E+03  0.00000000000E+00 0. -1.
</event>
<event>
 7    1  0.2977851E-009  0.3120709E+03  0.7561462E-02  0.1079357E+00
         -1   -1    0    0    0  501 -0.00000000000E+00  0.00000000000E+00  0.90159111062E+02  0.90159111062E+02  0.00000000000E+00 0.  1.
          1   -1    0    0  501    0  0.00000000000E+00 -0.00000000000E+00 -0.11684522837E+04  0.11684522837E+04  0.00000000000E+00 0. -1.
         25    2    1    2    0    0  0.26863050947E+03  0.13306618822E+03 -0.66485367633E+03  0.73996452975E+03  0.12509249891E+03 0.  0.
          5    1    3    3  502    0  0.16384442337E+03  0.26726056520E+02 -0.26069486968E+03  0.30909313264E+03  0.41800000000E+01 0.  1.
         -5    1    3    3    0  502  0.10478608609E+03  0.10634013170E+03 -0.40415880665E+03  0.43087139710E+03  0.41800000000E+01 0.  1.
        -11    1    1    2    0    0 -0.15907700430E+03 -0.37705380848E+02 -0.17524299020E+03  0.23966079082E+03  0.00000000000E+00 0.  1.
         11    1    1    2    0    0 -0.10955350516E+03 -0.95360807376E+02 -0.23819650614E+03  0.27898607423E+03  0.00000000000E+00 0. -1.
</event>
<event>
 7    1  0.2522928E-009  0.1666194E+03  0.7561462E-02  0.1181420E+00
          2   -1    0    0  501    0  0.00000000000E+00  0.00000000000E+00  0.13432886908E+04  0.13432886908E+04  0.00000000000E+00 0. -1.
         -2   -1    0    0    0  501 -0.00000000000E+00 -0.00000000000E+00 -0.28748591112E+02  0.28748591112E+02  0.00000000000E+00 0.  1.
         25    2    1    2    0    0  0.15744200942E+03 -0.31380691543E+02  0.53733314517E+03  0.57458586387E+03  0.12509705003E+03 0.  0.
          5    1    3    3  502    0  0.65712774990E+02 -0.49132085065E+01  0.64898141713E+02  0.92582663672E+02  0.41800000000E+01 0.  1.
         -5    1    3    3    0  502  0.91729234425E+02 -0.26467483037E+02  0.47243500346E+03  0.48200320019E+03  0.41800000000E+01 0.  1.
        -11    1    1    2    0    0 -0.12810306422E+03  0.49307718554E+02  0.69357735501E+03  0.70702983922E+03  0.00000000000E+00 0. -1.
         11    1    1    2    0    0 -0.29338945198E+02 -0.17927027011E+02  0.83629599511E+02  0.90421578825E+02  0.00000000000E+00 0.  1.
</event>
<event>
 7    1  0.2522928E-009  0.1757483E+03  0.7561462E-02  0.1171982E+00
          2   -1    0    0  501    0  0.00000000000E+00  0.00000000000E+00  0.13762213989E+04  0.13762213989E+04  0.00000000000E+00 0. -1.
         -2   -1    0    0    0  501 -0.00000000000E+00 -0.00000000000E+00 -0.33167632915E+02  0.33167632915E+02  0.00000000000E+00 0.  1.
         25    2    1    2    0    0  0.15919624249E+03 -0.15672081944E+02  0.99654156225E+03  0.10170213627E+04  0.12509320142E+03 0.  0.
          5    1    3    3  502    0  0.12231035241E+03  0.17057184456E+02  0.90089670423E+03  0.90933113547E+03  0.41800000000E+01 0.  1.
         -5    1    3    3    0  502  0.36885890084E+02 -0.32729266400E+02  0.95644858024E+02  0.10769022719E+03  0.41800000000E+01 0.  1.
        -11    1    1    2    0    0 -0.15105244439E+03  0.37080318150E+02  0.26089906394E+03  0.30374349790E+03  0.00000000000E+00 0.  1.
         11    1    1    2    0    0 -0.81437980965E+01 -0.21408236207E+02  0.85613139841E+02  0.88624171299E+02  0.00000000000E+00 0. -1.
</event>
<event>
 7    1  0.2522928E-009  0.9851303E+02  0.7561462E-02  0.1283454E+00
         -1   -1    0    0    0  501 -0.00000000000E+00  0.00000000000E+00  0.96580348322E+02  0.96580348322E+02  0.00000000000E+00 0.  1.
          1   -1    0    0  501    0  0.00000000000E+00 -0.00000000000E+00 -0.15551791071E+03  0.15551791071E+03  0.00000000000E+00 0. -1.
         25    2    1    2    0    0  0.48632247436E+02 -0.15971107783E+02 -0.59259779082E+02  0.14757451838E+03  0.12508535199E+03 0.  0.
          5    1    3    3  502    0  0.81451012695E+02 -0.32018763242E+02 -0.66627095448E+02  0.11007320708E+03  0.41800000000E+01 0.  1.
         -5    1    3    3    0  502 -0.32818765259E+02  0.16047655459E+02  0.73673163657E+01  0.37501311301E+02  0.41800000000E+01 0.  1.
        -11    1    1    2    0    0 -0.49735211163E+02  0.30318428441E+02 -0.33903439760E+02  0.67396153897E+02  0.00000000000E+00 0. -1.
         11    1    1    2    0    0  0.11029637272E+01 -0.14347320658E+02  0.34225656451E+02  0.37127586759E+02  0.00000000000E+00 0.  1.
</event>
<event>
 7    1  0.2522928E-009  0.2561418E+03  0.7561462E-02  0.1109484E+00
         -1   -1    0    0    0  501 -0.00000000000E+00  0.00000000000E+00  0.14519761699E+03  0.14519761699E+03  0.00000000000E+00 0.  1.
          1   -1    0    0  501    0  0.00000000000E+00 -0.00000000000E+00 -0.45867370705E+03  0.45867370705E+03  0.00000000000E+00 0. -1.
         25    2    1    2    0    0  0.15517653541E+03 -0.17248223514E+03 -0.19603497115E+03  0.32849356851E+03  0.12509370909E+03 0.  0.
          5    1    3    3  502    0  0.24432734697E+02  0.19154211819E+02 -0.18950170741E+02  0.36611797638E+02  0.41800000000E+01 0. -1.
         -5    1    3    3    0  502  0.13074380071E+03 -0.19163644696E+03 -0.17708480041E+03  0.29188177087E+03  0.41800000000E+01 0. -1.
        -11    1    1    2    0    0 -0.70527948300E+02  0.18016601575E+02 -0.38678984833E+02  0.82430900101E+02  0.00000000000E+00 0. -1.
         11    1    1    2    0    0 -0.84648587112E+02  0.15446563357E+03 -0.78762134083E+02  0.19294685543E+03  0.00000000000E+00 0.  1.
</event>
<event>
 7    1  0.2522928E-009  0.1014277E+03  0.7561462E-02  0.1277322E+00
          2   -1    0    0  501    0  0.00000000000E+00  0.00000000000E+00  0.18939386707E+03  0.18939386707E+03  0.00000000000E+00 0. -1.
         -2   -1    0    0    0  501 -0.00000000000E+00 -0.00000000000E+00 -0.81975374786E+02  0.81975374786E+02  0.00000000000E+00 0.  1.
         25    2    1    2    0    0  0.46310043505E+02  0.96409174693E+01  0.16622639237E+02  0.13476268685E+03  0.12508837761E+03 0.  0.
          5    1    3    3  502    0  0.63252656188E+02 -0.41188200900E+02 -0.72784755410E+01  0.75946132321E+02  0.41800000000E+01 0.  1.
         -5    1    3    3    0  502 -0.16942612683E+02  0.50829118370E+02  0.23901114778E+02  0.58816554527E+02  0.41800000000E+01 0.  1.
        -11    1    1    2    0    0 -0.11247958525E+02  0.23006793741E+02  0.84488811111E+02  0.88284700443E+02  0.00000000000E+00 0. -1.
         11    1    1    2    0    0 -0.35062084981E+02 -0.32647711211E+02  0.63070419320E+01  0.48321854563E+02  0.00000000000E+00 0.  1.
</event>
<event>
 7    1  0.2522928E-009  0.1151330E+03  0.7561462E-02  0.1251349E+00
         -2   -1    0    0    0  501 -0.00000000000E+00  0.00000000000E+00  0.17705441256E+02  0.17705441256E+02  0.00000000000E+00 0. -1.
          2   -1    0    0  501    0  0.00000000000E+00 -0.00000000000E+00 -0.12772693171E+04  0.12772693171E+04  0.00000000000E+00 0.  1.
         25    2    1    2    0    0  0.99849414552E+02  0.10413266995E+02 -0.57762121009E+03  0.59947673750E+03  0.12509098585E+03 0.  0.
          5    1    3    3  502    0  0.57724321659E+02  0.19659943721E+01 -0.53728737269E+03  0.54039907077E+03  0.41800000000E+01 0. -1.
         -5    1    3    3    0  502  0.42125092893E+02  0.84472726226E+01 -0.40333837400E+02  0.59077666723E+02  0.41800000000E+01 0. -1.
        -11    1    1    2    0    0 -0.11313266072E+03 -0.14059398016E+01 -0.64974391831E+03  0.65952114066E+03  0.00000000000E+00 0.  1.
         11    1    1    2    0    0  0.13283246165E+02 -0.90073271930E+01 -0.32198747398E+02  0.35976880157E+02  0.00000000000E+00 0. -1.
</event>
<event>
 7    1  0.2522928E-009  0.2107763E+03  0.7561462E-02  0.1140953E+00
         -1   -1    0    0    0  501 -0.00000000000E+00  0.00000000000E+00  0.11771882105E+03  0.11771882105E+03  0.00000000000E+00 0.  1.
          1   -1    0    0  501    0  0.00000000000E+00 -0.00000000000E+00 -0.75816682755E+03  0.75816682755E+03  0.00000000000E+00 0. -1.
         25    2    1    2    0    0  0.17782139700E+03  0.86030935924E+02 -0.62383381429E+03  0.66621213715E+03  0.12509281622E+03 0.  0.
          5    1    3    3  502    0  0.11605248127E+01  0.25966675868E+02 -0.21722048301E+03  0.21881002196E+03  0.41800000000E+01 0.  1.
         -5    1    3    3    0  502  0.17666087219E+03  0.60064260056E+02 -0.40661333128E+03  0.44740211519E+03  0.41800000000E+01 0.  1.
        -11    1    1    2    0    0 -0.36278406483E+02 -0.51323170002E+02 -0.11171635750E+02  0.63835695354E+02  0.00000000000E+00 0.  1.
         11    1    1    2    0    0 -0.14154299052E+03 -0.34707765922E+02 -0.54425564611E+01  0.14583781609E+03  0.00000000000E+00 0. -1.
</event>
<event>
 7    1  0.2522928E-009  0.9542199E+02  0.7561462E-02  0.1290228E+00
         -2   -1    0    0    0  501 -0.00000000000E+00  0.00000000000E+00  0.21966804068E+02  0.21966804068E+02  0.00000000000E+00 0.  1.
          2   -1    0    0  501    0  0.00000000000E+00 -0.00000000000E+00 -0.53213154777E+03  0.53213154777E+03  0.00000000000E+00 0. -1.
         25    2    1    2    0    0  0.90379156450E+01 -0.14620300762E+02 -0.31679242237E+03  0.34102877672E+03  0.12509096915E+03 0.  0.
          5    1    3    3  502    0 -0.42674844052E+02 -0.25788027317E+02 -0.25368774373E+03  0.25857515037E+03  0.41800000000E+01 0. -1.
         -5    1    3    3    0  502  0.51712759697E+02  0.11167726554E+02 -0.63104678640E+02  0.82453626350E+02  0.41800000000E+01 0. -1.
        -11    1    1    2    0    0  0.20094550219E+02  0.42752483488E+02 -0.82997154421E+02  0.95499180284E+02  0.00000000000E+00 0. -1.
         11    1    1    2    0    0 -0.29132465864E+02 -0.28132182725E+02 -0.11037516691E+03  0.11757039484E+03  0.00000000000E+00 0.  1.
</event>
<event>
 7    1  0.2522928E-009  0.1343554E+03  0.7561462E-02  0.1221133E+00
          1   -1    0    0  501    0  0.00000000000E+00  0.00000000000E+00  0.34429140321E+03  0.34429140321E+03  0.00000000000E+00 0. -1.
         -1   -1    0    0    0  501 -0.00000000000E+00 -0.00000000000E+00 -0.56408259179E+02  0.56408259179E+02  0.00000000000E+00 0.  1.
         25    2    1    2    0    0  0.86236791840E+02 -0.15397175241E+01  0.14051930666E+03  0.20696054509E+03  0.12509131337E+03 0.  0.
          5    1    3    3  502    0  0.86198173912E+02 -0.52055818243E+02  0.10104099914E+03  0.14271191017E+03  0.41800000000E+01 0. -1.
         -5    1    3    3    0  502  0.38617927322E-01  0.50516100719E+02  0.39478307524E+02  0.64248634913E+02  0.41800000000E+01 0. -1.
        -11    1    1    2    0    0 -0.17544775602E+02 -0.35205811846E+02  0.19235199109E+02  0.43786541579E+02  0.00000000000E+00 0.  1.
         11    1    1    2    0    0 -0.68692016238E+02  0.36745529370E+02  0.12812863826E+03  0.14995257572E+03  0.00000000000E+00 0. -1.
</event>
<event>
 7    1  0.2528043E-009  0.1134002E+03  0.7561462E-02  0.1254400E+00
          1   -1    0    0  501    0  0.00000000000E+00  0.00000000000E+00  0.16391873068E+04  0.16391873068E+04  0.00000000000E+00 0. -1.
         -1   -1    0    0    0  501 -0.00000000000E+00 -0.00000000000E+00 -0.11530691823E+02  0.11530691823E+02  0.00000000000E+00 0.  1.
         25    2    1    2    0    0  0.94123126182E+01  0.71483888494E+02  0.11613653364E+04  0.11703057930E+04  0.12509063403E+03 0.  0.
          5    1    3    3  502    0 -0.39383290020E+02  0.49431863281E+02  0.95390433499E+03  0.95600497140E+03  0.41800000000E+01 0. -1.
         -5    1    3    3    0  502  0.48795602638E+02  0.22052025213E+02  0.20746100137E+03  0.21430082161E+03  0.41800000000E+01 0. -1.
        -11    1    1    2    0    0 -0.44200859762E+02 -0.22304301260E+02  0.13735770633E+03  0.14600800439E+03  0.00000000000E+00 0.  1.
         11    1    1    2    0    0  0.34788547144E+02 -0.49179587234E+02  0.32893357228E+03  0.33440420120E+03  0.00000000000E+00 0. -1.
</event>
<event>
 7    1  0.2522928E-009  0.1406795E+03  0.7561462E-02  0.1212418E+00
         -2   -1    0    0    0  501 -0.00000000000E+00  0.00000000000E+00  0.11801890017E+03  0.11801890017E+03  0.00000000000E+00 0.  1.
          2   -1    0    0  501    0  0.00000000000E+00 -0.00000000000E+00 -0.21505410779E+03  0.21505410779E+03  0.00000000000E+00 0. -1.
         25    2    1    2    0    0  0.65380325582E+02 -0.92946925295E+02 -0.36821464732E+02  0.17296493617E+03  0.12508929204E+03 0.  0.
          5    1    3    3  502    0  0.84157865864E+02 -0.11177680296E+03 -0.20466756899E+02  0.14146717148E+03  0.41800000000E+01 0.  1.
         -5    1    3    3    0  502 -0.18777540282E+02  0.18829877670E+02 -0.16354707832E+02  0.31497764689E+02  0.41800000000E+01 0.  1.
        -11    1    1    2    0    0 -0.13512532562E+02  0.10747718920E+02  0.25313025498E+02  0.30640679792E+02  0.00000000000E+00 0.  1.
         11    1    1    2    0    0 -0.51867793020E+02  0.82199206375E+02 -0.85526768383E+02  0.12946739200E+03  0.00000000000E+00 0. -1.
</event>
<event>
 7    1  0.2522928E-009  0.1270931E+03  0.7561462E-02  0.1231834E+00
         -1   -1    0    0    0  501 -0.00000000000E+00  0.00000000000E+00  0.21286653245E+02  0.21286653245E+02  0.00000000000E+00 0.  1.
          1   -1    0    0  501    0  0.00000000000E+00 -0.00000000000E+00 -0.84761217766E+03  0.84761217766E+03  0.00000000000E+00 0. -1.
         25    2    1    2    0    0  0.60250980347E+01 -0.78444350902E+02 -0.46591895975E+03  0.48880260428E+03  0.12513069526E+03 0.  0.
          5    1    3    3  502    0  0.59020340839E+02 -0.82722677924E+01 -0.19327579255E+03  0.20229887650E+03  0.41800000000E+01 0. -1.
         -5    1    3    3    0  502 -0.52995242804E+02 -0.70172083109E+02 -0.27264316720E+03  0.28650372778E+03  0.41800000000E+01 0. -1.
        -11    1    1    2    0    0  0.32524433052E+02  0.43970710313E+02 -0.94313957293E+02  0.10902469744E+03  0.00000000000E+00 0.  1.
         11    1    1    2    0    0 -0.38549531087E+02  0.34473640589E+02 -0.26609260736E+03  0.27107152919E+03  0.00000000000E+00 0. -1.
</event>
<event>
 7    1  0.2522928E-009  0.6811445E+02  0.7561462E-02  0.1366625E+00
          1   -1    0    0  501    0  0.00000000000E+00  0.00000000000E+00  0.43947417181E+03  0.43947417181E+03  0.00000000000E+00 0. -1.
         -1   -1    0    0    0  501 -0.00000000000E+00 -0.00000000000E+00 -0.36491807186E+02  0.36491807186E+02  0.00000000000E+00 0.  1.
         25    2    1    2    0    0  0.40791593719E+02  0.48903685384E+02  0.20673515321E+03  0.24988617783E+03  0.12509258066E+03 0.  0.
          5    1    3    3  502    0  0.45658978109E+02  0.47092542900E+02  0.28687869096E+02  0.71714127702E+02  0.41800000000E+01 0.  1.
         -5    1    3    3    0  502 -0.48673843904E+01  0.18111424836E+01  0.17804728411E+03  0.17817205013E+03  0.41800000000E+01 0.  1.
        -11    1    1    2    0    0 -0.94241586903E+01 -0.85460874261E+01 -0.83347472546E+01  0.15209154780E+02  0.00000000000E+00 0.  1.
         11    1    1    2    0    0 -0.31367435029E+02 -0.40357597958E+02  0.20458195867E+03  0.21087064639E+03  0.00000000000E+00 0. -1.
</event>
<event>
 7    1  0.2522928E-009  0.1046452E+03  0.7561462E-02  0.1270820E+00
          2   -1    0    0  501    0  0.00000000000E+00  0.00000000000E+00  0.29654503405E+03  0.29654503405E+03  0.00000000000E+00 0. -1.
         -2   -1    0    0    0  501 -0.00000000000E+00 -0.00000000000E+00 -0.47194627134E+02  0.47194627134E+02  0.00000000000E+00 0.  1.
         25    2    1    2    0    0 -0.71536105868E+01  0.22817043763E+02  0.78523723862E+02  0.14961581254E+03  0.12508846678E+03 0.  0.
          5    1    3    3  502    0  0.23378957847E+02  0.64444777294E+02  0.68225030850E+02  0.96808223953E+02  0.41800000000E+01 0.  1.
         -5    1    3    3    0  502 -0.30532568434E+02 -0.41627733531E+02  0.10298693012E+02  0.52807588582E+02  0.41800000000E+01 0.  1.
        -11    1    1    2    0    0 -0.17704062832E+01 -0.55198253537E+02  0.13007876646E+03  0.14131690280E+03  0.00000000000E+00 0. -1.
         11    1    1    2    0    0  0.89240168700E+01  0.32381209774E+02  0.40747916589E+02  0.52806945848E+02  0.00000000000E+00 0.  1.
</event>
<event>
 7    1  0.2522928E-009  0.1635896E+03  0.7561462E-02  0.1184703E+00
         -1   -1    0    0    0  501 -0.00000000000E+00  0.00000000000E+00  0.37648367123E+03  0.37648367123E+03  0.00000000000E+00 0.  1.
          1   -1    0    0  501    0  0.00000000000E+00 -0.00000000000E+00 -0.76157998298E+02  0.76157998298E+02  0.00000000000E+00 0. -1.
         25    2    1    2    0    0 -0.61389142320E+01 -0.12547040733E+03  0.20648159943E+03  0.27214496136E+03  0.12509084581E+03 0.  0.
          5    1    3    3  502    0 -0.43404547419E+02 -0.13022928034E+03  0.14304491671E+03  0.19830012806E+03  0.41800000000E+01 0. -1.
         -5    1    3    3    0  502  0.37265633187E+02  0.47588730138E+01  0.63436682728E+02  0.73844833297E+02  0.41800000000E+01 0. -1.
        -11    1    1    2    0    0  0.23234505862E+02  0.13178603039E+03  0.91526742506E+02  0.16212508955E+03  0.00000000000E+00 0.  1.
         11    1    1    2    0    0 -0.17095591630E+02 -0.63156230598E+01  0.23173309955E+01  0.18371618621E+02  0.00000000000E+00 0. -1.
</event>
<event>
 7    1  0.2522928E-009  0.1382751E+03  0.7561462E-02  0.1215669E+00
          1   -1    0    0  501    0  0.00000000000E+00  0.00000000000E+00  0.44891094748E+03  0.44891094748E+03  0.00000000000E+00 0. -1.
         -1   -1    0    0    0  501 -0.00000000000E+00 -0.00000000000E+00 -0.81116710390E+02  0.81116710390E+02  0.00000000000E+00 0.  1.
         25    2    1    2    0    0  0.80931033530E+02 -0.89854221583E+02  0.57337806037E+02  0.18319329670E+03  0.12509415106E+03 0.  0.
          5    1    3    3  502    0  0.30589501430E+02 -0.55331454341E+02  0.92880188376E+02  0.11243437744E+03  0.41800000000E+01 0.  1.
         -5    1    3    3    0  502  0.50341532100E+02 -0.34522767242E+02 -0.35542382339E+02  0.70758919258E+02  0.41800000000E+01 0.  1.
        -11    1    1    2    0    0 -0.79798898130E+02  0.10774443474E+03  0.29086245733E+03  0.32027753034E+03  0.00000000000E+00 0.  1.
         11    1    1    2    0    0 -0.11321354003E+01 -0.17890213158E+02  0.19593973731E+02  0.26556830834E+02  0.00000000000E+00 0. -1.
</event>
<event>
 7    1  0.2522928E-009  0.1888072E+03  0.7561462E-02  0.1159542E+00
          2   -1    0    0  501    0  0.00000000000E+00  0.00000000000E+00  0.28093990876E+03  0.28093990876E+03  0.00000000000E+00 0. -1.
         -2   -1    0    0    0  501 -0.00000000000E+00 -0.00000000000E+00 -0.16734601049E+03  0.16734601049E+03  0.00000000000E+00 0.  1.
         25    2    1    2    0    0  0.15545839309E+03  0.54309979370E+02  0.15054640915E+03  0.25578729305E+03  0.12508410027E+03 0.  0.
          5    1    3    3  502    0 -0.19157479330E+02  0.21446975171E+02  0.20774363302E+02  0.35721538724E+02  0.41800000000E+01 0. -1.
         -5    1    3    3    0  502  0.17461587242E+03  0.32863004199E+02  0.12977204584E+03  0.22006575433E+03  0.41800000000E+01 0. -1.
        -11    1    1    2    0    0 -0.11481944191E+03 -0.60391292627E+02 -0.62614080122E+02  0.14405254422E+03  0.00000000000E+00 0.  1.
         11    1    1    2    0    0 -0.40638951177E+02  0.60813132574E+01  0.25661569240E+02  0.48446081983E+02  0.00000000000E+00 0. -1.
</event>
<event>
 7    1  0.2522928E-009  0.2448552E+03  0.7561462E-02  0.1116600E+00
         -1   -1    0    0    0  501 -0.00000000000E+00  0.00000000000E+00  0.99696628195E+02  0.99696628195E+02  0.00000000000E+00 0.  1.
          1   -1    0    0  501    0  0.00000000000E+00 -0.00000000000E+00 -0.65994906013E+03  0.65994906013E+03  0.00000000000E+00 0. -1.
         25    2    1    2    0    0 -0.13794499961E+03 -0.18795198167E+03 -0.29545320388E+03  0.39660396867E+03  0.12508933589E+03 0.  0.
          5    1    3    3  502    0 -0.15131566537E+03 -0.18888194259E+03 -0.24568484924E+03  0.34489322459E+03  0.41800000000E+01 0. -1.
         -5    1    3    3    0  502  0.13370665758E+02  0.92996092070E+00 -0.49768354638E+02  0.51710744082E+02  0.41800000000E+01 0. -1.
        -11    1    1    2    0    0  0.41819467830E+02  0.68944822528E+02 -0.37189962700E+02  0.88799491939E+02  0.00000000000E+00 0.  1.
         11    1    1    2    0    0  0.96125531777E+02  0.11900715914E+03 -0.22760926536E+03  0.27424222772E+03  0.00000000000E+00 0. -1.
</event>
<event>
 7    1  0.2522928E-009  0.1516271E+03  0.7561462E-02  0.1198488E+00
          2   -1    0    0  501    0  0.00000000000E+00  0.00000000000E+00  0.32568626602E+02  0.32568626602E+02  0.00000000000E+00 0. -1.
         -2   -1    0    0    0  501 -0.00000000000E+00 -0.00000000000E+00 -0.82209176589E+03  0.82209176589E+03  0.00000000000E+00 0.  1.
         25    2    1    2    0    0  0.76179251532E+02 -0.92725609179E+02 -0.48134478273E+03  0.51160628891E+03  0.12508748151E+03 0.  0.
          5    1    3    3  502    0  0.10758856716E+03 -0.52063122385E+02 -0.29661118796E+03  0.31981484912E+03  0.41800000000E+01 0. -1.
         -5    1    3    3    0  502 -0.31409315624E+02 -0.40662486794E+02 -0.18473359477E+03  0.19179143979E+03  0.41800000000E+01 0. -1.
        -11    1    1    2    0    0  0.77059557085E+01  0.18716498392E+02 -0.64306353110E+01  0.21237752611E+02  0.00000000000E+00 0. -1.
         11    1    1    2    0    0 -0.83885207240E+02  0.74009110786E+02 -0.30174772125E+03  0.32181635097E+03  0.00000000000E+00 0.  1.
</event>
<event>
 7    1  0.2522928E-009  0.1079462E+03  0.7561462E-02  0.1264421E+00
          1   -1    0    0  501    0  0.00000000000E+00  0.00000000000E+00  0.22227144356E+02  0.22227144356E+02  0.00000000000E+00 0. -1.
         -1   -1    0    0    0  501 -0.00000000000E+00 -0.00000000000E+00 -0.59838778803E+03  0.59838778803E+03  0.00000000000E+00 0.  1.
         25    2    1    2    0    0 -0.26578949102E+02  0.23317158522E+02 -0.37260543105E+03  0.39463366940E+03  0.12510313889E+03 0.  0.
          5    1    3    3  502    0  0.37824828352E+02 -0.25142440589E+02 -0.18235213455E+03  0.18796976708E+03  0.41800000000E+01 0. -1.
         -5    1    3    3    0  502 -0.64403777454E+02  0.48459599111E+02 -0.19025329650E+03  0.20666390233E+03  0.41800000000E+01 0. -1.
        -11    1    1    2    0    0  0.44555166997E+02 -0.43692053624E+02 -0.17822566328E+03  0.18883470419E+03  0.00000000000E+00 0.  1.
         11    1    1    2    0    0 -0.17976217895E+02  0.20374895102E+02 -0.25329549348E+02  0.37146558796E+02  0.00000000000E+00 0. -1.
</event>
<event>
 7    1  0.2522928E-009  0.1844554E+03  0.7561462E-02  0.1163559E+00
          2   -1    0    0  501    0  0.00000000000E+00  0.00000000000E+00  0.29587709968E+03  0.29587709968E+03  0.00000000000E+00 0. -1.
         -2   -1    0    0    0  501 -0.00000000000E+00 -0.00000000000E+00 -0.25464453961E+03  0.25464453961E+03  0.00000000000E+00 0.  1.
         25    2    1    2    0    0  0.12701387427E+03 -0.12814808834E+03 -0.15526025691E+03  0.26890050417E+03  0.12508907613E+03 0.  0.
          5    1    3    3  502    0  0.24306806707E+02 -0.37339525985E+02  0.17729589254E+02  0.48133894380E+02  0.41800000000E+01 0. -1.
         -5    1    3    3    0  502  0.10270706756E+03 -0.90808562351E+02 -0.17298984616E+03  0.22076660979E+03  0.41800000000E+01 0. -1.
        -11    1    1    2    0    0 -0.70025781904E+02  0.10338242197E+03  0.17678118518E+03  0.21643272104E+03  0.00000000000E+00 0. -1.
         11    1    1    2    0    0 -0.56988092362E+02  0.24765666369E+02  0.19711631798E+02  0.65188414078E+02  0.00000000000E+00 0.  1.
</event>
<event>
 7    1  0.2522928E-009  0.1113255E+03  0.7561462E-02  0.1258135E+00
         -2   -1    0    0    0  501 -0.00000000000E+00  0.00000000000E+00  0.35325529983E+02  0.35325529983E+02  0.00000000000E+00 0.  1.
          2   -1    0    0  501    0  0.00000000000E+00 -0.00000000000E+00 -0.57187816125E+03  0.57187816125E+03  0.00000000000E+00 0. -1.
         25    2    1    2    0    0  0.10486606166E+02 -0.68947224931E+02 -0.26420548249E+03  0.30052559392E+03  0.12508959544E+03 0.  0.
          5    1    3    3  502    0  0.48030304481E+02  0.19317243668E+01 -0.41027784556E+02  0.63335560415E+02  0.41800000000E+01 0.  1.
         -5    1    3    3    0  502 -0.37543698315E+02 -0.70878949298E+02 -0.22317769794E+03  0.23719003350E+03  0.41800000000E+01 0.  1.
        -11    1    1    2    0    0  0.16992948459E+02 -0.28288168404E+01  0.57460968641E+01  0.18159849427E+02  0.00000000000E+00 0.  1.
         11    1    1    2    0    0 -0.27479554624E+02  0.71776041771E+02 -0.27809324564E+03  0.28851824789E+03  0.00000000000E+00 0. -1.
</event>
<event>
 7    1  0.2522928E-009  0.2076757E+03  0.7561462E-02  0.1143420E+00
          1   -1    0    0  501    0  0.00000000000E+00  0.00000000000E+00  0.44157186262E+03  0.44157186262E+03  0.00000000000E+00 0. -1.
         -1   -1    0    0    0  501 -0.00000000000E+00 -0.00000000000E+00 -0.12142686946E+03  0.12142686946E+03  0.00000000000E+00 0.  1.
         25    2    1    2    0    0  0.18513559264E+03  0.12416075566E+02  0.26919325464E+03  0.35005975734E+03  0.12508988277E+03 0.  0.
          5    1    3    3  502    0  0.68014445113E+02  0.65844444001E+02  0.10644834161E+03  0.14251377962E+03  0.41800000000E+01 0. -1.
         -5    1    3    3    0  502  0.11712114753E+03 -0.53428368435E+02  0.16274491303E+03  0.20754597772E+03  0.41800000000E+01 0. -1.
        -11    1    1    2    0    0 -0.10720563380E+03 -0.31159039357E+02 -0.10222602502E+02  0.11210903288E+03  0.00000000000E+00 0.  1.
         11    1    1    2    0    0 -0.77929958841E+02  0.18742963790E+02  0.61174341019E+02  0.10082994186E+03  0.00000000000E+00 0. -1.
</event>
<event>
 7    1  0.2522928E-009  0.1109423E+03  0.7561462E-02  0.1258835E+00
          2   -1    0    0  501    0  0.00000000000E+00  0.00000000000E+00  0.25697172081E+03  0.25697172081E+03  0.00000000000E+00 0. -1.
         -2   -1    0    0    0  501 -0.00000000000E+00 -0.00000000000E+00 -0.55910927967E+02  0.55910927967E+02  0.00000000000E+00 0.  1.
         25    2    1    2    0    0  0.28509057440E+02 -0.30550908634E+02  0.83420295172E+02  0.15605852694E+03  0.12509673781E+03 0.  0.
          5    1    3    3  502    0  0.67225014048E+02 -0.53500839210E+02  0.47065494644E+02  0.98051902052E+02  0.41800000000E+01 0. -1.
         -5    1    3    3    0  502 -0.38715956608E+02  0.22949930575E+02  0.36354800527E+02  0.58006624888E+02  0.41800000000E+01 0. -1.
        -11    1    1    2    0    0  0.28320348297E+02  0.71600592076E+01  0.66548281619E+01  0.29959895083E+02  0.00000000000E+00 0.  1.
         11    1    1    2    0    0 -0.56829405737E+02  0.23390849427E+02  0.11098566951E+03  0.12686422675E+03  0.00000000000E+00 0. -1.
</event>
<event>
 7    1  0.2522928E-009  0.1055791E+03  0.7561462E-02  0.1268983E+00
         -1   -1    0    0    0  501 -0.00000000000E+00  0.00000000000E+00  0.23573842913E+02  0.23573842913E+02  0.00000000000E+00 0.  1.
          1   -1    0    0  501    0  0.00000000000E+00 -0.00000000000E+00 -0.60045145891E+03  0.60045145891E+03  0.00000000000E+00 0. -1.
         25    2    1    2    0    0 -0.10645758732E+02 -0.48439819097E+02 -0.31711975242E+03  0.34448929095E+03  0.12509270941E+03 0.  0.
          5    1    3    3  502    0  0.44996712150E+02 -0.43319043258E+02 -0.24658213621E+03  0.25440413894E+03  0.41800000000E+01 0.  1.
         -5    1    3    3    0  502 -0.55642470882E+02 -0.51207758394E+01 -0.70537616216E+02  0.90085152009E+02  0.41800000000E+01 0.  1.
        -11    1    1    2    0    0  0.42607379034E+02  0.12444849254E+02 -0.63598699861E+02  0.77556802700E+02  0.00000000000E+00 0.  1.
         11    1    1    2    0    0 -0.31961620302E+02  0.35994969844E+02 -0.19615916371E+03  0.20197920817E+03  0.00000000000E+00 0. -1.
</event>
<event>
 7    1  0.2522928E-009  0.1337866E+03  0.7561462E-02  0.1221943E+00
         -1   -1    0    0    0  501 -0.00000000000E+00  0.00000000000E+00  0.30967034373E+02  0.30967034373E+02  0.00000000000E+00 0.  1.
          1   -1    0    0  501    0  0.00000000000E+00 -0.00000000000E+00 -0.64699821331E+03  0.64699821331E+03  0.00000000000E+00 0. -1.
         25    2    1    2    0    0 -0.85791589625E+02 -0.15374294998E+02 -0.27914973145E+03  0.31808658956E+03  0.12513169100E+03 0.  0.
          5    1    3    3  502    0 -0.84964572770E+02  0.34641022178E+02 -0.23074281824E+03  0.24835196720E+03  0.41800000000E+01 0.  1.
         -5    1    3    3    0  502 -0.82701685471E+00 -0.50015317176E+02 -0.48406913213E+02  0.69734622362E+02  0.41800000000E+01 0.  1.
        -11    1    1    2    0    0  0.10495119993E+03  0.16913173767E+02 -0.30019734073E+03  0.31846389622E+03  0.00000000000E+00 0.  1.
         11    1    1    2    0    0 -0.19159610306E+02 -0.15388787692E+01 -0.36684106758E+02  0.41414761904E+02  0.00000000000E+00 0. -1.
</event>
<event>
 7    1  0.2522928E-009  0.1117609E+03  0.7561462E-02  0.1257343E+00
         -3   -1    0    0    0  501 -0.00000000000E+00  0.00000000000E+00  0.22988326347E+03  0.22988326347E+03  0.00000000000E+00 0.  1.
          3   -1    0    0  501    0  0.00000000000E+00 -0.00000000000E+00 -0.68801714207E+02  0.68801714207E+02  0.00000000000E+00 0. -1.
         25    2    1    2    0    0  0.34380146852E+02 -0.38086564628E+02  0.47036090786E+02  0.14315611191E+03  0.12509475464E+03 0.  0.
          5    1    3    3  502    0  0.37171165402E+02 -0.81925648276E+02  0.39705294970E+02  0.98425048801E+02  0.41800000000E+01 0.  1.
         -5    1    3    3    0  502 -0.27910185506E+01  0.43839083648E+02  0.73307958154E+01  0.44731063109E+02  0.41800000000E+01 0.  1.
        -11    1    1    2    0    0 -0.50719378609E+02  0.48322695052E+02  0.11665403363E+03  0.13607241376E+03  0.00000000000E+00 0.  1.
         11    1    1    2    0    0  0.16339231758E+02 -0.10236130424E+02 -0.26085751522E+01  0.19456452010E+02  0.00000000000E+00 0. -1.
</event>
<event>
 7    1  0.2522928E-009  0.1443476E+03  0.7561462E-02  0.1207596E+00
         -1   -1    0    0    0  501 -0.00000000000E+00  0.00000000000E+00  0.14734529857E+02  0.14734529857E+02  0.00000000000E+00 0. -1.
          1   -1    0    0  501    0  0.00000000000E+00 -0.00000000000E+00 -0.16266624237E+04  0.16266624237E+04  0.00000000000E+00 0.  1.
         25    2    1    2    0    0  0.49015403656E+02  0.88789912122E+02 -0.10833720579E+04  0.10952754598E+04  0.12508860321E+03 0.  0.
          5    1    3    3  502    0 -0.24960175081E+02 -0.15653890956E+02 -0.30402747260E+03  0.30548032856E+03  0.41800000000E+01 0.  1.
         -5    1    3    3    0  502  0.73975578737E+02  0.10444380308E+03 -0.77934458530E+03  0.78979513121E+03  0.41800000000E+01 0.  1.
        -11    1    1    2    0    0 -0.53402712817E+02 -0.12997130818E+02 -0.30798467555E+03  0.31285034045E+03  0.00000000000E+00 0.  1.
         11    1    1    2    0    0  0.43873091609E+01 -0.75792781305E+02 -0.22057116035E+03  0.23327115329E+03  0.00000000000E+00 0. -1.
</event>
<event>
 7    1  0.2522928E-009  0.2378615E+03  0.7561462E-02  0.1121226E+00
          2   -1    0    0  501    0  0.00000000000E+00  0.00000000000E+00  0.90430875323E+03  0.90430875323E+03  0.00000000000E+00 0. -1.
         -2   -1    0    0    0  501 -0.00000000000E+00 -0.00000000000E+00 -0.78986666662E+02  0.78986666662E+02  0.00000000000E+00 0.  1.
         25    2    1    2    0    0 -0.20582071936E+03 -0.99114396604E+02  0.56915094877E+03  0.62591161165E+03  0.12508681377E+03 0.  0.
          5    1    3    3  502    0 -0.65768394413E+02 -0.79905581933E+02  0.35071722405E+03  0.36569171084E+03  0.41800000000E+01 0. -1.
         -5    1    3    3    0  502 -0.14005232495E+03 -0.19208814671E+02  0.21843372472E+03  0.26021990081E+03  0.41800000000E+01 0. -1.
        -11    1    1    2    0    0  0.91007379585E+02  0.61761758570E+02  0.55510615033E+02  0.12320018808E+03  0.00000000000E+00 0.  1.
         11    1    1    2    0    0  0.11481333978E+03  0.37352638035E+02  0.20066052276E+03  0.23418362016E+03  0.00000000000E+00 0. -1.
</event>
<event>
 7    1  0.2522928E-009  0.1202600E+03  0.7561462E-02  0.1242669E+00
         -2   -1    0    0    0  501 -0.00000000000E+00  0.00000000000E+00  0.22466036948E+02  0.22466036948E+02  0.00000000000E+00 0.  1.
          2   -1    0    0  501    0  0.00000000000E+00 -0.00000000000E+00 -0.81464289872E+03  0.81464289872E+03  0.00000000000E+00 0. -1.
         25    2    1    2    0    0 -0.41881934558E+02 -0.77732466208E+02 -0.55662036789E+03  0.57729619973E+03  0.12509290755E+03 0.  0.
          5    1    3    3  502    0 -0.82960038317E+02 -0.43819987582E+02 -0.42482016310E+03  0.43507723756E+03  0.41800000000E+01 0. -1.
         -5    1    3    3    0  502  0.41078103759E+02 -0.33912478626E+02 -0.13180020479E+03  0.14221896216E+03  0.41800000000E+01 0. -1.
        -11    1    1    2    0    0  0.26055451374E+02  0.18740032051E+02 -0.15730639437E+03  0.16054711787E+03  0.00000000000E+00 0. -1.
         11    1    1    2    0    0  0.15826483183E+02  0.58992434156E+02 -0.78250099507E+02  0.99265618069E+02  0.00000000000E+00 0.  1.
</event>
<event>
 7    1  0.2522928E-009  0.2384469E+03  0.7561462E-02  0.1120832E+00
         -4   -1    0    0    0  501 -0.00000000000E+00  0.00000000000E+00  0.13302034989E+03  0.13302034989E+03  0.00000000000E+00 0. -1.
          4   -1    0    0  501    0  0.00000000000E+00 -0.00000000000E+00 -0.51896362562E+03  0.51896362562E+03  0.00000000000E+00 0.  1.
         25    2    1    2    0    0  0.20643463982E+03  0.51260416080E+02 -0.32139697507E+03  0.40519815725E+03  0.12508653118E+03 0.  0.
          5    1    3    3  502    0 -0.17191346975E+02  0.44860200844E+01 -0.24236981571E+02  0.30340904118E+02  0.41800000000E+01 0.  1.
         -5    1    3    3    0  502  0.22362598680E+03  0.46774395996E+02 -0.29715999350E+03  0.37485725313E+03  0.41800000000E+01 0.  1.
        -11    1    1    2    0    0 -0.18869322663E+03 -0.14414137039E+02 -0.26795897593E+02  0.19113063923E+03  0.00000000000E+00 0.  1.
         11    1    1    2    0    0 -0.17741413191E+02 -0.36846279042E+02 -0.37750403072E+02  0.55655179034E+02  0.00000000000E+00 0. -1.
</event>
<event>
 7    1  0.2522928E-009  0.1594300E+03  0.7561462E-02  0.1189342E+00
         -1   -1    0    0    0  501 -0.00000000000E+00  0.00000000000E+00  0.66895599898E+02  0.66895599898E+02  0.00000000000E+00 0.  1.
          1   -1    0    0  501    0  0.00000000000E+00 -0.00000000000E+00 -0.48345219261E+03  0.48345219261E+03  0.00000000000E+00 0. -1.
         25    2    1    2    0    0 -0.41071908567E+02 -0.11702886247E+03 -0.32887549492E+03  0.37308040223E+03  0.12508892452E+03 0.  0.
          5    1    3    3  502    0  0.24935837341E+02 -0.10308919386E+03 -0.22997204367E+03  0.25328598687E+03  0.41800000000E+01 0. -1.
         -5    1    3    3    0  502 -0.66007745908E+02 -0.13939668617E+02 -0.98903451255E+02  0.11979441536E+03  0.41800000000E+01 0. -1.
        -11    1    1    2    0    0  0.22660669159E+02  0.12353454287E+03 -0.50690886979E+02  0.13543948919E+03  0.00000000000E+00 0. -1.
         11    1    1    2    0    0  0.18411239408E+02 -0.65056804000E+01 -0.36990210812E+02  0.41827901094E+02  0.00000000000E+00 0.  1.
</event>
<event>
 7    1  0.2522928E-009  0.1106667E+03  0.7561462E-02  0.1259340E+00
          1   -1    0    0  501    0  0.00000000000E+00  0.00000000000E+00  0.87040902682E+02  0.87040902682E+02  0.00000000000E+00 0. -1.
         -1   -1    0    0    0  501 -0.00000000000E+00 -0.00000000000E+00 -0.20136675502E+03  0.20136675502E+03  0.00000000000E+00 0.  1.
         25    2    1    2    0    0  0.44008553123E+02  0.18440036123E+02 -0.38473010753E+01  0.13393541872E+03  0.12508839667E+03 0.  0.
          5    1    3    3  502    0  0.52631021839E+02 -0.43567489819E+02  0.11328440809E+02  0.69382682278E+02  0.41800000000E+01 0.  1.
         -5    1    3    3    0  502 -0.86224687161E+01  0.62007525943E+02 -0.15175741884E+02  0.64552736441E+02  0.41800000000E+01 0.  1.
        -11    1    1    2    0    0 -0.28508267889E+01 -0.42412402849E+02 -0.10587581345E+02  0.43806803211E+02  0.00000000000E+00 0. -1.
         11    1    1    2    0    0 -0.41157726334E+02  0.23972366726E+02 -0.99890969919E+02  0.11066543577E+03  0.00000000000E+00 0.  1.
</event>
<event>
 7    1  0.2522928E-009  0.1044700E+03  0.7561462E-02  0.1271167E+00
         -1   -1    0    0    0  501 -0.00000000000E+00  0.00000000000E+00  0.66008467878E+02  0.66008467878E+02  0.00000000000E+00 0.  1.
          1   -1    0    0  501    0  0.00000000000E+00 -0.00000000000E+00 -0.22094207930E+03  0.22094207930E+03  0.00000000000E+00 0. -1.
         25    2    1    2    0    0  0.57855687744E+01  0.50126325540E+02 -0.74273037202E+02  0.15398307442E+03  0.12509269297E+03 0.  0.
          5    1    3    3  502    0 -0.25171751605E+02 -0.17510546158E+02  0.17676273111E+02  0.35639294840E+02  0.41800000000E+01 0. -1.
         -5    1    3    3    0  502  0.30957320379E+02  0.67636871697E+02 -0.91949310313E+02  0.11834377958E+03  0.41800000000E+01 0. -1.
        -11    1    1    2    0    0 -0.32397879304E+02 -0.65272347633E+02 -0.68527944872E+02  0.10003090111E+03  0.00000000000E+00 0.  1.
         11    1    1    2    0    0  0.26612310530E+02  0.15146022093E+02 -0.12132629351E+02  0.32936571648E+02  0.00000000000E+00 0. -1.
</event>
<event>
 7    1  0.2522928E-009  0.1602092E+03  0.7561462E-02  0.1188461E+00
          2   -1    0    0  501    0  0.00000000000E+00  0.00000000000E+00  0.11143952377E+03  0.11143952377E+03  0.00000000000E+00 0. -1.
         -2   -1    0    0    0  501 -0.00000000000E+00 -0.00000000000E+00 -0.29676429800E+03  0.29676429800E+03  0.00000000000E+00 0.  1.
         25    2    1    2    0    0 -0.11724050019E+03 -0.70308910299E+02 -0.15850253861E+03  0.24384928420E+03  0.12510292126E+03 0.  0.
          5    1    3    3  502    0 -0.10269193540E+03  0.64135494428E+01 -0.11498055088E+03  0.15435273464E+03  0.41800000000E+01 0.  1.
         -5    1    3    3    0  502 -0.14548564787E+02 -0.76722459741E+02 -0.43521987732E+02  0.89496549555E+02  0.41800000000E+01 0.  1.
        -11    1    1    2    0    0  0.92389535546E+02  0.41756187964E+02  0.20822459365E+02  0.10350352808E+03  0.00000000000E+00 0. -1.
         11    1    1    2    0    0  0.24850964640E+02  0.28552722335E+02 -0.47644694979E+02  0.60851009489E+02  0.00000000000E+00 0.  1.
</event>
<event>
 7    1  0.2522928E-009  0.1580289E+03  0.7561462E-02  0.1190940E+00
         -2   -1    0    0    0  501 -0.00000000000E+00  0.00000000000E+00  0.27149687118E+02  0.27149687118E+02  0.00000000000E+00 0.  1.
          2   -1    0    0  501    0  0.00000000000E+00 -0.00000000000E+00 -0.12019276875E+04  0.12019276875E+04  0.00000000000E+00 0. -1.
         25    2    1    2    0    0  0.12964832068E+03 -0.34715115301E+02 -0.44402322396E+03  0.48043536696E+03  0.12509073554E+03 0.  0.
          5    1    3    3  502    0  0.11914484834E+03 -0.54228940361E+02 -0.22568643792E+03  0.26093699147E+03  0.41800000000E+01 0.  1.
         -5    1    3    3    0  502  0.10503472339E+02  0.19513825059E+02 -0.21833678605E+03  0.21949837549E+03  0.41800000000E+01 0.  1.
        -11    1    1    2    0    0 -0.13112581273E+03  0.33856857750E+01 -0.60155950547E+03  0.61569414505E+03  0.00000000000E+00 0.  1.
         11    1    1    2    0    0  0.14774920549E+01  0.31329429526E+02 -0.12919527097E+03  0.13294786264E+03  0.00000000000E+00 0. -1.
</event>
<event>
 7    1  0.2522928E-009  0.1858964E+03  0.7561462E-02  0.1162215E+00
         -2   -1    0    0    0  501 -0.00000000000E+00  0.00000000000E+00  0.14646207545E+03  0.14646207545E+03  0.00000000000E+00 0.  1.
          2   -1    0    0  501    0  0.00000000000E+00 -0.00000000000E+00 -0.31021238413E+03  0.31021238413E+03  0.00000000000E+00 0. -1.
         25    2    1    2    0    0 -0.11484331263E+03  0.10951986475E+03 -0.17931547287E+03  0.27015801372E+03  0.12509087232E+03 0.  0.
          5    1    3    3  502    0 -0.12763333979E+03  0.12589993915E+03 -0.16965244045E+03  0.24686127087E+03  0.41800000000E+01 0. -1.
         -5    1    3    3    0  502  0.12790027161E+02 -0.16380074398E+02 -0.96630324125E+01  0.23296742851E+02  0.41800000000E+01 0. -1.
        -11    1    1    2    0    0  0.11136798924E+03 -0.69883743473E+02 -0.20194390514E+02  0.13302022417E+03  0.00000000000E+00 0. -1.
         11    1    1    2    0    0  0.34753233899E+01 -0.39636121275E+02  0.35759554698E+02  0.53496221685E+02  0.00000000000E+00 0.  1.
</event>
<event>
 7    1  0.2522928E-009  0.1341932E+03  0.7561462E-02  0.1221363E+00
         -2   -1    0    0    0  501 -0.00000000000E+00  0.00000000000E+00  0.40241242721E+02  0.40241242721E+02  0.00000000000E+00 0.  1.
          2   -1    0    0  501    0  0.00000000000E+00 -0.00000000000E+00 -0.68887805828E+03  0.68887805828E+03  0.00000000000E+00 0. -1.
         25    2    1    2    0    0 -0.54039192901E+02 -0.90846043783E+02 -0.50048506899E+03  0.52659902784E+03  0.12509194137E+03 0.  0.
          5    1    3    3  502    0 -0.92895005651E+02 -0.63752894754E+02 -0.39722920492E+03  0.41291939565E+03  0.41800000000E+01 0.  1.
         -5    1    3    3    0  502  0.38855812751E+02 -0.27093149030E+02 -0.10325586407E+03  0.11367963219E+03  0.41800000000E+01 0.  1.
        -11    1    1    2    0    0  0.17936709890E+02  0.52233369373E+02 -0.13807053078E+03  0.14870615962E+03  0.00000000000E+00 0. -1.
         11    1    1    2    0    0  0.36102483011E+02  0.38612674410E+02 -0.10081215783E+02  0.53814113542E+02  0.00000000000E+00 0.  1.
</event>
<event>
 7    1  0.2522928E-009  0.1029389E+03  0.7561462E-02  0.1274235E+00
          2   -1    0    0  501    0  0.00000000000E+00  0.00000000000E+00  0.19042934667E+03  0.19042934667E+03  0.00000000000E+00 0.  1.
         -2   -1    0    0    0  501 -0.00000000000E+00 -0.00000000000E+00 -0.10278519382E+03  0.10278519382E+03  0.00000000000E+00 0. -1.
         25    2    1    2    0    0 -0.60353378157E+02  0.15603743996E+02  0.98685276167E+02  0.17110670663E+03  0.12511080785E+03 0.  0.
          5    1    3    3  502    0  0.10899185242E+02 -0.36884637968E+01  0.96359190409E+02  0.97133737602E+02  0.41800000000E+01 0. -1.
         -5    1    3    3    0  502 -0.71252563399E+02  0.19292207793E+02  0.23260857576E+01  0.73972969032E+02  0.41800000000E+01 0. -1.
        -11    1    1    2    0    0 -0.23633451281E+02 -0.25925058983E+02  0.65323765586E+01  0.35683618738E+02  0.00000000000E+00 0.  1.
         11    1    1    2    0    0  0.83986829438E+02  0.10321314987E+02 -0.17573499877E+02  0.86424215125E+02  0.00000000000E+00 0. -1.
</event>
<event>
 7    1  0.2522928E-009  0.2058924E+03  0.7561462E-02  0.1144861E+00
          2   -1    0    0  501    0  0.00000000000E+00  0.00000000000E+00  0.19491115020E+03  0.19491115020E+03  0.00000000000E+00 0. -1.
         -2   -1    0    0    0  501 -0.00000000000E+00 -0.00000000000E+00 -0.25368852532E+03  0.25368852532E+03  0.00000000000E+00 0.  1.
         25    2    1    2    0    0  0.17769800255E+03 -0.49661887011E+02  0.28112152651E+02  0.22468044592E+03  0.12509247187E+03 0.  0.
          5    1    3    3  502    0  0.10240017583E+03  0.36034088006E+02  0.99403011767E+01  0.10908956640E+03  0.41800000000E+01 0. -1.
         -5    1    3    3    0  502  0.75297826722E+02 -0.85695975017E+02  0.18171851474E+02  0.11559087952E+03  0.41800000000E+01 0. -1.
        -11    1    1    2    0    0 -0.43092718567E+02  0.31040359001E+02 -0.68678427139E+02  0.86817121783E+02  0.00000000000E+00 0.  1.
         11    1    1    2    0    0 -0.13460528399E+03  0.18621528011E+02 -0.18211100634E+02  0.13710210782E+03  0.00000000000E+00 0. -1.
</event>
<event>
 7    1  0.2522928E-009  0.1110805E+03  0.7561462E-02  0.1258582E+00
          1   -1    0    0  501    0  0.00000000000E+00  0.00000000000E+00  0.40685938468E+03  0.40685938468E+03  0.00000000000E+00 0. -1.
         -1   -1    0    0    0  501 -0.00000000000E+00 -0.00000000000E+00 -0.32902372785E+02  0.32902372785E+02  0.00000000000E+00 0.  1.
         25    2    1    2    0    0  0.19118761572E+02  0.17756925491E+02  0.15329148074E+03  0.19956536887E+03  0.12508886016E+03 0.  0.
          5    1    3    3  502    0  0.56258596811E+02  0.52245238757E+02  0.94569876456E+02  0.12188325816E+03  0.41800000000E+01 0. -1.
         -5    1    3    3    0  502 -0.37139835240E+02 -0.34488313266E+02  0.58721604284E+02  0.77682110703E+02  0.41800000000E+01 0. -1.
        -11    1    1    2    0    0  0.28117822249E+02  0.19530559287E+02  0.91647171816E+02  0.97832810325E+02  0.00000000000E+00 0. -1.
         11    1    1    2    0    0 -0.47236583821E+02 -0.37287484778E+02  0.12901835934E+03  0.14236357827E+03  0.00000000000E+00 0.  1.
</event>
<event>
 7    1  0.2522928E-009  0.1065069E+03  0.7561462E-02  0.1267179E+00
         -2   -1    0    0    0  501 -0.00000000000E+00  0.00000000000E+00  0.38968608941E+02  0.38968608941E+02  0.00000000000E+00 0.  1.
          2   -1    0    0  501    0  0.00000000000E+00 -0.00000000000E+00 -0.43888410377E+03  0.43888410377E+03  0.00000000000E+00 0. -1.
         25    2    1    2    0    0 -0.70995917625E+02 -0.14441171183E+02 -0.22006472267E+03  0.26329687082E+03  0.12509113587E+03 0.  0.
          5    1    3    3  502    0 -0.39154110668E+02  0.37845443063E+02 -0.27412372604E+02  0.61108366977E+02  0.41800000000E+01 0.  1.
         -5    1    3    3    0  502 -0.31841806957E+02 -0.52286614246E+02 -0.19265235006E+03  0.20218850384E+03  0.41800000000E+01 0.  1.
        -11    1    1    2    0    0 -0.74153349441E+01  0.17039281068E+02 -0.26916398126E+00  0.18584852459E+02  0.00000000000E+00 0.  1.
         11    1    1    2    0    0  0.78411252569E+02 -0.25981098852E+01 -0.17958160818E+03  0.19597098944E+03  0.00000000000E+00 0. -1.
</event>
<event>
 7    1  0.2522928E-009  0.1056971E+03  0.7561462E-02  0.1268752E+00
          2   -1    0    0  501    0  0.00000000000E+00  0.00000000000E+00  0.20330361994E+02  0.20330361994E+02  0.00000000000E+00 0. -1.
         -2   -1    0    0    0  501 -0.00000000000E+00 -0.00000000000E+00 -0.73808857347E+03  0.73808857347E+03  0.00000000000E+00 0.  1.
         25    2    1    2    0    0 -0.26509483792E+01  0.21695864575E+02 -0.27183692258E+03  0.30003423658E+03  0.12508993795E+03 0.  0.
          5    1    3    3  502    0  0.71163975190E+01 -0.40936387340E+02 -0.19922827549E+03  0.20355787648E+03  0.41800000000E+01 0. -1.
         -5    1    3    3    0  502 -0.97673458982E+01  0.62632251915E+02 -0.72608647086E+02  0.96476360097E+02  0.41800000000E+01 0. -1.
        -11    1    1    2    0    0  0.38555374378E+02  0.25929943767E+02 -0.18787719112E+03  0.19353738094E+03  0.00000000000E+00 0.  1.
         11    1    1    2    0    0 -0.35904425999E+02 -0.47625808342E+02 -0.25804409778E+03  0.26484731795E+03  0.00000000000E+00 0. -1.
</event>
<event>
 7    1  0.2522928E-009  0.1665278E+03  0.7561462E-02  0.1181518E+00
         -1   -1    0    0    0  501 -0.00000000000E+00  0.00000000000E+00  0.45599720996E+02  0.45599720996E+02  0.00000000000E+00 0. -1.
          1   -1    0    0  501    0  0.00000000000E+00 -0.00000000000E+00 -0.70016469056E+03  0.70016469056E+03  0.00000000000E+00 0.  1.
         25    2    1    2    0    0  0.13470236364E+03 -0.42236653128E+02 -0.31507112601E+03  0.36721372359E+03  0.12508973864E+03 0.  0.
          5    1    3    3  502    0 -0.16007297103E+01 -0.39709154984E+02 -0.26259200244E+02  0.47816287211E+02  0.41800000000E+01 0. -1.
         -5    1    3    3    0  502  0.13630309335E+03 -0.25274981439E+01 -0.28881192576E+03  0.31939743638E+03  0.41800000000E+01 0. -1.
        -11    1    1    2    0    0 -0.84116127464E+01  0.28445150544E+02 -0.23075789868E+02  0.37581563253E+02  0.00000000000E+00 0. -1.
         11    1    1    2    0    0 -0.12629075090E+03  0.13791502584E+02 -0.31641805369E+03  0.34096912471E+03  0.00000000000E+00 0.  1.
</event>
<event>
 6    1  0.2567906E-009  0.1737660E+03  0.7561462E-02  0.1173976E+00
         -2   -1    0    0    0  501 -0.00000000000E+00  0.00000000000E+00  0.14831862692E+03  0.14831862692E+03  0.00000000000E+00 0.  1.
          2   -1    0    0  501    0  0.00000000000E+00 -0.00000000000E+00 -0.25959909254E+03  0.25959909254E+03  0.00000000000E+00 0. -1.
          5    1    1    2  502    0 -0.49818730730E+01 -0.28333536156E+01 -0.36558927790E+02  0.37240764670E+02  0.41800000000E+01 0.  1.
         -5    1    1    2    0  502  0.16219185768E+03  0.44021655481E+01  0.23478764194E+02  0.16399482470E+03  0.41800000000E+01 0.  1.
        -11    1    1    2    0    0 -0.10281445929E+03  0.39326840453E+02 -0.80472893319E+02  0.13635725129E+03  0.00000000000E+00 0.  1.
         11    1    1    2    0    0 -0.54395525317E+02 -0.40895652385E+02 -0.17727408701E+02  0.70324878796E+02  0.00000000000E+00 0. -1.
</event>
<event>
 7    1  0.2522928E-009  0.6204630E+02  0.7561462E-02  0.1389440E+00
          1   -1    0    0  501    0  0.00000000000E+00  0.00000000000E+00  0.61563346762E+02  0.61563346762E+02  0.00000000000E+00 0.  1.
         -1   -1    0    0    0  501 -0.00000000000E+00 -0.00000000000E+00 -0.21691361997E+03  0.21691361997E+03  0.00000000000E+00 0. -1.
         25    2    1    2    0    0  0.15943960444E+02 -0.13575952471E+02 -0.48417041111E+02  0.13574358621E+03  0.12507435775E+03 0.  0.
          5    1    3    3  502    0 -0.94472575222E+01 -0.25081752347E+02 -0.85193066931E+02  0.89407360036E+02  0.41800000000E+01 0.  1.
         -5    1    3    3    0  502  0.25391217966E+02  0.11505799876E+02  0.36776025819E+02  0.46336226170E+02  0.41800000000E+01 0.  1.
        -11    1    1    2    0    0  0.16349571147E+02 -0.17508564223E+02 -0.92638933411E+02  0.95686102864E+02  0.00000000000E+00 0. -1.
         11    1    1    2    0    0 -0.32293531591E+02  0.31084516695E+02 -0.14294298690E+02  0.47047277666E+02  0.00000000000E+00 0.  1.
</event>
<event>
 7    1  0.2522928E-009  0.1099559E+03  0.7561462E-02  0.1260652E+00
         -4   -1    0    0    0  501 -0.00000000000E+00  0.00000000000E+00  0.69508510242E+03  0.69508510242E+03  0.00000000000E+00 0.  1.
          4   -1    0    0  501    0  0.00000000000E+00 -0.00000000000E+00 -0.22947734074E+02  0.22947734074E+02  0.00000000000E+00 0. -1.
         25    2    1    2    0    0 -0.12071721150E+02 -0.17221770664E+02  0.20278101939E+03  0.23918619439E+03  0.12509027910E+03 0.  0.
          5    1    3    3  502    0  0.13124145293E+02  0.51406737733E+02  0.94809264456E+02  0.10872518062E+03  0.41800000000E+01 0.  1.
         -5    1    3    3    0  502 -0.25195866443E+02 -0.68628508398E+02  0.10797175494E+03  0.13046101377E+03  0.41800000000E+01 0.  1.
        -11    1    1    2    0    0 -0.38629221617E+02 -0.32961069354E+01  0.15550574272E+03  0.16026577022E+03  0.00000000000E+00 0.  1.
         11    1    1    2    0    0  0.50700942767E+02  0.20517877600E+02  0.31385060623E+03  0.31858087189E+03  0.00000000000E+00 0. -1.
</event>
<event>
 7    1  0.3248863E-009  0.9767632E+02  0.7561462E-02  0.1285260E+00
          1   -1    0    0  501    0  0.00000000000E+00  0.00000000000E+00  0.63960095591E+03  0.63960095591E+03  0.00000000000E+00 0. -1.
         -1   -1    0    0    0  501 -0.00000000000E+00 -0.00000000000E+00 -0.38360811525E+02  0.38360811525E+02  0.00000000000E+00 0.  1.
         25    2    1    2    0    0 -0.32974838722E+02  0.66743830508E+02  0.50610019776E+03  0.52661883017E+03  0.12509157930E+03 0.  0.
          5    1    3    3  502    0 -0.53316318384E+02  0.65502517576E+02  0.16994903966E+03  0.18982454556E+03  0.41800000000E+01 0. -1.
         -5    1    3    3    0  502  0.20341479662E+02  0.12413129326E+01  0.33615115811E+03  0.33679428461E+03  0.41800000000E+01 0. -1.
        -11    1    1    2    0    0 -0.11358879977E+02 -0.31075756966E+02 -0.75546829839E+01  0.33938179980E+02  0.00000000000E+00 0.  1.
         11    1    1    2    0    0  0.44333718699E+02 -0.35668073542E+02  0.10269462961E+03  0.11740475729E+03  0.00000000000E+00 0. -1.
</event>
<event>
 7    1  0.2522928E-009  0.1303148E+03  0.7561462E-02  0.1226989E+00
          2   -1    0    0  501    0  0.00000000000E+00  0.00000000000E+00  0.40598332134E+03  0.40598332134E+03  0.00000000000E+00 0. -1.
         -2   -1    0    0    0  501 -0.00000000000E+00 -0.00000000000E+00 -0.72307695424E+02  0.72307695424E+02  0.00000000000E+00 0.  1.
         25    2    1    2    0    0 -0.54206721987E+02 -0.82586280925E+02  0.54154481315E+02  0.16834385355E+03  0.12509229662E+03 0.  0.
          5    1    3    3  502    0 -0.41412281293E+02 -0.99772704756E+02 -0.19687876217E+01  0.10812454939E+03  0.41800000000E+01 0.  1.
         -5    1    3    3    0  502 -0.12794440694E+02  0.17186423832E+02  0.56123268936E+02  0.60219304155E+02  0.41800000000E+01 0.  1.
        -11    1    1    2    0    0 -0.23317567830E+02  0.24494792173E+02  0.45699968237E+02  0.56852360636E+02  0.00000000000E+00 0.  1.
         11    1    1    2    0    0  0.77524289818E+02  0.58091488752E+02  0.23382117636E+03  0.25309480258E+03  0.00000000000E+00 0. -1.
</event>
<event>
 7    1  0.2522928E-009  0.6390847E+02  0.7561462E-02  0.1382125E+00
          1   -1    0    0  501    0  0.00000000000E+00  0.00000000000E+00  0.67249843721E+02  0.67249843721E+02  0.00000000000E+00 0. -1.
         -1   -1    0    0    0  501 -0.00000000000E+00 -0.00000000000E+00 -0.19532065999E+03  0.19532065999E+03  0.00000000000E+00 0.  1.
         25    2    1    2    0    0  0.36762408672E+02  0.65227396707E+01 -0.76758876277E+02  0.15143655701E+03  0.12508830836E+03 0.  0.
          5    1    3    3  502    0  0.38342467900E+02 -0.65955666655E+00  0.27157745382E+02  0.47176216400E+02  0.41800000000E+01 0. -1.
         -5    1    3    3    0  502 -0.15800592276E+01  0.71822963372E+01 -0.10391662166E+03  0.10426034061E+03  0.41800000000E+01 0. -1.
        -11    1    1    2    0    0 -0.58339420426E+02 -0.91270642091E+01 -0.63091203385E+02  0.86413489811E+02  0.00000000000E+00 0.  1.
         11    1    1    2    0    0  0.21577011754E+02  0.26043245384E+01  0.11779263393E+02  0.24720456886E+02  0.00000000000E+00 0. -1.
</event>
<event>
 7    1  0.2522928E-009  0.1044106E+03  0.7561462E-02  0.1271285E+00
         -1   -1    0    0    0  501 -0.00000000000E+00  0.00000000000E+00  0.51241846587E+02  0.51241846587E+02  0.00000000000E+00 0.  1.
          1   -1    0    0  501    0  0.00000000000E+00 -0.00000000000E+00 -0.37159616979E+03  0.37159616979E+03  0.00000000000E+00 0. -1.
         25    2    1    2    0    0  0.52293935561E+02 -0.19720842327E+02 -0.27434544594E+03  0.30665157588E+03  0.12508476311E+03 0.  0.
          5    1    3    3  502    0  0.44482181959E+02 -0.52064135516E+02 -0.64571470159E+02  0.94214042889E+02  0.41800000000E+01 0. -1.
         -5    1    3    3    0  502  0.78117536018E+01  0.32343293189E+02 -0.20977397578E+03  0.21243753299E+03  0.41800000000E+01 0. -1.
        -11    1    1    2    0    0  0.60909894556E+01 -0.29619313725E+02 -0.12385949966E+02  0.32677448717E+02  0.00000000000E+00 0.  1.
         11    1    1    2    0    0 -0.58384925017E+02  0.49340156052E+02 -0.33622927299E+02  0.83508991782E+02  0.00000000000E+00 0. -1.
</event>
<event>
 7    1  0.2522928E-009  0.1666538E+03  0.7561462E-02  0.1181383E+00
          1   -1    0    0  501    0  0.00000000000E+00  0.00000000000E+00  0.18925551197E+03  0.18925551197E+03  0.00000000000E+00 0. -1.
         -1   -1    0    0    0  501 -0.00000000000E+00 -0.00000000000E+00 -0.15046300742E+03  0.15046300742E+03  0.00000000000E+00 0.  1.
         25    2    1    2    0    0  0.10555120437E+02 -0.12597889407E+03 -0.19858285374E+01  0.17785993717E+03  0.12509245147E+03 0.  0.
          5    1    3    3  502    0 -0.44344457855E+02 -0.52723274530E+01 -0.51849372624E+01  0.45150684974E+02  0.41800000000E+01 0. -1.
         -5    1    3    3    0  502  0.54899578292E+02 -0.12070656662E+03  0.31991087249E+01  0.13270925219E+03  0.41800000000E+01 0. -1.
        -11    1    1    2    0    0 -0.44895306866E+02  0.30387364244E+02  0.22295835133E+02  0.58618126451E+02  0.00000000000E+00 0. -1.
         11    1    1    2    0    0  0.34340186429E+02  0.95591529824E+02  0.18482497958E+02  0.10324045578E+03  0.00000000000E+00 0.  1.
</event>
<event>
 7    1  0.2522928E-009  0.8880731E+02  0.7561462E-02  0.1305766E+00
         -1   -1    0    0    0  501 -0.00000000000E+00  0.00000000000E+00  0.18472393503E+02  0.18472393503E+02  0.00000000000E+00 0.  1.
          1   -1    0    0  501    0  0.00000000000E+00 -0.00000000000E+00 -0.10684079321E+04  0.10684079321E+04  0.00000000000E+00 0. -1.
         25    2    1    2    0    0  0.61292423209E+02  0.14157892101E+02 -0.80845466388E+03  0.82049019701E+03  0.12509201732E+03 0.  0.
          5    1    3    3  502    0  0.43326448668E+02 -0.21777931968E+02 -0.73542508572E+03  0.73703391277E+03  0.41800000000E+01 0.  1.
         -5    1    3    3    0  502  0.17965974541E+02  0.35935824069E+02 -0.73029578158E+02  0.83456284237E+02  0.41800000000E+01 0.  1.
        -11    1    1    2    0    0 -0.29834984691E+02 -0.38547540844E+02 -0.21016350369E+03  0.21574229418E+03  0.00000000000E+00 0. -1.
         11    1    1    2    0    0 -0.31457438518E+02  0.24389648743E+02 -0.31317371083E+02  0.50647834460E+02  0.00000000000E+00 0.  1.
</event>
<event>
 7    1  0.2522928E-009  0.1134951E+03  0.7561462E-02  0.1254231E+00
         -2   -1    0    0    0  501 -0.00000000000E+00  0.00000000000E+00  0.12294955272E+03  0.12294955272E+03  0.00000000000E+00 0.  1.
          2   -1    0    0  501    0  0.00000000000E+00 -0.00000000000E+00 -0.11655987245E+03  0.11655987245E+03  0.00000000000E+00 0. -1.
         25    2    1    2    0    0  0.32998747118E+02 -0.39524939783E+02  0.11759079956E+02  0.13578220094E+03  0.12508953575E+03 0.  0.
          5    1    3    3  502    0 -0.36352631369E+02 -0.43074699684E+02  0.29826529919E+02  0.63906477351E+02  0.41800000000E+01 0.  1.
         -5    1    3    3    0  502  0.69351378488E+02  0.35497599014E+01 -0.18067449963E+02  0.71875723591E+02  0.41800000000E+01 0.  1.
        -11    1    1    2    0    0 -0.53416967602E+02  0.53936436693E+02 -0.14186806777E+02  0.77225495255E+02  0.00000000000E+00 0. -1.
         11    1    1    2    0    0  0.20418220484E+02 -0.14411496910E+02  0.88174070914E+01  0.26501728976E+02  0.00000000000E+00 0.  1.
</event>
<event>
 7    1  0.2522928E-009  0.1166943E+03  0.7561462E-02  0.1248652E+00
          1   -1    0    0  501    0  0.00000000000E+00  0.00000000000E+00  0.74401399128E+02  0.74401399128E+02  0.00000000000E+00 0. -1.
         -1   -1    0    0    0  501 -0.00000000000E+00 -0.00000000000E+00 -0.18909585547E+03  0.18909585547E+03  0.00000000000E+00 0.  1.
         25    2    1    2    0    0  0.41033142978E+02 -0.24129833631E+02 -0.76917061294E+02  0.15436337730E+03  0.12508337315E+03 0.  0.
          5    1    3    3  502    0  0.57094245176E+02  0.38490142308E+02 -0.37175802168E+02  0.78362979486E+02  0.41800000000E+01 0. -1.
         -5    1    3    3    0  502 -0.16061102198E+02 -0.62619975939E+02 -0.39741259127E+02  0.76000397811E+02  0.41800000000E+01 0. -1.
        -11    1    1    2    0    0 -0.29490149839E+02 -0.31300082211E+02 -0.28925371222E+02  0.51827031405E+02  0.00000000000E+00 0.  1.
         11    1    1    2    0    0 -0.11542993139E+02  0.55429915842E+02 -0.88520238253E+01  0.57306845897E+02  0.00000000000E+00 0. -1.
</event>
<event>
 7    1  0.2522928E-009  0.1136145E+03  0.7561462E-02  0.1254019E+00
          2   -1    0    0  501    0  0.00000000000E+00  0.00000000000E+00  0.11643527607E+03  0.11643527607E+03  0.00000000000E+00 0. -1.
         -2   -1    0    0    0  501 -0.00000000000E+00 -0.00000000000E+00 -0.20997813484E+03  0.20997813484E+03  0.00000000000E+00 0.  1.
         25    2    1    2    0    0 -0.83673151907E+01  0.94026615647E+02 -0.11050132627E+03  0.19173044523E+03  0.12505600389E+03 0.  0.
          5    1    3    3  502    0 -0.23447167899E+01 -0.16652242778E+02  0.15930628783E+02  0.23538313869E+02  0.41800000000E+01 0.  1.
         -5    1    3    3    0  502 -0.60225984008E+01  0.11067885842E+03 -0.12643195505E+03  0.16819213136E+03  0.41800000000E+01 0.  1.
        -11    1    1    2    0    0  0.19410089494E+02 -0.51312758242E+02  0.54072646250E+02  0.77029876055E+02  0.00000000000E+00 0. -1.
         11    1    1    2    0    0 -0.11042774303E+02 -0.42713857404E+02 -0.37114178753E+02  0.57653089624E+02  0.00000000000E+00 0.  1.
</event>
<event>
 7    1  0.2522928E-009  0.1120335E+03  0.7561462E-02  0.1256850E+00
          1   -1    0    0  501    0  0.00000000000E+00  0.00000000000E+00  0.25651171791E+02  0.25651171791E+02  0.00000000000E+00 0. -1.
         -1   -1    0    0    0  501 -0.00000000000E+00 -0.00000000000E+00 -0.56161438405E+03  0.56161438405E+03  0.00000000000E+00 0.  1.
         25    2    1    2    0    0  0.17862331653E+02 -0.36011297924E+02 -0.22621597187E+03  0.26160484235E+03  0.12509017204E+03 0.  0.
          5    1    3    3  502    0  0.44865573331E+02  0.33843950481E+02 -0.94440469487E+02  0.10997639443E+03  0.41800000000E+01 0. -1.
         -5    1    3    3    0  502 -0.27003241678E+02 -0.69855248404E+02 -0.13177550239E+03  0.15162844792E+03  0.41800000000E+01 0. -1.
        -11    1    1    2    0    0  0.29531462513E+02 -0.50935552983E+01 -0.48706749100E+02  0.57187402386E+02  0.00000000000E+00 0. -1.
         11    1    1    2    0    0 -0.47393794166E+02  0.41104853222E+02 -0.26104049129E+03  0.26847331110E+03  0.00000000000E+00 0.  1.
</event>
<event>
 7    1  0.2522928E-009  0.1295324E+03  0.7561462E-02  0.1228151E+00
          1   -1    0    0  501    0  0.00000000000E+00  0.00000000000E+00  0.20831827929E+04  0.20831827929E+04  0.00000000000E+00 0. -1.
         -1   -1    0    0    0  501 -0.00000000000E+00 -0.00000000000E+00 -0.14899760218E+02  0.14899760218E+02  0.00000000000E+00 0.  1.
         25    2    1    2    0    0 -0.99706814211E+01 -0.75323706965E+02  0.17927687596E+04  0.17987330310E+04  0.12509043261E+03 0.  0.
          5    1    3    3  502    0  0.46636660142E+02  0.32676999742E+01  0.44050180520E+03  0.44299545000E+03  0.41800000000E+01 0. -1.
         -5    1    3    3    0  502 -0.56607341563E+02 -0.78591406939E+02  0.13522669544E+04  0.13557375810E+04  0.41800000000E+01 0. -1.
        -11    1    1    2    0    0  0.45648316476E+02  0.62229750437E+02  0.15798262131E+03  0.17582610521E+03  0.00000000000E+00 0.  1.
         11    1    1    2    0    0 -0.35677635054E+02  0.13093956528E+02  0.11753165176E+03  0.12352341683E+03  0.00000000000E+00 0. -1.
</event>
<event>
 7    1  0.2522928E-009  0.8422990E+02  0.7561462E-02  0.1317459E+00
         -1   -1    0    0    0  501 -0.00000000000E+00  0.00000000000E+00  0.83941449418E+02  0.83941449418E+02  0.00000000000E+00 0.  1.
          1   -1    0    0  501    0  0.00000000000E+00 -0.00000000000E+00 -0.19852675262E+03  0.19852675262E+03  0.00000000000E+00 0. -1.
         25    2    1    2    0    0  0.44566293269E+02  0.44730316739E+02 -0.98367967908E+02  0.17120296878E+03  0.12508894307E+03 0.  0.
          5    1    3    3  502    0  0.85170486509E+01 -0.24656923969E+02 -0.88403687535E+02  0.92266940922E+02  0.41800000000E+01 0.  1.
         -5    1    3    3    0  502  0.36049244618E+02  0.69387240708E+02 -0.99642803737E+01  0.78936027858E+02  0.41800000000E+01 0.  1.
        -11    1    1    2    0    0 -0.32257607710E+02 -0.26538635490E+02 -0.53571455071E+02  0.67931975000E+02  0.00000000000E+00 0. -1.
         11    1    1    2    0    0 -0.12308685559E+02 -0.18191681248E+02  0.37354119779E+02  0.43333258258E+02  0.00000000000E+00 0.  1.
</event>
<event>
 7    1  0.2522928E-009  0.1325450E+03  0.7561462E-02  0.1223728E+00
         -1   -1    0    0    0  501 -0.00000000000E+00  0.00000000000E+00  0.53709851768E+02  0.53709851768E+02  0.00000000000E+00 0.  1.
          1   -1    0    0  501    0  0.00000000000E+00 -0.00000000000E+00 -0.48333658469E+03  0.48333658469E+03  0.00000000000E+00 0. -1.
         25    2    1    2    0    0 -0.10870776110E+03  0.38507455355E+02 -0.27111826766E+03  0.32008310865E+03  0.12509148630E+03 0.  0.
          5    1    3    3  502    0 -0.53189034089E+02 -0.16616208050E+02 -0.21891948528E+03  0.22593889695E+03  0.41800000000E+01 0.  1.
         -5    1    3    3    0  502 -0.55518727011E+02  0.55123663405E+02 -0.52198782374E+02  0.94144211705E+02  0.41800000000E+01 0.  1.
        -11    1    1    2    0    0  0.91426609649E+02 -0.55230019245E+02 -0.76185272385E+02  0.13119975498E+03  0.00000000000E+00 0.  1.
         11    1    1    2    0    0  0.17281151451E+02  0.16722563890E+02 -0.82323192884E+02  0.85763572833E+02  0.00000000000E+00 0. -1.
</event>
<event>
 7    1  0.2522928E-009  0.2170119E+03  0.7561462E-02  0.1136131E+00
          2   -1    0    0  501    0  0.00000000000E+00  0.00000000000E+00  0.23384945504E+03  0.23384945504E+03  0.00000000000E+00 0. -1.
         -2   -1    0    0    0  501 -0.00000000000E+00 -0.00000000000E+00 -0.26970329219E+03  0.26970329219E+03  0.00000000000E+00 0.  1.
         25    2    1    2    0    0 -0.16255380898E+03 -0.11090892964E+03  0.93523005677E+02  0.25123384043E+03  0.12508940203E+03 0.  0.
          5    1    3    3  502    0 -0.95337900755E+02 -0.58079350017E+01  0.81860485199E+02  0.12586365189E+03  0.41800000000E+01 0. -1.
         -5    1    3    3    0  502 -0.67215908227E+02 -0.10510099463E+03  0.11662520479E+02  0.12537018854E+03  0.41800000000E+01 0. -1.
        -11    1    1    2    0    0  0.12479406356E+03  0.36291906047E+02 -0.98885360971E+02  0.16330638493E+03  0.00000000000E+00 0.  1.
         11    1    1    2    0    0  0.37759745420E+02  0.74617023588E+02 -0.30491481858E+02  0.89012521868E+02  0.00000000000E+00 0. -1.
</event>
<event>
 7    1  0.2522928E-009  0.1030977E+03  0.7561462E-02  0.1273914E+00
         -1   -1    0    0    0  501 -0.00000000000E+00  0.00000000000E+00  0.24612012749E+02  0.24612012749E+02  0.00000000000E+00 0.  1.
          1   -1    0    0  501    0  0.00000000000E+00 -0.00000000000E+00 -0.55523685332E+03  0.55523685332E+03  0.00000000000E+00 0. -1.
         25    2    1    2    0    0  0.11782384090E+02 -0.21373495726E+02 -0.37388283531E+03  0.39500892405E+03  0.12509206467E+03 0.  0.
          5    1    3    3  502    0  0.44511789636E+02 -0.61150275004E+02 -0.22565133699E+03  0.23802658220E+03  0.41800000000E+01 0.  1.
         -5    1    3    3    0  502 -0.32729405546E+02  0.39776779278E+02 -0.14823149832E+03  0.15698234185E+03  0.41800000000E+01 0.  1.
        -11    1    1    2    0    0 -0.14289958095E+02  0.48991360424E+02 -0.39976436479E+02  0.64826474315E+02  0.00000000000E+00 0.  1.
         11    1    1    2    0    0  0.25075740049E+01 -0.27617864698E+02 -0.11676556879E+03  0.12001346771E+03  0.00000000000E+00 0. -1.
</event>
<event>
 7    1  0.2522928E-009  0.8160837E+02  0.7561462E-02  0.1324548E+00
          2   -1    0    0  501    0  0.00000000000E+00  0.00000000000E+00  0.44166646290E+02  0.44166646290E+02  0.00000000000E+00 0. -1.
         -2   -1    0    0    0  501 -0.00000000000E+00 -0.00000000000E+00 -0.36080880231E+03  0.36080880231E+03  0.00000000000E+00 0.  1.
         25    2    1    2    0    0  0.60658587552E+02 -0.15989236956E+01 -0.14000110285E+03  0.19730481504E+03  0.12508741119E+03 0.  0.
          5    1    3    3  502    0  0.67246658577E+02 -0.63539465332E+01 -0.16086887244E+03  0.17452436004E+03  0.41800000000E+01 0.  1.
         -5    1    3    3    0  502 -0.65880710251E+01  0.47550228376E+01  0.20867769596E+02  0.22780454999E+02  0.41800000000E+01 0.  1.
        -11    1    1    2    0    0  0.10647376150E+02 -0.94637322195E+01  0.25721543868E+01  0.14475663183E+02  0.00000000000E+00 0. -1.
         11    1    1    2    0    0 -0.71305963702E+02  0.11062655915E+02 -0.17921320756E+03  0.19319497038E+03  0.00000000000E+00 0.  1.
</event>
<event>
 7    1  0.2522928E-009  0.1289928E+03  0.7561462E-02  0.1228958E+00
          3   -1    0    0  501    0  0.00000000000E+00  0.00000000000E+00  0.88733270015E+02  0.88733270015E+02  0.00000000000E+00 0. -1.
         -3   -1    0    0    0  501 -0.00000000000E+00 -0.00000000000E+00 -0.20900413076E+03  0.20900413076E+03  0.00000000000E+00 0.  1.
         25    2    1    2    0    0  0.15920317089E+02  0.77110077609E+02 -0.86343264760E+02  0.17117787948E+03  0.12508911419E+03 0.  0.
          5    1    3    3  502    0  0.55380118620E+02  0.85167190679E+02 -0.39042529234E+02  0.10891372455E+03  0.41800000000E+01 0.  1.
         -5    1    3    3    0  502 -0.39459801530E+02 -0.80571130702E+01 -0.47300735526E+02  0.62264154930E+02  0.41800000000E+01 0.  1.
        -11    1    1    2    0    0 -0.48398783636E+01  0.18728038843E+02  0.85463573130E+01  0.21147200401E+02  0.00000000000E+00 0. -1.
         11    1    1    2    0    0 -0.11080438726E+02 -0.95838116452E+02 -0.42473953301E+02  0.10541232090E+03  0.00000000000E+00 0.  1.
</event>
<event>
 7    1  0.2522928E-009  0.9047182E+02  0.7561462E-02  0.1301713E+00
          2   -1    0    0  501    0  0.00000000000E+00  0.00000000000E+00  0.53499786421E+03  0.53499786421E+03  0.00000000000E+00 0. -1.
         -2   -1    0    0    0  501 -0.00000000000E+00 -0.00000000000E+00 -0.25507174144E+02  0.25507174144E+02  0.00000000000E+00 0.  1.
         25    2    1    2    0    0 -0.41729570287E+02 -0.21858549505E+02  0.29737623219E+03  0.32603614533E+03  0.12509113224E+03 0.  0.
          5    1    3    3  502    0 -0.57117554012E+02 -0.60387569301E+02  0.13674070339E+03  0.16007674993E+03  0.41800000000E+01 0. -1.
         -5    1    3    3    0  502  0.15387983724E+02  0.38529019797E+02  0.16063552880E+03  0.16595939540E+03  0.41800000000E+01 0. -1.
        -11    1    1    2    0    0  0.16097336095E+02 -0.68842720784E+01 -0.13486979617E+01  0.17559510744E+02  0.00000000000E+00 0.  1.
         11    1    1    2    0    0  0.25632234193E+02  0.28742821583E+02  0.21346315583E+03  0.21690938228E+03  0.00000000000E+00 0. -1.
</event>
<event>
 7    1  0.2522928E-009  0.9162465E+02  0.7561462E-02  0.1298964E+00
         -2   -1    0    0    0  501 -0.00000000000E+00  0.00000000000E+00  0.38019937865E+03  0.38019937865E+03  0.00000000000E+00 0. -1.
          2   -1    0    0  501    0  0.00000000000E+00 -0.00000000000E+00 -0.41663904559E+02  0.41663904559E+02  0.00000000000E+00 0.  1.
         25    2    1    2    0    0 -0.41984576280E+02  0.15037228554E+02  0.26246192743E+03  0.29414809013E+03  0.12509201689E+03 0.  0.
          5    1    3    3  502    0  0.35883400184E+02  0.11638932316E+02  0.28369056047E+02  0.47385218109E+02  0.41800000000E+01 0. -1.
         -5    1    3    3    0  502 -0.77867976464E+02  0.33982962380E+01  0.23409287139E+03  0.24676287202E+03  0.41800000000E+01 0. -1.
        -11    1    1    2    0    0  0.19489446024E+02  0.18490764359E+02 -0.13054044652E+02  0.29868963067E+02  0.00000000000E+00 0.  1.
         11    1    1    2    0    0  0.22495130256E+02 -0.33527992914E+02  0.89127591306E+02  0.97846230004E+02  0.00000000000E+00 0. -1.
</event>
<event>
 7    1  0.2522928E-009  0.8897063E+02  0.7561462E-02  0.1305364E+00
         -1   -1    0    0    0  501 -0.00000000000E+00  0.00000000000E+00  0.26766204426E+03  0.26766204426E+03  0.00000000000E+00 0.  1.
          1   -1    0    0  501    0  0.00000000000E+00 -0.00000000000E+00 -0.62142466904E+02  0.62142466904E+02  0.00000000000E+00 0. -1.
         25    2    1    2    0    0  0.93074838148E+01  0.65222142274E+02  0.14407646465E+03  0.20185627221E+03  0.12508944746E+03 0.  0.
          5    1    3    3  502    0  0.94062780800E+01  0.26356163158E+02  0.15788382511E+03  0.16039918963E+03  0.41800000000E+01 0.  1.
         -5    1    3    3    0  502 -0.98794265222E-01  0.38865979116E+02 -0.13807360458E+02  0.41457082576E+02  0.41800000000E+01 0.  1.
        -11    1    1    2    0    0 -0.35143679561E+02 -0.75084115369E+02  0.55199866923E+02  0.99597830811E+02  0.00000000000E+00 0.  1.
         11    1    1    2    0    0  0.25836195746E+02  0.98619730952E+01  0.62432457801E+01  0.28350408143E+02  0.00000000000E+00 0. -1.
</event>
<event>
 7    1  0.2522928E-009  0.9053313E+02  0.7561462E-02  0.1301566E+00
          1   -1    0    0  501    0  0.00000000000E+00  0.00000000000E+00  0.93544751320E+02  0.93544751320E+02  0.00000000000E+00 0.  1.
         -1   -1    0    0    0  501 -0.00000000000E+00 -0.00000000000E+00 -0.13839120350E+03  0.13839120350E+03  0.00000000000E+00 0. -1.
         25    2    1    2    0    0 -0.62787132865E+01  0.26634795929E+02 -0.27604600464E+01  0.12807770461E+03  0.12508974252E+03 0.  0.
          5    1    3    3  502    0  0.56727042630E+02  0.23576974105E+02 -0.15711534285E+02  0.63546485214E+02  0.41800000000E+01 0. -1.
         -5    1    3    3    0  502 -0.63005755916E+02  0.30578218240E+01  0.12951074238E+02  0.64531219397E+02  0.41800000000E+01 0. -1.
        -11    1    1    2    0    0  0.10570851123E+02 -0.40449693021E+02 -0.64688393769E+02  0.77022781353E+02  0.00000000000E+00 0. -1.
         11    1    1    2    0    0 -0.42921378361E+01  0.13814897091E+02  0.22602401637E+02  0.26835468854E+02  0.00000000000E+00 0.  1.
</event>
<event>
 7    1  0.2522928E-009  0.1134142E+03  0.7561462E-02  0.1254375E+00
          1   -1    0    0  501    0  0.00000000000E+00  0.00000000000E+00  0.74251630920E+03  0.74251630920E+03  0.00000000000E+00 0.  1.
         -1   -1    0    0    0  501 -0.00000000000E+00 -0.00000000000E+00 -0.21263193526E+02  0.21263193526E+02  0.00000000000E+00 0. -1.
         25    2    1    2    0    0 -0.38316105110E+02 -0.13138901099E+02  0.56390874860E+03  0.57903945015E+03  0.12511136420E+03 0.  0.
          5    1    3    3  502    0 -0.19542810492E+02  0.55892255787E+02  0.23088840287E+03  0.23839629334E+03  0.41800000000E+01 0. -1.
         -5    1    3    3    0  502 -0.18773294618E+02 -0.69031156886E+02  0.33302034573E+03  0.34064315681E+03  0.41800000000E+01 0. -1.
        -11    1    1    2    0    0  0.13708763834E+01 -0.35056610491E+02  0.45297404594E+02  0.57294852335E+02  0.00000000000E+00 0.  1.
         11    1    1    2    0    0  0.36945228727E+02  0.48195511591E+02  0.11204696249E+03  0.12744520025E+03  0.00000000000E+00 0. -1.
</event>
<event>
 7    1  0.2522928E-009  0.8114812E+02  0.7561462E-02  0.1325824E+00
         -1   -1    0    0    0  501 -0.00000000000E+00  0.00000000000E+00  0.37003152607E+02  0.37003152607E+02  0.00000000000E+00 0.  1.
          1   -1    0    0  501    0  0.00000000000E+00 -0.00000000000E+00 -0.32251408563E+03  0.32251408563E+03  0.00000000000E+00 0. -1.
         25    2    1    2    0    0  0.51466535040E+01 -0.86883359568E+01 -0.11355055158E+03  0.16924231682E+03  0.12508900356E+03 0.  0.
          5    1    3    3  502    0  0.16905817381E+02  0.43021488255E+02 -0.29402404691E+01  0.46505618231E+02  0.41800000000E+01 0.  1.
         -5    1    3    3    0  502 -0.11759163877E+02 -0.51709824212E+02 -0.11061031112E+03  0.12273669859E+03  0.41800000000E+01 0.  1.
        -11    1    1    2    0    0  0.96449748225E+01 -0.24512830043E+02 -0.13813239141E+03  0.14062169794E+03  0.00000000000E+00 0. -1.
         11    1    1    2    0    0 -0.14791628327E+02  0.33201165999E+02 -0.33827990033E+02  0.49653223480E+02  0.00000000000E+00 0.  1.
</event>
<event>
 7    1  0.2522928E-009  0.6408944E+02  0.7561462E-02  0.1381430E+00
          1   -1    0    0  501    0  0.00000000000E+00  0.00000000000E+00  0.66623841250E+03  0.66623841250E+03  0.00000000000E+00 0. -1.
         -1   -1    0    0    0  501 -0.00000000000E+00 -0.00000000000E+00 -0.19611517661E+02  0.19611517661E+02  0.00000000000E+00 0.  1.
         25    2    1    2    0    0  0.13115358681E+02  0.19320649886E+02  0.43564287983E+03  0.45384660378E+03  0.12508685328E+03 0.  0.
          5    1    3    3  502    0 -0.50786886985E+01  0.55066701413E+01  0.42981845797E+03  0.42990405407E+03  0.41800000000E+01 0. -1.
         -5    1    3    3    0  502  0.18194047380E+02  0.13813979745E+02  0.58244218690E+01  0.23942549709E+02  0.41800000000E+01 0. -1.
        -11    1    1    2    0    0 -0.49178936124E+02  0.96519328325E+01  0.11542993508E+03  0.12584036506E+03  0.00000000000E+00 0.  1.
         11    1    1    2    0    0  0.36063577443E+02 -0.28972582719E+02  0.95554079929E+02  0.10616296133E+03  0.00000000000E+00 0. -1.
</event>
<event>
 7    1  0.2522928E-009  0.1101155E+03  0.7561462E-02  0.1260356E+00
         -2   -1    0    0    0  501 -0.00000000000E+00  0.00000000000E+00  0.28661522159E+03  0.28661522159E+03  0.00000000000E+00 0.  1.
          2   -1    0    0  501    0  0.00000000000E+00 -0.00000000000E+00 -0.11142257225E+03  0.11142257225E+03  0.00000000000E+00 0. -1.
         25    2    1    2    0    0  0.81625888534E+00 -0.41531165110E+02 -0.58017290884E+02  0.14400853972E+03  0.12508776725E+03 0.  0.
          5    1    3    3  502    0 -0.18882791537E+02 -0.80366045553E+02 -0.17735108154E+02  0.84541513798E+02  0.41800000000E+01 0. -1.
         -5    1    3    3    0  502  0.19699050422E+02  0.38834880442E+02 -0.40282182729E+02  0.59467025921E+02  0.41800000000E+01 0. -1.
        -11    1    1    2    0    0 -0.31413543913E+02 -0.10789308999E+02  0.13149499840E+03  0.13562505128E+03  0.00000000000E+00 0.  1.
         11    1    1    2    0    0  0.30597285027E+02  0.52320474109E+02  0.10171494182E+03  0.11840420284E+03  0.00000000000E+00 0. -1.
</event>
<event>
 7    1  0.2522928E-009  0.7011649E+02  0.7561462E-02  0.1359697E+00
         -3   -1    0    0    0  501 -0.00000000000E+00  0.00000000000E+00  0.15715505746E+03  0.15715505746E+03  0.00000000000E+00 0.  1.
          3   -1    0    0  501    0  0.00000000000E+00 -0.00000000000E+00 -0.95355050102E+02  0.95355050102E+02  0.00000000000E+00 0. -1.
         25    2    1    2    0    0  0.25471091148E+00 -0.19319364580E+02  0.90096735799E+02  0.15536361751E+03  0.12508848516E+03 0.  0.
          5    1    3    3  502    0  0.11860830026E+02  0.21349865822E+02 -0.23455259710E+02  0.34119168624E+02  0.41800000000E+01 0.  1.
         -5    1    3    3    0  502 -0.11606119114E+02 -0.40669230402E+02  0.11355199551E+03  0.12124444889E+03  0.41800000000E+01 0.  1.
        -11    1    1    2    0    0 -0.21852882258E+01 -0.26753371396E+02  0.17590060597E+02  0.32092500643E+02  0.00000000000E+00 0.  1.
         11    1    1    2    0    0  0.19305773143E+01  0.46072735976E+02 -0.45886789040E+02  0.65053989404E+02  0.00000000000E+00 0. -1.
</event>
<event>
 7    1  0.2522928E-009  0.1154891E+03  0.7561462E-02  0.1250730E+00
          1   -1    0    0  501    0  0.00000000000E+00  0.00000000000E+00  0.33526772363E+03  0.33526772363E+03  0.00000000000E+00 0. -1.
         -1   -1    0    0    0  501 -0.00000000000E+00 -0.00000000000E+00 -0.54143100045E+02  0.54143100045E+02  0.00000000000E+00 0.  1.
         25    2    1    2    0    0 -0.30381420014E+02 -0.43642066616E+02  0.67670197771E+02  0.15183991936E+03  0.12509374398E+03 0.  0.
          5    1    3    3  502    0  0.35684292986E+01  0.42299104719E+02  0.13972712890E+02  0.44884931249E+02  0.41800000000E+01 0. -1.
         -5    1    3    3    0  502 -0.33949849312E+02 -0.85941171335E+02  0.53697484881E+02  0.10695498811E+03  0.41800000000E+01 0. -1.
        -11    1    1    2    0    0  0.48084951211E+02 -0.68896437474E+00  0.15394712388E+03  0.16128345903E+03  0.00000000000E+00 0.  1.
         11    1    1    2    0    0 -0.17703531197E+02  0.44331030991E+02  0.59507301937E+02  0.76287445293E+02  0.00000000000E+00 0. -1.
</event>
<event>
 7    1  0.2522928E-009  0.1615285E+03  0.7561462E-02  0.1186982E+00
         -2   -1    0    0    0  501 -0.00000000000E+00  0.00000000000E+00  0.32198100646E+02  0.32198100646E+02  0.00000000000E+00 0.  1.
          2   -1    0    0  501    0  0.00000000000E+00 -0.00000000000E+00 -0.97969410179E+03  0.97969410179E+03  0.00000000000E+00 0. -1.
         25    2    1    2    0    0  0.12135901722E+03  0.52698190262E+01 -0.69552424464E+03  0.71704586217E+03  0.12508002046E+03 0.  0.
          5    1    3    3  502    0  0.10806429486E+03  0.53147787708E+02 -0.41565958013E+03  0.43277354137E+03  0.41800000000E+01 0. -1.
         -5    1    3    3    0  502  0.13294722368E+02 -0.47877968682E+02 -0.27986466452E+03  0.28427232080E+03  0.41800000000E+01 0. -1.
        -11    1    1    2    0    0 -0.44814576359E+02 -0.47473410480E+02 -0.96989905706E+02  0.11691498093E+03  0.00000000000E+00 0.  1.
         11    1    1    2    0    0 -0.76544440865E+02  0.42203591453E+02 -0.15498185079E+03  0.17793135933E+03  0.00000000000E+00 0. -1.
</event>
<event>
 7    1  0.2522928E-009  0.1465092E+03  0.7561462E-02  0.1204829E+00
          1   -1    0    0  501    0  0.00000000000E+00  0.00000000000E+00  0.10601684773E+04  0.10601684773E+04  0.00000000000E+00 0. -1.
         -1   -1    0    0    0  501 -0.00000000000E+00 -0.00000000000E+00 -0.29820446935E+02  0.29820446935E+02  0.00000000000E+00 0.  1.
         25    2    1    2    0    0 -0.83202796384E+02 -0.10560594841E+03  0.42521099698E+03  0.46317175019E+03  0.12509339133E+03 0.  0.
          5    1    3    3  502    0 -0.57862076068E+02 -0.91362014070E+01  0.57650531513E+02  0.82295481083E+02  0.41800000000E+01 0.  1.
         -5    1    3    3    0  502 -0.25340720316E+02 -0.96469746999E+02  0.36756046547E+03  0.38087626910E+03  0.41800000000E+01 0.  1.
        -11    1    1    2    0    0  0.22004113325E+02  0.26466771023E+02  0.39459497614E+02  0.52361464108E+02  0.00000000000E+00 0.  1.
         11    1    1    2    0    0  0.61198683059E+02  0.79139177382E+02  0.56567753574E+03  0.57445570991E+03  0.00000000000E+00 0. -1.
</event>
<event>
 7    1  0.2522928E-009  0.1368104E+03  0.7561462E-02  0.1217686E+00
          3   -1    0    0  501    0  0.00000000000E+00  0.00000000000E+00  0.37022543087E+02  0.37022543087E+02  0.00000000000E+00 0. -1.
         -3   -1    0    0    0  501 -0.00000000000E+00 -0.00000000000E+00 -0.64840313182E+03  0.64840313182E+03  0.00000000000E+00 0.  1.
         25    2    1    2    0    0 -0.87944839879E+02  0.36015862319E+02 -0.20729964739E+03  0.26010134773E+03  0.12509248611E+03 0.  0.
          5    1    3    3  502    0 -0.10175563732E+03  0.61256024462E+02 -0.19536539382E+03  0.22867360968E+03  0.41800000000E+01 0. -1.
         -5    1    3    3    0  502  0.13810797438E+02 -0.25240162143E+02 -0.11934253566E+02  0.31427738052E+02  0.41800000000E+01 0. -1.
        -11    1    1    2    0    0  0.11116848960E+02 -0.46817536062E+02 -0.92959854221E+02  0.10467569207E+03  0.00000000000E+00 0.  1.
         11    1    1    2    0    0  0.76827990919E+02  0.10801673743E+02 -0.31112108712E+03  0.32064863511E+03  0.00000000000E+00 0. -1.
</event>
<event>
 7    1  0.2522928E-009  0.1279387E+03  0.7561462E-02  0.1230547E+00
          1   -1    0    0  501    0  0.00000000000E+00  0.00000000000E+00  0.28119752190E+03  0.28119752190E+03  0.00000000000E+00 0. -1.
         -1   -1    0    0    0  501 -0.00000000000E+00 -0.00000000000E+00 -0.65081517209E+02  0.65081517209E+02  0.00000000000E+00 0.  1.
         25    2    1    2    0    0 -0.37848278027E+02  0.70730841806E+02  0.11150984348E+03  0.18578289805E+03  0.12508195666E+03 0.  0.
          5    1    3    3  502    0 -0.16800651780E+02  0.10593049716E+03  0.82370633158E+02  0.13529939296E+03  0.41800000000E+01 0.  1.
         -5    1    3    3    0  502 -0.21047626246E+02 -0.35199655354E+02  0.29139210325E+02  0.50483505088E+02  0.41800000000E+01 0.  1.
        -11    1    1    2    0    0  0.47312090543E+02 -0.13348571316E+02  0.11127493638E+02  0.50402771574E+02  0.00000000000E+00 0.  1.
         11    1    1    2    0    0 -0.94638125158E+01 -0.57382270490E+02  0.93478667566E+02  0.11009336948E+03  0.00000000000E+00 0. -1.
</event>
<event>
 7    1  0.2522928E-009  0.8322247E+02  0.7561462E-02  0.1320148E+00
          1   -1    0    0  501    0  0.00000000000E+00  0.00000000000E+00  0.44909202728E+03  0.44909202728E+03  0.00000000000E+00 0. -1.
         -1   -1    0    0    0  501 -0.00000000000E+00 -0.00000000000E+00 -0.23951755065E+02  0.23951755065E+02  0.00000000000E+00 0.  1.
         25    2    1    2    0    0 -0.61777604518E+01  0.33434124045E+02  0.23981477641E+03  0.27260836779E+03  0.12509272493E+03 0.  0.
          5    1    3    3  502    0 -0.17926273917E+02 -0.25932849331E+02  0.19399955168E+03  0.19658881561E+03  0.41800000000E+01 0.  1.
         -5    1    3    3    0  502  0.11748513466E+02  0.59366973376E+02  0.45815224731E+02  0.76019552180E+02  0.41800000000E+01 0.  1.
        -11    1    1    2    0    0  0.18747147923E+02 -0.49877156080E+02  0.10860202210E+03  0.12096935752E+03  0.00000000000E+00 0.  1.
         11    1    1    2    0    0 -0.12569387471E+02  0.16443032034E+02  0.76723473697E+02  0.79466057030E+02  0.00000000000E+00 0. -1.
</event>
<event>
 7    1  0.2522928E-009  0.1298251E+03  0.7561462E-02  0.1227715E+00
          2   -1    0    0  501    0  0.00000000000E+00  0.00000000000E+00  0.43339321566E+03  0.43339321566E+03  0.00000000000E+00 0. -1.
         -2   -1    0    0    0  501 -0.00000000000E+00 -0.00000000000E+00 -0.60060868795E+02  0.60060868795E+02  0.00000000000E+00 0.  1.
         25    2    1    2    0    0  0.22626772185E+02 -0.10805208520E+03  0.25740934143E+03  0.30674731470E+03  0.12508845705E+03 0.  0.
          5    1    3    3  502    0 -0.53807169566E+01 -0.26762934618E+02  0.20309466930E+03  0.20496371358E+03  0.41800000000E+01 0.  1.
         -5    1    3    3    0  502  0.28007489142E+02 -0.81289150582E+02  0.54314672128E+02  0.10178360113E+03  0.41800000000E+01 0.  1.
        -11    1    1    2    0    0 -0.49195404268E+02  0.10876679042E+03  0.89230123163E+02  0.14903830843E+03  0.00000000000E+00 0.  1.
         11    1    1    2    0    0  0.26568632083E+02 -0.71470522135E+00  0.26692882272E+02  0.37668461321E+02  0.00000000000E+00 0. -1.
</event>
<event>
 7    1  0.2522928E-009  0.1192532E+03  0.7561462E-02  0.1244334E+00
          1   -1    0    0  501    0  0.00000000000E+00  0.00000000000E+00  0.18990211942E+04  0.18990211942E+04  0.00000000000E+00 0. -1.
         -1   -1    0    0    0  501 -0.00000000000E+00 -0.00000000000E+00 -0.88824647741E+01  0.88824647741E+01  0.00000000000E+00 0.  1.
         25    2    1    2    0    0  0.19072493379E+02 -0.48804852190E+02  0.13949532104E+04  0.14015305747E+04  0.12509124312E+03 0.  0.
          5    1    3    3  502    0 -0.13689872498E+01 -0.88313272716E+02  0.10455465489E+04  0.10492788793E+04  0.41800000000E+01 0. -1.
         -5    1    3    3    0  502  0.20441480628E+02  0.39508420526E+02  0.34940666145E+03  0.35225169537E+03  0.41800000000E+01 0. -1.
        -11    1    1    2    0    0 -0.49706226874E+02  0.55018469620E+02  0.32617891639E+03  0.33450026380E+03  0.00000000000E+00 0.  1.
         11    1    1    2    0    0  0.30633733496E+02 -0.62136174303E+01  0.16900660264E+03  0.17187282044E+03  0.00000000000E+00 0. -1.
</event>
<event>
 7    1  0.2522928E-009  0.1012851E+03  0.7561462E-02  0.1277617E+00
         -3   -1    0    0    0  501 -0.00000000000E+00  0.00000000000E+00  0.33349668980E+03  0.33349668980E+03  0.00000000000E+00 0.  1.
          3   -1    0    0  501    0  0.00000000000E+00 -0.00000000000E+00 -0.62844200932E+02  0.62844200932E+02  0.00000000000E+00 0. -1.
         25    2    1    2    0    0  0.82402972184E+02 -0.24261082862E+02  0.22247739538E+03  0.26929889489E+03  0.12508738293E+03 0.  0.
          5    1    3    3  502    0  0.68825376631E+02 -0.98499532540E+01  0.23526627044E+03  0.24536023405E+03  0.41800000000E+01 0.  1.
         -5    1    3    3    0  502  0.13577595553E+02 -0.14411129608E+02 -0.12788875058E+02  0.23938660841E+02  0.41800000000E+01 0.  1.
        -11    1    1    2    0    0 -0.64668817562E+02  0.49777466583E+02  0.17673600630E+02  0.83499750320E+02  0.00000000000E+00 0.  1.
         11    1    1    2    0    0 -0.17734154622E+02 -0.25516383721E+02  0.30501492859E+02  0.43542245521E+02  0.00000000000E+00 0. -1.
</event>
<event>
 7    1  0.2522928E-009  0.1103628E+03  0.7561462E-02  0.1259899E+00
          3   -1    0    0  501    0  0.00000000000E+00  0.00000000000E+00  0.26832876701E+03  0.26832876701E+03  0.00000000000E+00 0. -1.
         -3   -1    0    0    0  501 -0.00000000000E+00 -0.00000000000E+00 -0.63828888702E+02  0.63828888702E+02  0.00000000000E+00 0.  1.
         25    2    1    2    0    0  0.63100990107E+02 -0.26272989793E+02  0.14629756785E+03  0.20425989607E+03  0.12508845607E+03 0.  0.
          5    1    3    3  502    0 -0.22574290687E+02 -0.12333990487E+02 -0.79238092084E+01  0.27239402962E+02  0.41800000000E+01 0.  1.
         -5    1    3    3    0  502  0.85675280794E+02 -0.13938999306E+02  0.15422137706E+03  0.17702049311E+03  0.41800000000E+01 0.  1.
        -11    1    1    2    0    0  0.14348584979E+02 -0.14360428867E+02  0.29572323003E+02  0.35869570613E+02  0.00000000000E+00 0. -1.
         11    1    1    2    0    0 -0.77449575086E+02  0.40633418661E+02  0.28629987455E+02  0.92028189022E+02  0.00000000000E+00 0.  1.
</event>
<event>
 7    1  0.2522928E-009  0.2305179E+03  0.7561462E-02  0.1126276E+00
         -1   -1    0    0    0  501 -0.00000000000E+00  0.00000000000E+00  0.29912252608E+03  0.29912252608E+03  0.00000000000E+00 0.  1.
          1   -1    0    0  501    0  0.00000000000E+00 -0.00000000000E+00 -0.31920074386E+03  0.31920074386E+03  0.00000000000E+00 0. -1.
         25    2    1    2    0    0 -0.94941913392E+02  0.18208449235E+03 -0.21334322914E+03  0.32145310594E+03  0.12509211258E+03 0.  0.
          5    1    3    3  502    0 -0.92469540240E+02  0.19886298311E+03 -0.17975902238E+03  0.28359809670E+03  0.41800000000E+01 0. -1.
         -5    1    3    3    0  502 -0.24723731513E+01 -0.16778490765E+02 -0.33584206758E+02  0.37855009244E+02  0.41800000000E+01 0. -1.
        -11    1    1    2    0    0 -0.16091080626E+02 -0.45108979279E+02  0.54016665658E+02  0.72191017835E+02  0.00000000000E+00 0.  1.
         11    1    1    2    0    0  0.11103299402E+03 -0.13697551307E+03  0.13924834570E+03  0.22467914616E+03  0.00000000000E+00 0. -1.
</event>
<event>
 7    1  0.2522928E-009  0.1499807E+03  0.7561462E-02  0.1200497E+00
          2   -1    0    0  501    0  0.00000000000E+00  0.00000000000E+00  0.59188310556E+02  0.59188310556E+02  0.00000000000E+00 0.  1.
         -2   -1    0    0    0  501 -0.00000000000E+00 -0.00000000000E+00 -0.42970711768E+03  0.42970711768E+03  0.00000000000E+00 0. -1.
         25    2    1    2    0    0  0.17896990039E+02  0.91472539302E+02 -0.21815469930E+03  0.26819467024E+03  0.12509748446E+03 0.  0.
          5    1    3    3  502    0  0.19753775534E+02 -0.26413672729E+02 -0.79312568611E+02  0.85999126127E+02  0.41800000000E+01 0.  1.
         -5    1    3    3    0  502 -0.18567854946E+01  0.11788621203E+03 -0.13884213069E+03  0.18219554411E+03  0.41800000000E+01 0.  1.
        -11    1    1    2    0    0 -0.11779037591E+02  0.27340038411E+02 -0.69814105216E+02  0.75896196966E+02  0.00000000000E+00 0. -1.
         11    1    1    2    0    0 -0.61179524488E+01 -0.11881257771E+03 -0.82550002601E+02  0.14480456103E+03  0.00000000000E+00 0.  1.
</event>
<event>
 7    1  0.2522928E-009  0.1165303E+03  0.7561462E-02  0.1248933E+00
          2   -1    0    0  501    0  0.00000000000E+00  0.00000000000E+00  0.31151826965E+03  0.31151826965E+03  0.00000000000E+00 0. -1.
         -2   -1    0    0    0  501 -0.00000000000E+00 -0.00000000000E+00 -0.57579876609E+02  0.57579876609E+02  0.00000000000E+00 0.  1.
         25    2    1    2    0    0  0.76426942385E+01  0.74023041580E+02  0.13647168969E+03  0.19952495862E+03  0.12509142882E+03 0.  0.
          5    1    3    3  502    0 -0.17494880078E+02 -0.23019820557E+02 -0.11212727053E+01  0.29235468525E+02  0.41800000000E+01 0. -1.
         -5    1    3    3    0  502  0.25137574316E+02  0.97042862137E+02  0.13759296240E+03  0.17028949009E+03  0.41800000000E+01 0. -1.
        -11    1    1    2    0    0  0.32175959199E+02 -0.38274843553E+02  0.12174297685E+02  0.51463283256E+02  0.00000000000E+00 0.  1.
         11    1    1    2    0    0 -0.39818653437E+02 -0.35748198027E+02  0.10529240566E+03  0.11810990439E+03  0.00000000000E+00 0. -1.
</event>
<event>
 7    1  0.2522928E-009  0.1528141E+03  0.7561462E-02  0.1197057E+00
         -2   -1    0    0    0  501 -0.00000000000E+00  0.00000000000E+00  0.10634712023E+03  0.10634712023E+03  0.00000000000E+00 0.  1.
          2   -1    0    0  501    0  0.00000000000E+00 -0.00000000000E+00 -0.30231867227E+03  0.30231867227E+03  0.00000000000E+00 0. -1.
         25    2    1    2    0    0 -0.44931380983E+02 -0.12921655211E+03 -0.59144466375E+02  0.19457641959E+03  0.12508464663E+03 0.  0.
          5    1    3    3  502    0  0.94936471110E+00 -0.82188678534E+02 -0.89925809449E+02  0.12190161516E+03  0.41800000000E+01 0. -1.
         -5    1    3    3    0  502 -0.45880745694E+02 -0.47027873576E+02  0.30781343074E+02  0.72674804437E+02  0.41800000000E+01 0. -1.
        -11    1    1    2    0    0  0.48180768194E+02  0.27009337681E+02 -0.19792635081E+02  0.58674007441E+02  0.00000000000E+00 0.  1.
         11    1    1    2    0    0 -0.32493872117E+01  0.10220721443E+03 -0.11703445059E+03  0.15541536547E+03  0.00000000000E+00 0. -1.
</event>
<event>
 7    1  0.2522928E-009  0.4827142E+03  0.7561462E-02  0.1018392E+00
         -2   -1    0    0    0  501 -0.00000000000E+00  0.00000000000E+00  0.35504630440E+03  0.35504630440E+03  0.00000000000E+00 0.  1.
          2   -1    0    0  501    0  0.00000000000E+00 -0.00000000000E+00 -0.69064978042E+03  0.69064978042E+03  0.00000000000E+00 0. -1.
         25    2    1    2    0    0  0.17896326015E+03  0.44412764290E+03 -0.10641915744E+03  0.50621090358E+03  0.12508888905E+03 0.  0.
          5    1    3    3  502    0 -0.77427132539E+01  0.32125105898E+02 -0.34892854440E+02  0.48238529501E+02  0.41800000000E+01 0.  1.
         -5    1    3    3    0  502  0.18670597340E+03  0.41200253701E+03 -0.71526302996E+02  0.45797237408E+03  0.41800000000E+01 0.  1.
        -11    1    1    2    0    0 -0.66122504635E+02 -0.20399763166E+03 -0.52695310096E+02  0.22082575721E+03  0.00000000000E+00 0.  1.
         11    1    1    2    0    0 -0.11284075551E+03 -0.24013001124E+03 -0.17648900849E+03  0.31865942403E+03  0.00000000000E+00 0. -1.
</event>
<event>
 7    1  0.2522928E-009  0.9912288E+02  0.7561462E-02  0.1282151E+00
         -1   -1    0    0    0  501 -0.00000000000E+00  0.00000000000E+00  0.40496515491E+02  0.40496515491E+02  0.00000000000E+00 0.  1.
          1   -1    0    0  501    0  0.00000000000E+00 -0.00000000000E+00 -0.37190458818E+03  0.37190458818E+03  0.00000000000E+00 0. -1.
         25    2    1    2    0    0 -0.26319710838E+02 -0.48710343191E+00 -0.27216304554E+03  0.30068705457E+03  0.12508803693E+03 0.  0.
          5    1    3    3  502    0  0.41377254801E+02  0.21625352648E+02 -0.55850100849E+02  0.72913916757E+02  0.41800000000E+01 0. -1.
         -5    1    3    3    0  502 -0.67696965639E+02 -0.22112456080E+02 -0.21631294469E+03  0.22777313781E+03  0.41800000000E+01 0. -1.
        -11    1    1    2    0    0  0.79093188180E+01  0.37696407074E+02  0.10236209393E+01  0.38530821822E+02  0.00000000000E+00 0.  1.
         11    1    1    2    0    0  0.18410392020E+02 -0.37209303642E+02 -0.60268648090E+02  0.73183227276E+02  0.00000000000E+00 0. -1.
</event>
<event>
 7    1  0.2522928E-009  0.1380275E+03  0.7561462E-02  0.1216008E+00
          1   -1    0    0  501    0  0.00000000000E+00  0.00000000000E+00  0.54391039819E+02  0.54391039819E+02  0.00000000000E+00 0. -1.
         -1   -1    0    0    0  501 -0.00000000000E+00 -0.00000000000E+00 -0.39006968413E+03  0.39006968413E+03  0.00000000000E+00 0.  1.
         25    2    1    2    0    0  0.67948059725E+02 -0.63281463734E+02 -0.13575193719E+03  0.20663261315E+03  0.12508783271E+03 0.  0.
          5    1    3    3  502    0  0.19283701617E+02 -0.90143803529E+02 -0.51693325690E+02  0.10577068962E+03  0.41800000000E+01 0.  1.
         -5    1    3    3    0  502  0.48664358107E+02  0.26862339795E+02 -0.84058611502E+02  0.10086192352E+03  0.41800000000E+01 0.  1.
        -11    1    1    2    0    0 -0.47848976426E+02  0.85558799608E+02 -0.14138421991E+03  0.17204455927E+03  0.00000000000E+00 0. -1.
         11    1    1    2    0    0 -0.20099083299E+02 -0.22277335874E+02 -0.58542487208E+02  0.65783551528E+02  0.00000000000E+00 0.  1.
</event>
<event>
 7    1  0.2522928E-009  0.8986290E+02  0.7561462E-02  0.1303184E+00
         -2   -1    0    0    0  501 -0.00000000000E+00  0.00000000000E+00  0.14481355307E+02  0.14481355307E+02  0.00000000000E+00 0.  1.
          2   -1    0    0  501    0  0.00000000000E+00 -0.00000000000E+00 -0.17968927377E+04  0.17968927377E+04  0.00000000000E+00 0. -1.
         25    2    1    2    0    0  0.60088897837E+02  0.23441680129E+02 -0.15332226772E+04  0.15396685661E+04  0.12508927883E+03 0.  0.
          5    1    3    3  502    0  0.42106118349E+02  0.34179097008E+02 -0.23277883707E+03  0.23904935737E+03  0.41800000000E+01 0.  1.
         -5    1    3    3    0  502  0.17982779488E+02 -0.10737416878E+02 -0.13004438401E+04  0.13006192088E+04  0.41800000000E+01 0.  1.
        -11    1    1    2    0    0  0.10676112218E+02 -0.31019752494E+02 -0.46677526725E+02  0.57052571528E+02  0.00000000000E+00 0. -1.
         11    1    1    2    0    0 -0.70765010055E+02  0.75780723641E+01 -0.20251117844E+03  0.21465295531E+03  0.00000000000E+00 0.  1.
</event>
<event>
 7    1  0.2522928E-009  0.1517612E+03  0.7561462E-02  0.1198325E+00
          4   -1    0    0  501    0  0.00000000000E+00  0.00000000000E+00  0.31500647334E+03  0.31500647334E+03  0.00000000000E+00 0. -1.
         -4   -1    0    0    0  501 -0.00000000000E+00 -0.00000000000E+00 -0.11673071658E+03  0.11673071658E+03  0.00000000000E+00 0.  1.
         25    2    1    2    0    0  0.77579174569E+02 -0.89214111036E+02  0.22276730797E+03  0.28151552807E+03  0.12509209852E+03 0.  0.
          5    1    3    3  502    0  0.70260028719E+02  0.35707236497E+00  0.48755288138E+02  0.85622132989E+02  0.41800000000E+01 0.  1.
         -5    1    3    3    0  502  0.73191458503E+01 -0.89571183401E+02  0.17401201983E+03  0.19589339508E+03  0.41800000000E+01 0.  1.
        -11    1    1    2    0    0 -0.88491393505E+02  0.48276692331E+02 -0.34759581960E+02  0.10662829964E+03  0.00000000000E+00 0.  1.
         11    1    1    2    0    0  0.10912218936E+02  0.40937418705E+02  0.10268030757E+02  0.43593362201E+02  0.00000000000E+00 0. -1.
</event>
<event>
 7    1  0.2522928E-009  0.1039465E+03  0.7561462E-02  0.1272209E+00
          1   -1    0    0  501    0  0.00000000000E+00  0.00000000000E+00  0.16999218516E+03  0.16999218516E+03  0.00000000000E+00 0. -1.
         -1   -1    0    0    0  501 -0.00000000000E+00 -0.00000000000E+00 -0.92145047821E+02  0.92145047821E+02  0.00000000000E+00 0.  1.
         25    2    1    2    0    0 -0.33489629607E+02 -0.88031260908E+01 -0.12022246778E+02  0.13035151899E+03  0.12509170142E+03 0.  0.
          5    1    3    3  502    0 -0.74797158587E+02  0.57218713702E+01  0.17796433672E+02  0.77211010848E+02  0.41800000000E+01 0.  1.
         -5    1    3    3    0  502  0.41307528980E+02 -0.14524997461E+02 -0.29818680450E+02  0.53140508141E+02  0.41800000000E+01 0.  1.
        -11    1    1    2    0    0  0.27389347921E+02 -0.35059734856E+02  0.70691774211E+02  0.83526572591E+02  0.00000000000E+00 0.  1.
         11    1    1    2    0    0  0.61002816859E+01  0.43862860946E+02  0.19177609904E+02  0.48259141400E+02  0.00000000000E+00 0. -1.
</event>
<event>
 7    1  0.2522928E-009  0.1397609E+03  0.7561462E-02  0.1213651E+00
          4   -1    0    0  501    0  0.00000000000E+00  0.00000000000E+00  0.10965955812E+03  0.10965955812E+03  0.00000000000E+00 0. -1.
         -4   -1    0    0    0  501 -0.00000000000E+00 -0.00000000000E+00 -0.23239575481E+03  0.23239575481E+03  0.00000000000E+00 0.  1.
         25    2    1    2    0    0 -0.82434305879E+02 -0.75622099709E+02 -0.10059550329E+03  0.19565599206E+03  0.12509074784E+03 0.  0.
          5    1    3    3  502    0  0.33145423946E+02 -0.22463523910E+02 -0.19513367181E+02  0.44737824419E+02  0.41800000000E+01 0. -1.
         -5    1    3    3    0  502 -0.11557972983E+03 -0.53158575799E+02 -0.81082136105E+02  0.15091816764E+03  0.41800000000E+01 0. -1.
        -11    1    1    2    0    0  0.53825411684E+02  0.52544542817E+02 -0.58048493950E+02  0.95014375611E+02  0.00000000000E+00 0.  1.
         11    1    1    2    0    0  0.28608894195E+02  0.23077556891E+02  0.35907800546E+02  0.51384945258E+02  0.00000000000E+00 0. -1.
</event>
<event>
 7    1  0.2522928E-009  0.1043424E+03  0.7561462E-02  0.1271421E+00
          3   -1    0    0  501    0  0.00000000000E+00  0.00000000000E+00  0.47734547240E+02  0.47734547240E+02  0.00000000000E+00 0. -1.
         -3   -1    0    0    0  501 -0.00000000000E+00 -0.00000000000E+00 -0.42080781813E+03  0.42080781813E+03  0.00000000000E+00 0.  1.
         25    2    1    2    0    0  0.37164206120E+02  0.71136490845E+02 -0.26943603413E+03  0.30771006526E+03  0.12509248271E+03 0.  0.
          5    1    3    3  502    0  0.33181215796E+02  0.83368917020E+02 -0.27769469394E+03  0.29186158509E+03  0.41800000000E+01 0.  1.
         -5    1    3    3    0  502  0.39829903242E+01 -0.12232426175E+02  0.82586598116E+01  0.15848480177E+02  0.41800000000E+01 0.  1.
        -11    1    1    2    0    0  0.20090742408E+02 -0.22916775476E+02 -0.74524443596E+02  0.80515273222E+02  0.00000000000E+00 0.  1.
         11    1    1    2    0    0 -0.57254948528E+02 -0.48219715369E+02 -0.29112793163E+02  0.80317026881E+02  0.00000000000E+00 0. -1.
</event>
<event>
 7    1  0.2522928E-009  0.9683445E+02  0.7561462E-02  0.1287097E+00
         -1   -1    0    0    0  501 -0.00000000000E+00  0.00000000000E+00  0.65694618465E+03  0.65694618465E+03  0.00000000000E+00 0.  1.
          1   -1    0    0  501    0  0.00000000000E+00 -0.00000000000E+00 -0.22995092281E+02  0.22995092281E+02  0.00000000000E+00 0. -1.
         25    2    1    2    0    0  0.33809731375E+02 -0.63672640401E+01  0.21027733313E+03  0.24707730932E+03  0.12508796892E+03 0.  0.
          5    1    3    3  502    0  0.11772426260E+02 -0.52929632613E+02  0.17804776117E+03  0.18616824027E+03  0.41800000000E+01 0. -1.
         -5    1    3    3    0  502  0.22037305115E+02  0.46562368573E+02  0.32229571956E+02  0.60909069048E+02  0.41800000000E+01 0. -1.
        -11    1    1    2    0    0 -0.37890313339E+02  0.39198456448E+02  0.22908187973E+03  0.23547972833E+03  0.00000000000E+00 0.  1.
         11    1    1    2    0    0  0.40805819647E+01 -0.32831192408E+02  0.19459187951E+03  0.19738423928E+03  0.00000000000E+00 0. -1.
</event>
<event>
 7    1  0.2522928E-009  0.9676493E+02  0.7561462E-02  0.1287250E+00
         -4   -1    0    0    0  501 -0.00000000000E+00  0.00000000000E+00  0.13858109465E+03  0.13858109465E+03  0.00000000000E+00 0.  1.
          4   -1    0    0  501    0  0.00000000000E+00 -0.00000000000E+00 -0.11900378881E+03  0.11900378881E+03  0.00000000000E+00 0. -1.
         25    2    1    2    0    0  0.61200043942E+02 -0.92603857478E+01 -0.17566536488E+02  0.14066923924E+03  0.12509217218E+03 0.  0.
          5    1    3    3  502    0  0.86266624099E+01  0.31647892846E+02 -0.54976328832E+02  0.64155105469E+02  0.41800000000E+01 0.  1.
         -5    1    3    3    0  502  0.52573381532E+02 -0.40908278594E+02  0.37409792344E+02  0.76514133770E+02  0.41800000000E+01 0.  1.
        -11    1    1    2    0    0 -0.27481097860E+02  0.39704779764E+02  0.50193036027E+02  0.69649272367E+02  0.00000000000E+00 0.  1.
         11    1    1    2    0    0 -0.33718946083E+02 -0.30444394016E+02 -0.13049193698E+02  0.47266371853E+02  0.00000000000E+00 0. -1.
</event>
<event>
 7    1  0.2522928E-009  0.1371559E+03  0.7561462E-02  0.1217208E+00
          2   -1    0    0  501    0  0.00000000000E+00  0.00000000000E+00  0.10298899200E+04  0.10298899200E+04  0.00000000000E+00 0. -1.
         -2   -1    0    0    0  501 -0.00000000000E+00 -0.00000000000E+00 -0.25724521872E+02  0.25724521872E+02  0.00000000000E+00 0.  1.
         25    2    1    2    0    0 -0.51246631961E+02 -0.98794850857E+02  0.69496685271E+03  0.71485154914E+03  0.12508865293E+03 0.  0.
          5    1    3    3  502    0 -0.77923530172E+01 -0.86534050741E+02  0.20367986611E+03  0.22147646141E+03  0.41800000000E+01 0.  1.
         -5    1    3    3    0  502 -0.43454278944E+02 -0.12260800116E+02  0.49128698661E+03  0.49337508772E+03  0.41800000000E+01 0.  1.
        -11    1    1    2    0    0  0.66460202956E+02  0.32529902444E+02  0.13858833783E+03  0.15710468011E+03  0.00000000000E+00 0.  1.
         11    1    1    2    0    0 -0.15213570995E+02  0.66264948413E+02  0.17061020753E+03  0.18365821257E+03  0.00000000000E+00 0. -1.
</event>
<event>
 7    1  0.2522928E-009  0.9863688E+02  0.7561462E-02  0.1283189E+00
         -1   -1    0    0    0  501 -0.00000000000E+00  0.00000000000E+00  0.10448447212E+03  0.10448447212E+03  0.00000000000E+00 0. -1.
          1   -1    0    0  501    0  0.00000000000E+00 -0.00000000000E+00 -0.13001420298E+03  0.13001420298E+03  0.00000000000E+00 0.  1.
         25    2    1    2    0    0 -0.71811216938E-01 -0.38706832641E+02  0.54203952203E+01  0.13105480777E+03  0.12509099849E+03 0.  0.
          5    1    3    3  502    0  0.50884884486E+02 -0.27631282272E+02 -0.32417378551E+02  0.66491488638E+02  0.41800000000E+01 0. -1.
         -5    1    3    3    0  502 -0.50956695703E+02 -0.11075550369E+02  0.37837773771E+02  0.64563319129E+02  0.41800000000E+01 0. -1.
        -11    1    1    2    0    0 -0.28163082920E+02 -0.10596489206E+02 -0.35392093745E+02  0.46454764263E+02  0.00000000000E+00 0.  1.
         11    1    1    2    0    0  0.28234894137E+02  0.49303321848E+02  0.44419676684E+01  0.56989103072E+02  0.00000000000E+00 0. -1.
</event>
<event>
 7    1  0.2522928E-009  0.6116254E+02  0.7561462E-02  0.1393017E+00
          1   -1    0    0  501    0  0.00000000000E+00  0.00000000000E+00  0.17733255243E+02  0.17733255243E+02  0.00000000000E+00 0. -1.
         -1   -1    0    0    0  501 -0.00000000000E+00 -0.00000000000E+00 -0.50212342063E+03  0.50212342063E+03  0.00000000000E+00 0.  1.
         25    2    1    2    0    0  0.29390491194E+02  0.31068976498E+02 -0.33121060615E+03  0.35661803689E+03  0.12508747472E+03 0.  0.
          5    1    3    3  502    0  0.40781774504E+02  0.63073513973E+01 -0.32590946542E+03  0.32853825936E+03  0.41800000000E+01 0. -1.
         -5    1    3    3    0  502 -0.11391283310E+02  0.24761625101E+02 -0.53011407356E+01  0.28079777531E+02  0.41800000000E+01 0. -1.
        -11    1    1    2    0    0 -0.85250500806E+01  0.62129554081E+01 -0.13274177990E+02  0.16955267474E+02  0.00000000000E+00 0.  1.
         11    1    1    2    0    0 -0.20865441113E+02 -0.37281931906E+02 -0.13990538124E+03  0.14628337151E+03  0.00000000000E+00 0. -1.
</event>
<event>
 7    1  0.2522928E-009  0.1322989E+03  0.7561462E-02  0.1224084E+00
         -1   -1    0    0    0  501 -0.00000000000E+00  0.00000000000E+00  0.23028308966E+02  0.23028308966E+02  0.00000000000E+00 0.  1.
          1   -1    0    0  501    0  0.00000000000E+00 -0.00000000000E+00 -0.80933807071E+03  0.80933807071E+03  0.00000000000E+00 0. -1.
         25    2    1    2    0    0 -0.75449457407E+02  0.83561183048E+01 -0.37299474449E+03  0.40066882088E+03  0.12509188331E+03 0.  0.
          5    1    3    3  502    0  0.33319725725E+02  0.90160710729E+00 -0.13060038616E+03  0.13485158613E+03  0.41800000000E+01 0. -1.
         -5    1    3    3    0  502 -0.10876918313E+03  0.74545111975E+01 -0.24239435833E+03  0.26581723475E+03  0.41800000000E+01 0. -1.
        -11    1    1    2    0    0  0.22140741156E+02 -0.49719393863E+02 -0.14078982041E+03  0.15094371162E+03  0.00000000000E+00 0.  1.
         11    1    1    2    0    0  0.53308716252E+02  0.41363275559E+02 -0.27252519684E+03  0.28075384718E+03  0.00000000000E+00 0. -1.
</event>
<event>
 7    1  0.2522928E-009  0.7399317E+02  0.7561462E-02  0.1347018E+00
         -1   -1    0    0    0  501 -0.00000000000E+00  0.00000000000E+00  0.35723665936E+03  0.35723665936E+03  0.00000000000E+00 0.  1.
          1   -1    0    0  501    0  0.00000000000E+00 -0.00000000000E+00 -0.39286026846E+02  0.39286026846E+02  0.00000000000E+00 0. -1.
         25    2    1    2    0    0  0.33207421680E+02 -0.91460323530E+01  0.23571634859E+03  0.26906974351E+03  0.12509974867E+03 0.  0.
          5    1    3    3  502    0 -0.37466049431E+01 -0.12200344996E+02 -0.12330530785E+02  0.18231836333E+02  0.41800000000E+01 0. -1.
         -5    1    3    3    0  502  0.36954026623E+02  0.30543126426E+01  0.24804687937E+03  0.25083790717E+03  0.41800000000E+01 0. -1.
        -11    1    1    2    0    0 -0.55415457117E+02 -0.21461471826E+02  0.53472844411E+02  0.79942559064E+02  0.00000000000E+00 0.  1.
         11    1    1    2    0    0  0.22208035437E+02  0.30607504179E+02  0.28761439512E+02  0.47510383632E+02  0.00000000000E+00 0. -1.
</event>
<event>
 7    1  0.2522928E-009  0.1152698E+03  0.7561462E-02  0.1251111E+00
          1   -1    0    0  501    0  0.00000000000E+00  0.00000000000E+00  0.24646510665E+03  0.24646510665E+03  0.00000000000E+00 0. -1.
         -1   -1    0    0    0  501 -0.00000000000E+00 -0.00000000000E+00 -0.56146291928E+02  0.56146291928E+02  0.00000000000E+00 0.  1.
         25    2    1    2    0    0  0.45314389118E+02 -0.40893748775E+01  0.12567214863E+03  0.18305826536E+03  0.12508686074E+03 0.  0.
          5    1    3    3  502    0 -0.38181227930E+02  0.19603921833E+02  0.24139198593E+02  0.49419563193E+02  0.41800000000E+01 0.  1.
         -5    1    3    3    0  502  0.83495617048E+02 -0.23693296711E+02  0.10153295003E+03  0.13363870217E+03  0.41800000000E+01 0.  1.
        -11    1    1    2    0    0 -0.44333137488E+01  0.43508342619E+02  0.29870737266E+02  0.52961222541E+02  0.00000000000E+00 0. -1.
         11    1    1    2    0    0 -0.40881075369E+02 -0.39418967741E+02  0.34775928827E+02  0.66591910672E+02  0.00000000000E+00 0.  1.
</event>
<event>
 7    1  0.2522928E-009  0.1517640E+03  0.7561462E-02  0.1198322E+00
          1   -1    0    0  501    0  0.00000000000E+00  0.00000000000E+00  0.51735320980E+03  0.51735320980E+03  0.00000000000E+00 0.  1.
         -1   -1    0    0    0  501 -0.00000000000E+00 -0.00000000000E+00 -0.59029918355E+02  0.59029918355E+02  0.00000000000E+00 0. -1.
         25    2    1    2    0    0  0.10827625851E+03  0.82173625722E+02  0.26447264961E+03  0.32259816206E+03  0.12509012291E+03 0.  0.
          5    1    3    3  502    0  0.10570060734E+03  0.96243350045E+02  0.27092865797E+03  0.30635797840E+03  0.41800000000E+01 0. -1.
         -5    1    3    3    0  502  0.25756511704E+01 -0.14069724323E+02 -0.64560083556E+01  0.16240183662E+02  0.41800000000E+01 0. -1.
        -11    1    1    2    0    0 -0.91019319010E+02 -0.38822379990E+02  0.69369400514E+02  0.12084621363E+03  0.00000000000E+00 0. -1.
         11    1    1    2    0    0 -0.17256939495E+02 -0.43351245732E+02  0.12448124131E+03  0.13293875246E+03  0.00000000000E+00 0.  1.
</event>
<event>
 7    1  0.2522928E-009  0.8862321E+02  0.7561462E-02  0.1306220E+00
          1   -1    0    0  501    0  0.00000000000E+00  0.00000000000E+00  0.17630950944E+03  0.17630950944E+03  0.00000000000E+00 0. -1.
         -1   -1    0    0    0  501 -0.00000000000E+00 -0.00000000000E+00 -0.87973001613E+02  0.87973001613E+02  0.00000000000E+00 0.  1.
         25    2    1    2    0    0  0.39754120183E+02 -0.37061198796E+02  0.23944765564E+02  0.13846996303E+03  0.12508659535E+03 0.  0.
          5    1    3    3  502    0  0.34532788767E+02  0.19394655000E+02  0.59365947264E+02  0.71487441115E+02  0.41800000000E+01 0. -1.
         -5    1    3    3    0  502  0.52213314162E+01 -0.56455853796E+02 -0.35421181700E+02  0.66982521919E+02  0.41800000000E+01 0. -1.
        -11    1    1    2    0    0  0.13780832581E+02  0.20178862962E+02  0.65246623241E+02  0.69672230490E+02  0.00000000000E+00 0. -1.
         11    1    1    2    0    0 -0.53534952764E+02  0.16882335834E+02 -0.85488097888E+00  0.56140317528E+02  0.00000000000E+00 0.  1.
</event>
<event>
 7    1  0.2522928E-009  0.1345924E+03  0.7561462E-02  0.1220796E+00
          2   -1    0    0  501    0  0.00000000000E+00  0.00000000000E+00  0.12807291818E+04  0.12807291818E+04  0.00000000000E+00 0. -1.
         -2   -1    0    0    0  501 -0.00000000000E+00 -0.00000000000E+00 -0.14901068521E+02  0.14901068521E+02  0.00000000000E+00 0.  1.
         25    2    1    2    0    0 -0.17703639172E+02 -0.81482552400E+02  0.81830129860E+03  0.83199583524E+03  0.12508888590E+03 0.  0.
          5    1    3    3  502    0  0.52336675706E+02 -0.23698634263E+02  0.25649092331E+03  0.26287985664E+03  0.41800000000E+01 0.  1.
         -5    1    3    3    0  502 -0.70040314878E+02 -0.57783918137E+02  0.56181037530E+03  0.56911597860E+03  0.41800000000E+01 0.  1.
        -11    1    1    2    0    0  0.50259719279E+02  0.26580455952E+02  0.19072867581E+03  0.19902258112E+03  0.00000000000E+00 0.  1.
         11    1    1    2    0    0 -0.32556080107E+02  0.54902096449E+02  0.25679813891E+03  0.26461183401E+03  0.00000000000E+00 0. -1.
</event>
<event>
 7    1  0.2522928E-009  0.2752995E+03  0.7561462E-02  0.1098284E+00
          2   -1    0    0  501    0  0.00000000000E+00  0.00000000000E+00  0.24930538804E+04  0.24930538804E+04  0.00000000000E+00 0. -1.
         -2   -1    0    0    0  501 -0.00000000000E+00 -0.00000000000E+00 -0.31481464376E+02  0.31481464376E+02  0.00000000000E+00 0.  1.
         25    2    1    2    0    0  0.20824287041E+03 -0.15162215087E+03  0.12357214799E+04  0.12684671461E+04  0.12508779042E+03 0.  0.
          5    1    3    3  502    0  0.19696026182E+03 -0.16804586872E+03  0.11973440335E+04  0.12250236592E+04  0.41800000000E+01 0.  1.
         -5    1    3    3    0  502  0.11282608597E+02  0.16423717845E+02  0.38377446369E+02  0.43443486904E+02  0.41800000000E+01 0.  1.
        -11    1    1    2    0    0 -0.53689498806E+02 -0.15363109421E+01  0.31816807866E+03  0.32266987590E+03  0.00000000000E+00 0.  1.
         11    1    1    2    0    0 -0.15455337161E+03  0.15315846182E+03  0.90768285750E+03  0.93339832274E+03  0.00000000000E+00 0. -1.
</event>
<event>
 7    1  0.2522928E-009  0.9758367E+02  0.7561462E-02  0.1285461E+00
          3   -1    0    0  501    0  0.00000000000E+00  0.00000000000E+00  0.84317786829E+03  0.84317786829E+03  0.00000000000E+00 0. -1.
         -3   -1    0    0    0  501 -0.00000000000E+00 -0.00000000000E+00 -0.21406042866E+02  0.21406042866E+02  0.00000000000E+00 0.  1.
         25    2    1    2    0    0 -0.98221626900E+00 -0.32428624706E+02  0.68248573186E+03  0.69461309459E+03  0.12509195230E+03 0.  0.
          5    1    3    3  502    0 -0.20264961363E+02  0.39452656106E+02  0.39944807216E+03  0.40192463906E+03  0.41800000000E+01 0. -1.
         -5    1    3    3    0  502  0.19282745094E+02 -0.71881280812E+02  0.28303765970E+03  0.29268845553E+03  0.41800000000E+01 0. -1.
        -11    1    1    2    0    0  0.33767010168E+02  0.67531812444E+01  0.12686245738E+02  0.36698191557E+02  0.00000000000E+00 0.  1.
         11    1    1    2    0    0 -0.32784793899E+02  0.25675443462E+02  0.12659984782E+03  0.13327262501E+03  0.00000000000E+00 0. -1.
</event>
<event>
 7    1  0.2522928E-009  0.9075319E+02  0.7561462E-02  0.1301038E+00
          1   -1    0    0  501    0  0.00000000000E+00  0.00000000000E+00  0.22124054438E+03  0.22124054438E+03  0.00000000000E+00 0. -1.
         -1   -1    0    0    0  501 -0.00000000000E+00 -0.00000000000E+00 -0.62986560925E+02  0.62986560925E+02  0.00000000000E+00 0.  1.
         25    2    1    2    0    0  0.42639717996E+02 -0.72776952106E+00  0.12499493079E+03  0.18190915254E+03  0.12509409201E+03 0.  0.
          5    1    3    3  502    0  0.69696780882E+02 -0.29570122820E+01  0.19012177452E+02  0.72424584766E+02  0.41800000000E+01 0. -1.
         -5    1    3    3    0  502 -0.27057062887E+02  0.22292427610E+01  0.10598275334E+03  0.10948456778E+03  0.41800000000E+01 0. -1.
        -11    1    1    2    0    0 -0.33433886551E+02 -0.34321886932E+02  0.43441657369E+02  0.64676071986E+02  0.00000000000E+00 0. -1.
         11    1    1    2    0    0 -0.92058314445E+01  0.35049656453E+02 -0.10182604705E+02  0.37641880780E+02  0.00000000000E+00 0.  1.
</event>
<event>
 7    1  0.2522928E-009  0.2271751E+03  0.7561462E-02  0.1128644E+00
         -1   -1    0    0    0  501 -0.00000000000E+00  0.00000000000E+00  0.65556489806E+02  0.65556489806E+02  0.00000000000E+00 0.  1.
          1   -1    0    0  501    0  0.00000000000E+00 -0.00000000000E+00 -0.94294636284E+03  0.94294636284E+03  0.00000000000E+00 0. -1.
         25    2    1    2    0    0 -0.17919982898E+03  0.98973177768E+02 -0.62647329419E+03  0.67084142821E+03  0.12510461560E+03 0.  0.
          5    1    3    3  502    0 -0.14129638300E+02 -0.20230583634E+02 -0.15865340812E+03  0.16061537754E+03  0.41800000000E+01 0. -1.
         -5    1    3    3    0  502 -0.16507019068E+03  0.11920376140E+03 -0.46781988607E+03  0.51022605068E+03  0.41800000000E+01 0. -1.
        -11    1    1    2    0    0  0.71669072882E+02  0.10245977885E+02 -0.88572886859E+02  0.11439664487E+03  0.00000000000E+00 0. -1.
         11    1    1    2    0    0  0.10753075610E+03 -0.10921915565E+03 -0.16234369198E+03  0.22326477957E+03  0.00000000000E+00 0.  1.
</event>
<event>
 7    1  0.2522928E-009  0.1165255E+03  0.7561462E-02  0.1248941E+00
         -2   -1    0    0    0  501 -0.00000000000E+00  0.00000000000E+00  0.17960019160E+02  0.17960019160E+02  0.00000000000E+00 0. -1.
          2   -1    0    0  501    0  0.00000000000E+00 -0.00000000000E+00 -0.85591298432E+03  0.85591298432E+03  0.00000000000E+00 0.  1.
         25    2    1    2    0    0  0.45965116319E+02  0.51372573328E+01 -0.61816522802E+03  0.63238790405E+03  0.12508808385E+03 0.  0.
          5    1    3    3  502    0  0.53505010096E+02 -0.52463979895E+02 -0.33780878427E+03  0.34604552073E+03  0.41800000000E+01 0.  1.
         -5    1    3    3    0  502 -0.75398937769E+01  0.57601237228E+02 -0.28035644376E+03  0.28634238332E+03  0.41800000000E+01 0.  1.
        -11    1    1    2    0    0  0.14560212441E+02  0.27408563459E+02 -0.60175012638E+02  0.67707173056E+02  0.00000000000E+00 0.  1.
         11    1    1    2    0    0 -0.60525328759E+02 -0.32545820791E+02 -0.15961272450E+03  0.17377792637E+03  0.00000000000E+00 0. -1.
</event>
<event>
 7    1  0.2522928E-009  0.1248158E+03  0.7561462E-02  0.1235357E+00
         -1   -1    0    0    0  501 -0.00000000000E+00  0.00000000000E+00  0.10980878994E+03  0.10980878994E+03  0.00000000000E+00 0.  1.
          1   -1    0    0  501    0  0.00000000000E+00 -0.00000000000E+00 -0.15432694020E+03  0.15432694020E+03  0.00000000000E+00 0. -1.
         25    2    1    2    0    0 -0.38809829503E+02 -0.48898241187E+02 -0.58730244231E+02  0.15164725049E+03  0.12510158327E+03 0.  0.
          5    1    3    3  502    0 -0.71488482992E+02 -0.70437334979E+02 -0.42787653906E+02  0.10918002146E+03  0.41800000000E+01 0.  1.
         -5    1    3    3    0  502  0.32678653489E+02  0.21539093792E+02 -0.15942590325E+02  0.42467229030E+02  0.41800000000E+01 0.  1.
        -11    1    1    2    0    0  0.45415558205E+02 -0.13263123967E+02 -0.37123997099E+01  0.47458037213E+02  0.00000000000E+00 0. -1.
         11    1    1    2    0    0 -0.66057287020E+01  0.62161365154E+02  0.17924493685E+02  0.65030442435E+02  0.00000000000E+00 0.  1.
</event>
<event>
 7    1  0.2522928E-009  0.1143216E+03  0.7561462E-02  0.1252770E+00
         -2   -1    0    0    0  501 -0.00000000000E+00  0.00000000000E+00  0.16908064669E+03  0.16908064669E+03  0.00000000000E+00 0. -1.
          2   -1    0    0  501    0  0.00000000000E+00 -0.00000000000E+00 -0.16863288533E+03  0.16863288533E+03  0.00000000000E+00 0.  1.
         25    2    1    2    0    0  0.81152611930E+02 -0.36858188424E+02 -0.92128179936E+02  0.17910549591E+03  0.12508758791E+03 0.  0.
          5    1    3    3  502    0  0.88784671933E+02 -0.50606156886E+02 -0.18799267451E+02  0.10399320142E+03  0.41800000000E+01 0. -1.
         -5    1    3    3    0  502 -0.76320600034E+01  0.13747968462E+02 -0.73328912485E+02  0.75112294486E+02  0.41800000000E+01 0. -1.
        -11    1    1    2    0    0 -0.91332104399E+02  0.39604538595E+02  0.43892990973E+02  0.10879644952E+03  0.00000000000E+00 0.  1.
         11    1    1    2    0    0  0.10179492469E+02 -0.27463501715E+01  0.48682950328E+02  0.49811586592E+02  0.00000000000E+00 0. -1.
</event>
<event>
 7    1  0.2522928E-009  0.5547653E+03  0.7561462E-02  0.1000397E+00
          1   -1    0    0  501    0  0.00000000000E+00  0.00000000000E+00  0.64580740181E+03  0.64580740181E+03  0.00000000000E+00 0. -1.
         -1   -1    0    0    0  501 -0.00000000000E+00 -0.00000000000E+00 -0.12466537112E+04  0.12466537112E+04  0.00000000000E+00 0.  1.
         25    2    1    2    0    0  0.43829864801E+03  0.33170281069E+03  0.43049228862E+03  0.70929793570E+03  0.12508993385E+03 0.  0.
          5    1    3    3  502    0  0.41032873073E+03  0.28778629126E+03  0.34278538216E+03  0.60721487739E+03  0.41800000000E+01 0.  1.
         -5    1    3    3    0  502  0.27969917276E+02  0.43916519436E+02  0.87706906466E+02  0.10208305831E+03  0.41800000000E+01 0.  1.
        -11    1    1    2    0    0 -0.13147591745E+03 -0.53585189815E+02 -0.13558458305E+03  0.19631726515E+03  0.00000000000E+00 0. -1.
         11    1    1    2    0    0 -0.30682273056E+03 -0.27811762088E+03 -0.89575401494E+03  0.98684591214E+03  0.00000000000E+00 0.  1.
</event>
<event>
 7    1  0.2522928E-009  0.8986991E+02  0.7561462E-02  0.1303167E+00
         -2   -1    0    0    0  501 -0.00000000000E+00  0.00000000000E+00  0.37029290837E+02  0.37029290837E+02  0.00000000000E+00 0.  1.
          2   -1    0    0  501    0  0.00000000000E+00 -0.00000000000E+00 -0.31355928812E+03  0.31355928812E+03  0.00000000000E+00 0. -1.
         25    2    1    2    0    0 -0.18418142848E+02 -0.11450900050E+02 -0.99649013875E+02  0.16141560628E+03  0.12511882707E+03 0.  0.
          5    1    3    3  502    0 -0.57639126380E+02  0.22142466755E+02 -0.17535870702E+02  0.64323688367E+02  0.41800000000E+01 0. -1.
         -5    1    3    3    0  502  0.39220983531E+02 -0.33593366804E+02 -0.82113143172E+02  0.97091917913E+02  0.41800000000E+01 0. -1.
        -11    1    1    2    0    0 -0.23082673271E+02  0.36046083785E+00 -0.46829459489E+02  0.52210516310E+02  0.00000000000E+00 0.  1.
         11    1    1    2    0    0  0.41500816119E+02  0.11090439212E+02 -0.13005152392E+03  0.13696245637E+03  0.00000000000E+00 0. -1.
</event>
<event>
 7    1  0.2522928E-009  0.1650185E+03  0.7561462E-02  0.1183145E+00
          2   -1    0    0  501    0  0.00000000000E+00  0.00000000000E+00  0.13488412295E+03  0.13488412295E+03  0.00000000000E+00 0.  1.
         -2   -1    0    0    0  501 -0.00000000000E+00 -0.00000000000E+00 -0.27131217059E+03  0.27131217059E+03  0.00000000000E+00 0. -1.
         25    2    1    2    0    0 -0.96044570396E+02  0.11360006559E+03 -0.15007592246E+02  0.19494225887E+03  0.12509085523E+03 0.  0.
          5    1    3    3  502    0  0.13856642943E+02  0.51055456401E+02  0.29628696989E+02  0.60778271341E+02  0.41800000000E+01 0. -1.
         -5    1    3    3    0  502 -0.10990121334E+03  0.62544609187E+02 -0.44636289235E+02  0.13416398752E+03  0.41800000000E+01 0. -1.
        -11    1    1    2    0    0  0.77672350319E+02 -0.10374690067E+03 -0.53505699473E+02  0.14021153048E+03  0.00000000000E+00 0.  1.
         11    1    1    2    0    0  0.18372220077E+02 -0.98531649166E+01 -0.67914755928E+02  0.71042504194E+02  0.00000000000E+00 0. -1.
</event>
<event>
 7    1  0.2522928E-009  0.1094298E+03  0.7561462E-02  0.1261629E+00
          1   -1    0    0  501    0  0.00000000000E+00  0.00000000000E+00  0.12130527173E+03  0.12130527173E+03  0.00000000000E+00 0. -1.
         -1   -1    0    0    0  501 -0.00000000000E+00 -0.00000000000E+00 -0.15484568893E+03  0.15484568893E+03  0.00000000000E+00 0.  1.
         25    2    1    2    0    0 -0.78027217803E+02 -0.25989625146E+02 -0.20231910466E+01  0.14972323833E+03  0.12509695224E+03 0.  0.
          5    1    3    3  502    0 -0.67397877116E+02  0.21723272988E+02  0.43153537618E+02  0.83030564480E+02  0.41800000000E+01 0. -1.
         -5    1    3    3    0  502 -0.10629340687E+02 -0.47712898134E+02 -0.45176728664E+02  0.66692673845E+02  0.41800000000E+01 0. -1.
        -11    1    1    2    0    0  0.77743751709E+02  0.50349494136E+01 -0.54688398083E+02  0.95185411331E+02  0.00000000000E+00 0.  1.
         11    1    1    2    0    0  0.28346609401E+00  0.20954675732E+02  0.23171171928E+02  0.31242310999E+02  0.00000000000E+00 0. -1.
</event>
<event>
 7    1  0.2522928E-009  0.1177573E+03  0.7561462E-02  0.1246843E+00
          2   -1    0    0  501    0  0.00000000000E+00  0.00000000000E+00  0.64744779600E+03  0.64744779600E+03  0.00000000000E+00 0. -1.
         -2   -1    0    0    0  501 -0.00000000000E+00 -0.00000000000E+00 -0.24375058269E+02  0.24375058269E+02  0.00000000000E+00 0.  1.
         25    2    1    2    0    0 -0.46598161024E+01 -0.48500845887E+02  0.24004582177E+03  0.27503451894E+03  0.12509174281E+03 0.  0.
          5    1    3    3  502    0 -0.22829912930E+02 -0.86742244101E+02  0.14004162287E+03  0.16635669620E+03  0.41800000000E+01 0. -1.
         -5    1    3    3    0  502  0.18170096828E+02  0.38241398214E+02  0.10000419891E+03  0.10867782274E+03  0.41800000000E+01 0. -1.
        -11    1    1    2    0    0 -0.24762402512E+02  0.64920470833E+02  0.27407647696E+03  0.28274681136E+03  0.00000000000E+00 0.  1.
         11    1    1    2    0    0  0.29422218615E+02 -0.16419624946E+02  0.10895043900E+03  0.11404152397E+03  0.00000000000E+00 0. -1.
</event>
<event>
 7    1  0.2522928E-009  0.1135107E+03  0.7561462E-02  0.1254203E+00
          1   -1    0    0  501    0  0.00000000000E+00  0.00000000000E+00  0.13693905386E+03  0.13693905386E+03  0.00000000000E+00 0. -1.
         -1   -1    0    0    0  501 -0.00000000000E+00 -0.00000000000E+00 -0.13217145242E+03  0.13217145242E+03  0.00000000000E+00 0.  1.
         25    2    1    2    0    0  0.58491451408E+02 -0.54536691649E+02 -0.51880148081E+01  0.14855826507E+03  0.12508853664E+03 0.  0.
          5    1    3    3  502    0  0.72632733844E+02 -0.59039388727E+02 -0.46401655459E+02  0.10455500694E+03  0.41800000000E+01 0. -1.
         -5    1    3    3    0  502 -0.14141282436E+02  0.45026970782E+01  0.41213640651E+02  0.44003258125E+02  0.41800000000E+01 0. -1.
        -11    1    1    2    0    0 -0.70569537301E+02  0.94106559079E+01  0.17294792336E+02  0.73264792919E+02  0.00000000000E+00 0.  1.
         11    1    1    2    0    0  0.12078085893E+02  0.45126035741E+02 -0.73391760831E+01  0.47287448293E+02  0.00000000000E+00 0. -1.
</event>
<event>
 7    1  0.2522928E-009  0.1395702E+03  0.7561462E-02  0.1213909E+00
          2   -1    0    0  501    0  0.00000000000E+00  0.00000000000E+00  0.92168338053E+02  0.92168338053E+02  0.00000000000E+00 0. -1.
         -2   -1    0    0    0  501 -0.00000000000E+00 -0.00000000000E+00 -0.24987687844E+03  0.24987687844E+03  0.00000000000E+00 0.  1.
         25    2    1    2    0    0  0.20513475492E+02 -0.85769341249E+02 -0.14986525777E+03  0.21420449706E+03  0.12508712364E+03 0.  0.
          5    1    3    3  502    0 -0.83725559545E+00 -0.11514612091E+03 -0.10132765996E+03  0.15344085907E+03  0.41800000000E+01 0.  1.
         -5    1    3    3    0  502  0.21350731087E+02  0.29376779663E+02 -0.48537597804E+02  0.60763637991E+02  0.41800000000E+01 0.  1.
        -11    1    1    2    0    0 -0.57311214585E+02  0.50406127246E+02 -0.85403370872E+00  0.76328778024E+02  0.00000000000E+00 0.  1.
         11    1    1    2    0    0  0.36797739093E+02  0.35363214003E+02 -0.69892489074E+01  0.51511941405E+02  0.00000000000E+00 0. -1.
</event>
<event>
 7    1  0.2522928E-009  0.1560969E+03  0.7561462E-02  0.1193175E+00
          1   -1    0    0  501    0  0.00000000000E+00  0.00000000000E+00  0.18579103854E+03  0.18579103854E+03  0.00000000000E+00 0. -1.
         -1   -1    0    0    0  501 -0.00000000000E+00 -0.00000000000E+00 -0.14777219421E+03  0.14777219421E+03  0.00000000000E+00 0.  1.
         25    2    1    2    0    0  0.10547776677E+03 -0.17173800816E+02  0.56915778721E+02  0.17409272974E+03  0.12509346091E+03 0.  0.
          5    1    3    3  502    0  0.48119968404E+02 -0.66978451092E+02  0.65158663508E+01  0.82834613443E+02  0.41800000000E+01 0.  1.
         -5    1    3    3    0  502  0.57357798364E+02  0.49804650277E+02  0.50399912370E+02  0.91258116292E+02  0.41800000000E+01 0.  1.
        -11    1    1    2    0    0  0.23356050881E+02  0.66002400773E+01 -0.17971766575E+02  0.30200209861E+02  0.00000000000E+00 0.  1.
         11    1    1    2    0    0 -0.12883381765E+03  0.10573560738E+02 -0.92516782057E+00  0.12927029315E+03  0.00000000000E+00 0. -1.
</event>
<event>
 7    1  0.2522928E-009  0.1472953E+03  0.7561462E-02  0.1203836E+00
         -1   -1    0    0    0  501 -0.00000000000E+00  0.00000000000E+00  0.55574328358E+03  0.55574328358E+03  0.00000000000E+00 0.  1.
          1   -1    0    0  501    0  0.00000000000E+00 -0.00000000000E+00 -0.62564619406E+02  0.62564619406E+02  0.00000000000E+00 0. -1.
         25    2    1    2    0    0  0.33314603691E+02 -0.10551928410E+03  0.24461335538E+03  0.29618050264E+03  0.12507203676E+03 0.  0.
          5    1    3    3  502    0  0.57713954318E+02 -0.37473518081E+02  0.19899855527E+03  0.21060166780E+03  0.41800000000E+01 0. -1.
         -5    1    3    3    0  502 -0.24399350627E+02 -0.68045766015E+02  0.45614800111E+02  0.85578834841E+02  0.41800000000E+01 0. -1.
        -11    1    1    2    0    0  0.28155096125E+02  0.83218812432E+02  0.24074232559E+03  0.25627123816E+03  0.00000000000E+00 0.  1.
         11    1    1    2    0    0 -0.61469699817E+02  0.22300471664E+02  0.78229832139E+01  0.65856162190E+02  0.00000000000E+00 0. -1.
</event>
<event>
 7    1  0.2522928E-009  0.1537413E+03  0.7561462E-02  0.1195950E+00
          1   -1    0    0  501    0  0.00000000000E+00  0.00000000000E+00  0.49726164150E+02  0.49726164150E+02  0.00000000000E+00 0. -1.
         -1   -1    0    0    0  501 -0.00000000000E+00 -0.00000000000E+00 -0.49176504556E+03  0.49176504556E+03  0.00000000000E+00 0.  1.
         25    2    1    2    0    0 -0.54990788791E+02  0.96637853153E+02 -0.27000779378E+03  0.31767038180E+03  0.12508957293E+03 0.  0.
          5    1    3    3  502    0 -0.87959755212E+02  0.32052815163E+02 -0.16925449182E+03  0.19346538941E+03  0.41800000000E+01 0.  1.
         -5    1    3    3    0  502  0.32968966421E+02  0.64585037991E+02 -0.10075330196E+03  0.12420499239E+03  0.41800000000E+01 0.  1.
        -11    1    1    2    0    0  0.78595273813E+02 -0.67216664558E+02 -0.10817792876E+03  0.14965881641E+03  0.00000000000E+00 0. -1.
         11    1    1    2    0    0 -0.23604485022E+02 -0.29421188596E+02 -0.63853158875E+02  0.74162011501E+02  0.00000000000E+00 0.  1.
</event>
<event>
 7    1  0.2818644E-009  0.1108337E+03  0.7561462E-02  0.1259034E+00
          1   -1    0    0  501    0  0.00000000000E+00  0.00000000000E+00  0.91352063991E+03  0.91352063991E+03  0.00000000000E+00 0. -1.
         -1   -1    0    0    0  501 -0.00000000000E+00 -0.00000000000E+00 -0.26692671842E+02  0.26692671842E+02  0.00000000000E+00 0.  1.
         25    2    1    2    0    0 -0.75508193231E+02  0.65368469820E+02  0.62990942713E+03  0.64993020111E+03  0.12509538691E+03 0.  0.
          5    1    3    3  502    0 -0.36864099695E+01 -0.10518714584E+02  0.52234227455E+00  0.11915461234E+02  0.41800000000E+01 0. -1.
         -5    1    3    3    0  502 -0.71821783262E+02  0.75887184404E+02  0.62938708486E+03  0.63801473987E+03  0.41800000000E+01 0. -1.
        -11    1    1    2    0    0  0.57954791364E+02 -0.65737862555E+02  0.25821157273E+03  0.27267827326E+03  0.00000000000E+00 0.  1.
         11    1    1    2    0    0  0.17553401867E+02  0.36939273464E+00 -0.12930317975E+01  0.17604837384E+02  0.00000000000E+00 0. -1.
</event>
<event>
 7    1  0.2522928E-009  0.1287985E+03  0.7561462E-02  0.1229250E+00
         -3   -1    0    0    0  501 -0.00000000000E+00  0.00000000000E+00  0.99729587152E+03  0.99729587152E+03  0.00000000000E+00 0.  1.
          3   -1    0    0  501    0  0.00000000000E+00 -0.00000000000E+00 -0.19375476523E+02  0.19375476523E+02  0.00000000000E+00 0. -1.
         25    2    1    2    0    0 -0.66591760585E+02 -0.36362393042E+02  0.38345520073E+03  0.41041756435E+03  0.12509196597E+03 0.  0.
          5    1    3    3  502    0 -0.47194951151E+02  0.38726933531E+02  0.23544825201E+03  0.24327040627E+03  0.41800000000E+01 0.  1.
         -5    1    3    3    0  502 -0.19396809435E+02 -0.75089326573E+02  0.14800694872E+03  0.16714715807E+03  0.41800000000E+01 0.  1.
        -11    1    1    2    0    0  0.69561840463E+02 -0.11737795906E+02  0.33418882642E+03  0.34155350563E+03  0.00000000000E+00 0.  1.
         11    1    1    2    0    0 -0.29700798771E+01  0.48100188948E+02  0.26027636785E+03  0.26470027807E+03  0.00000000000E+00 0. -1.
</event>
<event>
 7    1  0.2522928E-009  0.1503858E+03  0.7561462E-02  0.1200000E+00
          1   -1    0    0  501    0  0.00000000000E+00  0.00000000000E+00  0.78418016476E+02  0.78418016476E+02  0.00000000000E+00 0. -1.
         -1   -1    0    0    0  501 -0.00000000000E+00 -0.00000000000E+00 -0.40587055816E+03  0.40587055816E+03  0.00000000000E+00 0.  1.
         25    2    1    2    0    0 -0.66477864832E+02  0.82673518039E+02 -0.46577281701E+02  0.17050535808E+03  0.12509363239E+03 0.  0.
          5    1    3    3  502    0 -0.78594732109E+02  0.10819055556E+03 -0.47398737712E+02  0.14193815894E+03  0.41800000000E+01 0.  1.
         -5    1    3    3    0  502  0.12116867277E+02 -0.25517037520E+02  0.82145601142E+00  0.28567199135E+02  0.41800000000E+01 0.  1.
        -11    1    1    2    0    0  0.11381442465E+02 -0.82548607792E+02 -0.19065126511E+03  0.20806661138E+03  0.00000000000E+00 0. -1.
         11    1    1    2    0    0  0.55096422367E+02 -0.12491024769E+00 -0.90223994865E+02  0.10571660517E+03  0.00000000000E+00 0.  1.
</event>
<event>
 7    1  0.2662357E-009  0.1109816E+03  0.7561462E-02  0.1258763E+00
          1   -1    0    0  501    0  0.00000000000E+00  0.00000000000E+00  0.67265562156E+03  0.67265562156E+03  0.00000000000E+00 0. -1.
         -1   -1    0    0    0  501 -0.00000000000E+00 -0.00000000000E+00 -0.35223259568E+02  0.35223259568E+02  0.00000000000E+00 0.  1.
         25    2    1    2    0    0  0.10853752167E+03 -0.13031590623E+01  0.35119420485E+03  0.38828679374E+03  0.12508865994E+03 0.  0.
          5    1    3    3  502    0  0.57109694922E+02  0.87744827801E+01  0.32392223498E+03  0.32906168953E+03  0.41800000000E+01 0. -1.
         -5    1    3    3    0  502  0.51427826744E+02 -0.10077641842E+02  0.27271969862E+02  0.59225104211E+02  0.41800000000E+01 0. -1.
        -11    1    1    2    0    0 -0.33243650573E+02  0.12138486391E+02  0.20603335698E+03  0.20905077695E+03  0.00000000000E+00 0.  1.
         11    1    1    2    0    0 -0.75293871092E+02 -0.10835327328E+02  0.80204800169E+02  0.11054131043E+03  0.00000000000E+00 0. -1.
</event>
<event>
 7    1  0.2522928E-009  0.2074375E+03  0.7561462E-02  0.1143611E+00
         -2   -1    0    0    0  501 -0.00000000000E+00  0.00000000000E+00  0.15577203422E+03  0.15577203422E+03  0.00000000000E+00 0.  1.
          2   -1    0    0  501    0  0.00000000000E+00 -0.00000000000E+00 -0.36599545994E+03  0.36599545994E+03  0.00000000000E+00 0. -1.
         25    2    1    2    0    0 -0.30518883041E+02  0.20005301073E+03 -0.37170644205E+02  0.24079384005E+03  0.12508959705E+03 0.  0.
          5    1    3    3  502    0 -0.28475468510E+02  0.39356596531E+02  0.39437369931E+02  0.62710226794E+02  0.41800000000E+01 0. -1.
         -5    1    3    3    0  502 -0.20434145310E+01  0.16069641420E+03 -0.76608014136E+02  0.17808361326E+03  0.41800000000E+01 0. -1.
        -11    1    1    2    0    0  0.19548812419E+02 -0.36258778904E+02 -0.85542923837E+02  0.94944441297E+02  0.00000000000E+00 0. -1.
         11    1    1    2    0    0  0.10970070622E+02 -0.16379423183E+03 -0.87509857680E+02  0.18602921282E+03  0.00000000000E+00 0.  1.
</event>
<event>
 7    1  0.2522928E-009  0.1136024E+03  0.7561462E-02  0.1254041E+00
          1   -1    0    0  501    0  0.00000000000E+00  0.00000000000E+00  0.30254066200E+03  0.30254066200E+03  0.00000000000E+00 0. -1.
         -1   -1    0    0    0  501 -0.00000000000E+00 -0.00000000000E+00 -0.44359852120E+02  0.44359852120E+02  0.00000000000E+00 0.  1.
         25    2    1    2    0    0  0.20145617262E+02  0.31318756340E+02  0.12435398859E+03  0.18027204776E+03  0.12508951328E+03 0.  0.
          5    1    3    3  502    0 -0.46779895032E+02  0.40961345765E+02  0.67072918950E+02  0.91555662209E+02  0.41800000000E+01 0.  1.
         -5    1    3    3    0  502  0.66925512293E+02 -0.96425894250E+01  0.57281069642E+02  0.88716385554E+02  0.41800000000E+01 0.  1.
        -11    1    1    2    0    0 -0.38742272864E+02  0.19249322205E+02  0.42825212929E+02  0.60872809812E+02  0.00000000000E+00 0.  1.
         11    1    1    2    0    0  0.18596655602E+02 -0.50568078545E+02  0.91001608362E+02  0.10575565655E+03  0.00000000000E+00 0. -1.
</event>
<event>
 7    1  0.2522928E-009  0.9085274E+02  0.7561462E-02  0.1300800E+00
         -2   -1    0    0    0  501 -0.00000000000E+00  0.00000000000E+00  0.40928515608E+03  0.40928515608E+03  0.00000000000E+00 0.  1.
          2   -1    0    0  501    0  0.00000000000E+00 -0.00000000000E+00 -0.34404427963E+02  0.34404427963E+02  0.00000000000E+00 0. -1.
         25    2    1    2    0    0  0.28014420345E+01 -0.27063213662E+02  0.29242166319E+03  0.31921238620E+03  0.12508338335E+03 0.  0.
          5    1    3    3  502    0 -0.14104845955E+02  0.33081324754E+02  0.22219346976E+03  0.22512381289E+03  0.41800000000E+01 0.  1.
         -5    1    3    3    0  502  0.16906287990E+02 -0.60144538417E+02  0.70228193426E+02  0.94088573307E+02  0.41800000000E+01 0.  1.
        -11    1    1    2    0    0  0.31805238024E+02 -0.88481831974E+01  0.62648001178E+02  0.70814091558E+02  0.00000000000E+00 0.  1.
         11    1    1    2    0    0 -0.34606680058E+02  0.35911396860E+02  0.19811063751E+02  0.53663106284E+02  0.00000000000E+00 0. -1.
</event>
<event>
 7    1  0.2522928E-009  0.9875158E+02  0.7561462E-02  0.1282943E+00
          1   -1    0    0  501    0  0.00000000000E+00  0.00000000000E+00  0.67305071901E+02  0.67305071901E+02  0.00000000000E+00 0. -1.
         -1   -1    0    0    0  501 -0.00000000000E+00 -0.00000000000E+00 -0.21710633322E+03  0.21710633322E+03  0.00000000000E+00 0.  1.
         25    2    1    2    0    0 -0.62002445769E+01  0.36377478728E+02 -0.12948671193E+03  0.18378292067E+03  0.12509032486E+03 0.  0.
          5    1    3    3  502    0 -0.15220013255E+02  0.82002318572E+02 -0.88071470647E+02  0.12136756320E+03  0.41800000000E+01 0. -1.
         -5    1    3    3    0  502  0.90197686782E+01 -0.45624839845E+02 -0.41415241283E+02  0.62415357473E+02  0.41800000000E+01 0. -1.
        -11    1    1    2    0    0 -0.21918804881E+02 -0.77466050286E+00 -0.44210771823E+02  0.49352066335E+02  0.00000000000E+00 0.  1.
         11    1    1    2    0    0  0.28119049458E+02 -0.35602818225E+02  0.23896222436E+02  0.51276418115E+02  0.00000000000E+00 0. -1.
</event>
<event>
 7    1  0.2522928E-009  0.9092469E+02  0.7561462E-02  0.1300628E+00
          2   -1    0    0  501    0  0.00000000000E+00  0.00000000000E+00  0.29183686328E+03  0.29183686328E+03  0.00000000000E+00 0.  1.
         -2   -1    0    0    0  501 -0.00000000000E+00 -0.00000000000E+00 -0.84123535680E+02  0.84123535680E+02  0.00000000000E+00 0. -1.
         25    2    1    2    0    0  0.44417343604E+02 -0.13739716424E+02 -0.11312387514E+02  0.13392859533E+03  0.12508884169E+03 0.  0.
          5    1    3    3  502    0  0.60880162989E+02 -0.29074068725E+02  0.39436890988E+02  0.78258778988E+02  0.41800000000E+01 0. -1.
         -5    1    3    3    0  502 -0.16462819384E+02  0.15334352301E+02 -0.50749278503E+02  0.55669816338E+02  0.41800000000E+01 0. -1.
        -11    1    1    2    0    0  0.28673847547E+01  0.38080743528E+02  0.15061536550E+03  0.15538131563E+03  0.00000000000E+00 0.  1.
         11    1    1    2    0    0 -0.47284728359E+02 -0.24341027104E+02  0.68410349615E+02  0.86650488001E+02  0.00000000000E+00 0. -1.
</event>
<event>
 7    1  0.2522928E-009  0.7851058E+02  0.7561462E-02  0.1333332E+00
          2   -1    0    0  501    0  0.00000000000E+00  0.00000000000E+00  0.34236119433E+02  0.34236119433E+02  0.00000000000E+00 0.  1.
         -2   -1    0    0    0  501 -0.00000000000E+00 -0.00000000000E+00 -0.36162150416E+03  0.36162150416E+03  0.00000000000E+00 0. -1.
         25    2    1    2    0    0 -0.72666493469E+01  0.35592652758E+02 -0.16555691062E+03  0.21065583748E+03  0.12508856898E+03 0.  0.
          5    1    3    3  502    0 -0.17066550418E+02 -0.28811552910E+02 -0.11536625984E+01  0.33766493179E+02  0.41800000000E+01 0. -1.
         -5    1    3    3    0  502  0.97999010709E+01  0.64404205667E+02 -0.16440324802E+03  0.17688934430E+03  0.41800000000E+01 0. -1.
        -11    1    1    2    0    0  0.26507187133E+02 -0.21823556001E+02 -0.15743743060E+03  0.16113796300E+03  0.00000000000E+00 0. -1.
         11    1    1    2    0    0 -0.19240537786E+02 -0.13769096757E+02 -0.43910435151E+01  0.24063823115E+02  0.00000000000E+00 0.  1.
</event>
<event>
 7    1  0.2522928E-009  0.1654855E+03  0.7561462E-02  0.1182639E+00
         -3   -1    0    0    0  501 -0.00000000000E+00  0.00000000000E+00  0.36969100931E+03  0.36969100931E+03  0.00000000000E+00 0.  1.
          3   -1    0    0  501    0  0.00000000000E+00 -0.00000000000E+00 -0.96397777821E+02  0.96397777821E+02  0.00000000000E+00 0. -1.
         25    2    1    2    0    0  0.65263986626E+02  0.11948913156E+03  0.54835501737E+02  0.19285324407E+03  0.12509356892E+03 0.  0.
          5    1    3    3  502    0  0.23924794183E+02  0.13133239294E+03  0.15556260331E+02  0.13446212422E+03  0.41800000000E+01 0.  1.
         -5    1    3    3    0  502  0.41339192443E+02 -0.11843261382E+02  0.39279241406E+02  0.58391119851E+02  0.41800000000E+01 0.  1.
        -11    1    1    2    0    0 -0.28971602229E+02 -0.11385074757E+03  0.20042962250E+03  0.23232171667E+03  0.00000000000E+00 0.  1.
         11    1    1    2    0    0 -0.36292384397E+02 -0.56383839891E+01  0.18028107246E+02  0.40913826393E+02  0.00000000000E+00 0. -1.
</event>
<event>
 7    1  0.2522928E-009  0.3318723E+03  0.7561462E-02  0.1070311E+00
         -1   -1    0    0    0  501 -0.00000000000E+00  0.00000000000E+00  0.96890851071E+02  0.96890851071E+02  0.00000000000E+00 0.  1.
          1   -1    0    0  501    0  0.00000000000E+00 -0.00000000000E+00 -0.14273658688E+04  0.14273658688E+04  0.00000000000E+00 0. -1.
         25    2    1    2    0    0 -0.30081272649E+03  0.95370697272E+02 -0.10022834285E+04  0.10582076768E+04  0.12509016634E+03 0.  0.
          5    1    3    3  502    0 -0.10855162462E+02 -0.22382507064E+02 -0.10194494319E+03  0.10501930783E+03  0.41800000000E+01 0.  1.
         -5    1    3    3    0  502 -0.28995756403E+03  0.11775320434E+03 -0.90033848534E+03  0.95318836892E+03  0.41800000000E+01 0.  1.
        -11    1    1    2    0    0  0.53211786311E+02 -0.51551266447E+02 -0.42302450150E+02  0.85314269401E+02  0.00000000000E+00 0.  1.
         11    1    1    2    0    0  0.24760094018E+03 -0.43819430824E+02 -0.28588913906E+03  0.38073477373E+03  0.00000000000E+00 0. -1.
</event>
<event>
 7    1  0.2522928E-009  0.1020373E+03  0.7561462E-02  0.1276069E+00
         -1   -1    0    0    0  501 -0.00000000000E+00  0.00000000000E+00  0.13825075784E+02  0.13825075784E+02  0.00000000000E+00 0.  1.
          1   -1    0    0  501    0  0.00000000000E+00 -0.00000000000E+00 -0.11950844885E+04  0.11950844885E+04  0.00000000000E+00 0. -1.
         25    2    1    2    0    0  0.22255480693E+02  0.44410327790E+01 -0.95062984753E+03  0.95909220297E+03  0.12508284289E+03 0.  0.
          5    1    3    3  502    0 -0.46909259225E+02 -0.28168390436E+01 -0.58391639947E+03  0.58581929564E+03  0.41800000000E+01 0.  1.
         -5    1    3    3    0  502  0.69164739918E+02  0.72578718226E+01 -0.36671344807E+03  0.37327290733E+03  0.41800000000E+01 0.  1.
        -11    1    1    2    0    0 -0.53277563969E+02  0.78584473948E+01 -0.86657476644E+02  0.10202829155E+03  0.00000000000E+00 0.  1.
         11    1    1    2    0    0  0.31022083276E+02 -0.12299480174E+02 -0.14397208851E+03  0.14778906973E+03  0.00000000000E+00 0. -1.
</event>
<event>
 7    1  0.2522928E-009  0.1118280E+03  0.7561462E-02  0.1257222E+00
         -1   -1    0    0    0  501 -0.00000000000E+00  0.00000000000E+00  0.63017393229E+03  0.63017393229E+03  0.00000000000E+00 0.  1.
          1   -1    0    0  501    0  0.00000000000E+00 -0.00000000000E+00 -0.22181469514E+02  0.22181469514E+02  0.00000000000E+00 0. -1.
         25    2    1    2    0    0 -0.40552862367E+02  0.13898721023E+02  0.38028663944E+03  0.40262238374E+03  0.12509654937E+03 0.  0.
          5    1    3    3  502    0 -0.65226187309E+02 -0.36606774980E+02  0.19265363961E+03  0.20670609265E+03  0.41800000000E+01 0. -1.
         -5    1    3    3    0  502  0.24673324942E+02  0.50505496003E+02  0.18763299983E+03  0.19591629109E+03  0.41800000000E+01 0. -1.
        -11    1    1    2    0    0 -0.19076149137E+01 -0.41623304648E+02  0.15881950138E+03  0.16419431324E+03  0.00000000000E+00 0.  1.
         11    1    1    2    0    0  0.42460477280E+02  0.27724583625E+02  0.68886321962E+02  0.85538704816E+02  0.00000000000E+00 0. -1.
</event>
<event>
 7    1  0.2522928E-009  0.1286808E+03  0.7561462E-02  0.1229426E+00
          2   -1    0    0  501    0  0.00000000000E+00  0.00000000000E+00  0.64637731524E+03  0.64637731524E+03  0.00000000000E+00 0. -1.
         -2   -1    0    0    0  501 -0.00000000000E+00 -0.00000000000E+00 -0.27999916338E+02  0.27999916338E+02  0.00000000000E+00 0.  1.
         25    2    1    2    0    0  0.77017356402E+02  0.11651232191E+02  0.34309626208E+03  0.37340328049E+03  0.12509012923E+03 0.  0.
          5    1    3    3  502    0  0.41749990438E+02  0.64418225902E+02  0.24241821781E+03  0.25431640580E+03  0.41800000000E+01 0.  1.
         -5    1    3    3    0  502  0.35267365964E+02 -0.52766993711E+02  0.10067804427E+03  0.11908687470E+03  0.41800000000E+01 0.  1.
        -11    1    1    2    0    0 -0.64575091318E+02 -0.46696353140E+02  0.22303593330E+03  0.23684492681E+03  0.00000000000E+00 0. -1.
         11    1    1    2    0    0 -0.12442265084E+02  0.35045120949E+02  0.52245203529E+02  0.64129024276E+02  0.00000000000E+00 0.  1.
</event>
<event>
 7    1  0.2522928E-009  0.1852036E+03  0.7561462E-02  0.1162860E+00
          1   -1    0    0  501    0  0.00000000000E+00  0.00000000000E+00  0.82353056799E+03  0.82353056799E+03  0.00000000000E+00 0. -1.
         -1   -1    0    0    0  501 -0.00000000000E+00 -0.00000000000E+00 -0.53350478457E+02  0.53350478457E+02  0.00000000000E+00 0.  1.
         25    2    1    2    0    0  0.15547591975E+03  0.74368168715E+02  0.50996802414E+03  0.55264691977E+03  0.12509135121E+03 0.  0.
          5    1    3    3  502    0  0.11352669303E+02 -0.42065654985E+01  0.21235029326E+03  0.21273621634E+03  0.41800000000E+01 0. -1.
         -5    1    3    3    0  502  0.14412325044E+03  0.78574734214E+02  0.29761773087E+03  0.33991070343E+03  0.41800000000E+01 0. -1.
        -11    1    1    2    0    0 -0.46532554950E+02  0.18662199372E+02  0.64559796962E+02  0.81740588078E+02  0.00000000000E+00 0.  1.
         11    1    1    2    0    0 -0.10894336480E+03 -0.93030368088E+02  0.19565226844E+03  0.24249353861E+03  0.00000000000E+00 0. -1.
</event>
<event>
 7    1  0.2522928E-009  0.1066235E+03  0.7561462E-02  0.1266954E+00
         -1   -1    0    0    0  501 -0.00000000000E+00  0.00000000000E+00  0.33732913352E+02  0.33732913352E+02  0.00000000000E+00 0.  1.
          1   -1    0    0  501    0  0.00000000000E+00 -0.00000000000E+00 -0.40049483848E+03  0.40049483848E+03  0.00000000000E+00 0. -1.
         25    2    1    2    0    0  0.16324361247E+02  0.38251818610E+02 -0.20974560762E+03  0.24772870426E+03  0.12508638855E+03 0.  0.
          5    1    3    3  502    0 -0.31177674130E+02  0.56298900633E+02 -0.54864460791E+02  0.84671099170E+02  0.41800000000E+01 0. -1.
         -5    1    3    3    0  502  0.47502035378E+02 -0.18047082023E+02 -0.15488114683E+03  0.16305760509E+03  0.41800000000E+01 0. -1.
        -11    1    1    2    0    0 -0.37001625370E+02  0.15546114720E+02 -0.43481421394E+02  0.59172932742E+02  0.00000000000E+00 0.  1.
         11    1    1    2    0    0  0.20677264122E+02 -0.53797933330E+02 -0.11353489612E+03  0.12732611483E+03  0.00000000000E+00 0. -1.
</event>
<event>
 7    1  0.2522928E-009  0.1535158E+03  0.7561462E-02  0.1196218E+00
          2   -1    0    0  501    0  0.00000000000E+00  0.00000000000E+00  0.13653627152E+03  0.13653627152E+03  0.00000000000E+00 0. -1.
         -2   -1    0    0    0  501 -0.00000000000E+00 -0.00000000000E+00 -0.22772730194E+03  0.22772730194E+03  0.00000000000E+00 0.  1.
         25    2    1    2    0    0 -0.13671221566E+03 -0.53993738965E+01 -0.77330835545E+02  0.20086610514E+03  0.12509097057E+03 0.  0.
          5    1    3    3  502    0 -0.14812556469E+02 -0.30835889164E+02  0.22543925230E+02  0.41182093857E+02  0.41800000000E+01 0. -1.
         -5    1    3    3    0  502 -0.12189965919E+03  0.25436515267E+02 -0.99874760776E+02  0.15968401128E+03  0.41800000000E+01 0. -1.
        -11    1    1    2    0    0  0.56611394224E+02  0.30144169809E+02 -0.39991705502E+02  0.75583446855E+02  0.00000000000E+00 0.  1.
         11    1    1    2    0    0  0.80100821434E+02 -0.24744795912E+02  0.26131510623E+02  0.87814021469E+02  0.00000000000E+00 0. -1.
</event>
<event>
 7    1  0.2522928E-009  0.9476024E+02  0.7561462E-02  0.1291717E+00
         -1   -1    0    0    0  501 -0.00000000000E+00  0.00000000000E+00  0.11478459095E+03  0.11478459095E+03  0.00000000000E+00 0.  1.
          1   -1    0    0  501    0  0.00000000000E+00 -0.00000000000E+00 -0.12896070967E+03  0.12896070967E+03  0.00000000000E+00 0. -1.
         25    2    1    2    0    0 -0.38681561681E+02 -0.18300437775E+02  0.98961070569E+01  0.13257879990E+03  0.12509211010E+03 0.  0.
          5    1    3    3  502    0  0.58683210074E+01 -0.41062011647E+02 -0.42834198391E+02  0.59772627044E+02  0.41800000000E+01 0.  1.
         -5    1    3    3    0  502 -0.44549882688E+02  0.22761573872E+02  0.52730305448E+02  0.72806172852E+02  0.41800000000E+01 0.  1.
        -11    1    1    2    0    0  0.45185092550E+02  0.48763294396E+02  0.73944991682E+01  0.66889685954E+02  0.00000000000E+00 0.  1.
         11    1    1    2    0    0 -0.65035308696E+01 -0.30462856620E+02 -0.31466724946E+02  0.44276814769E+02  0.00000000000E+00 0. -1.
</event>
<event>
 7    1  0.2522928E-009  0.9395269E+02  0.7561462E-02  0.1293552E+00
         -1   -1    0    0    0  501 -0.00000000000E+00  0.00000000000E+00  0.60106152056E+02  0.60106152056E+02  0.00000000000E+00 0.  1.
          1   -1    0    0  501    0  0.00000000000E+00 -0.00000000000E+00 -0.22372393561E+03  0.22372393561E+03  0.00000000000E+00 0. -1.
         25    2    1    2    0    0  0.34263928534E+02 -0.16713452804E+02 -0.77603259707E+02  0.15206143301E+03  0.12508819764E+03 0.  0.
          5    1    3    3  502    0  0.73166543661E+02  0.11295121051E+02 -0.72447241058E+02  0.10366772886E+03  0.41800000000E+01 0.  1.
         -5    1    3    3    0  502 -0.38902615127E+02 -0.28008573855E+02 -0.51560186496E+01  0.48393704151E+02  0.41800000000E+01 0.  1.
        -11    1    1    2    0    0 -0.18140575402E+02  0.36111581766E+02  0.17514440359E+01  0.40449899503E+02  0.00000000000E+00 0.  1.
         11    1    1    2    0    0 -0.16123353131E+02 -0.19398128962E+02 -0.87765967882E+02  0.91318755148E+02  0.00000000000E+00 0. -1.
</event>
<event>
 7    1  0.2522928E-009  0.8083828E+02  0.7561462E-02  0.1326689E+00
         -2   -1    0    0    0  501 -0.00000000000E+00  0.00000000000E+00  0.51135817383E+02  0.51135817383E+02  0.00000000000E+00 0.  1.
          2   -1    0    0  501    0  0.00000000000E+00 -0.00000000000E+00 -0.33753895897E+03  0.33753895897E+03  0.00000000000E+00 0. -1.
         25    2    1    2    0    0 -0.49462394493E+02  0.56308745446E+02 -0.15988813832E+03  0.21642364202E+03  0.12513102240E+03 0.  0.
          5    1    3    3  502    0  0.51160440770E+01  0.19922608749E+02 -0.14818169204E+03  0.14966085160E+03  0.41800000000E+01 0.  1.
         -5    1    3    3    0  502 -0.54578438570E+02  0.36386136698E+02 -0.11706446282E+02  0.66762790423E+02  0.41800000000E+01 0.  1.
        -11    1    1    2    0    0  0.80374701156E+01 -0.98693021219E+01  0.13789016440E+02  0.18765420982E+02  0.00000000000E+00 0.  1.
         11    1    1    2    0    0  0.41424924377E+02 -0.46439443324E+02 -0.14030401971E+03  0.15348571335E+03  0.00000000000E+00 0. -1.
</event>
<event>
 6    1  0.2522928E-009  0.1261433E+03  0.7561462E-02  0.1233293E+00
          1   -1    0    0  501    0  0.00000000000E+00  0.00000000000E+00  0.31497257332E+03  0.31497257332E+03  0.00000000000E+00 0. -1.
         -1   -1    0    0    0  501 -0.00000000000E+00 -0.00000000000E+00 -0.11275568045E+03  0.11275568045E+03  0.00000000000E+00 0.  1.
          5    1    1    2  502    0 -0.82725068461E+02 -0.52238283576E+02  0.20865899965E+03  0.23049582590E+03  0.41800000000E+01 0. -1.
         -5    1    1    2    0  502  0.38664171260E+02 -0.27032290174E+02  0.38534634112E+02  0.61057786378E+02  0.41800000000E+01 0. -1.
        -11    1    1    2    0    0  0.48016782714E+02  0.28019533330E+02 -0.60805352187E+02  0.82389298605E+02  0.00000000000E+00 0.  1.
         11    1    1    2    0    0 -0.39558855126E+01  0.51251040420E+02  0.15828611301E+02  0.53785342892E+02  0.00000000000E+00 0. -1.
</event>
<event>
 7    1  0.2522928E-009  0.1281816E+03  0.7561462E-02  0.1230179E+00
         -1   -1    0    0    0  501 -0.00000000000E+00  0.00000000000E+00  0.12975519265E+03  0.12975519265E+03  0.00000000000E+00 0.  1.
          1   -1    0    0  501    0  0.00000000000E+00 -0.00000000000E+00 -0.18170336321E+03  0.18170336321E+03  0.00000000000E+00 0. -1.
         25    2    1    2    0    0  0.68642355841E+02 -0.85279159675E+02 -0.26517409840E+02  0.16833099211E+03  0.12509133380E+03 0.  0.
          5    1    3    3  502    0  0.28139237229E+02 -0.95920974414E+02 -0.58114500781E+02  0.11570400860E+03  0.41800000000E+01 0.  1.
         -5    1    3    3    0  502  0.40503118612E+02  0.10641814739E+02  0.31597090941E+02  0.52626983518E+02  0.41800000000E+01 0.  1.
        -11    1    1    2    0    0 -0.23525927354E+02  0.55195373913E+02  0.28696906674E+02  0.66509480617E+02  0.00000000000E+00 0.  1.
         11    1    1    2    0    0 -0.45116428486E+02  0.30083785762E+02 -0.54127667389E+02  0.76618083128E+02  0.00000000000E+00 0. -1.
</event>
<event>
 7    1  0.2522928E-009  0.1184497E+03  0.7561462E-02  0.1245677E+00
         -4   -1    0    0    0  501 -0.00000000000E+00  0.00000000000E+00  0.80694936005E+02  0.80694936005E+02  0.00000000000E+00 0.  1.
          4   -1    0    0  501    0  0.00000000000E+00 -0.00000000000E+00 -0.23803958267E+03  0.23803958267E+03  0.00000000000E+00 0. -1.
         25    2    1    2    0    0  0.84501054045E+02 -0.26799504750E+00 -0.74283280728E+02  0.16825132289E+03  0.12509996763E+03 0.  0.
          5    1    3    3  502    0  0.13178890623E+02  0.51002108422E+02  0.45432404896E+00  0.52844839217E+02  0.41800000000E+01 0. -1.
         -5    1    3    3    0  502  0.71322163422E+02 -0.51270103470E+02 -0.74737604777E+02  0.11540648367E+03  0.41800000000E+01 0. -1.
        -11    1    1    2    0    0 -0.37091893622E+02 -0.22650727427E+02 -0.87437750422E+02  0.97643352177E+02  0.00000000000E+00 0.  1.
         11    1    1    2    0    0 -0.47409160424E+02  0.22918722475E+02  0.43763844843E+01  0.52839843614E+02  0.00000000000E+00 0. -1.
</event>
<event>
 7    1  0.2522928E-009  0.1210363E+03  0.7561462E-02  0.1241397E+00
         -2   -1    0    0    0  501 -0.00000000000E+00  0.00000000000E+00  0.22323461539E+02  0.22323461539E+02  0.00000000000E+00 0. -1.
          2   -1    0    0  501    0  0.00000000000E+00 -0.00000000000E+00 -0.87584704147E+03  0.87584704147E+03  0.00000000000E+00 0.  1.
         25    2    1    2    0    0 -0.78989102299E+02 -0.39597405396E+02 -0.51290096328E+03  0.53527666266E+03  0.12508586915E+03 0.  0.
          5    1    3    3  502    0  0.18090438831E+02 -0.38573609375E+02 -0.27471648874E+03  0.27803202855E+03  0.41800000000E+01 0. -1.
         -5    1    3    3    0  502 -0.97079541130E+02 -0.10237960212E+01 -0.23818447455E+03  0.25724463411E+03  0.41800000000E+01 0. -1.
        -11    1    1    2    0    0  0.31123765696E+02  0.44138032750E+02 -0.28176484951E+03  0.28689420550E+03  0.00000000000E+00 0.  1.
         11    1    1    2    0    0  0.47865336603E+02 -0.45406273544E+01 -0.58857767136E+02  0.75999634849E+02  0.00000000000E+00 0. -1.
</event>
<event>
 7    1  0.2522928E-009  0.1124229E+03  0.7561462E-02  0.1256148E+00
         -2   -1    0    0    0  501 -0.00000000000E+00  0.00000000000E+00  0.15080103062E+03  0.15080103062E+03  0.00000000000E+00 0. -1.
          2   -1    0    0  501    0  0.00000000000E+00 -0.00000000000E+00 -0.90552999449E+02  0.90552999449E+02  0.00000000000E+00 0.  1.
         25    2    1    2    0    0 -0.31097466234E+02 -0.23976754890E+02  0.14888678433E+02  0.13195134581E+03  0.12509015842E+03 0.  0.
          5    1    3    3  502    0  0.79095815898E+01 -0.67657064881E+02 -0.84590424348E+01  0.68768217282E+02  0.41800000000E+01 0. -1.
         -5    1    3    3    0  502 -0.39007047824E+02  0.43680309991E+02  0.23347720868E+02  0.63183128528E+02  0.41800000000E+01 0. -1.
        -11    1    1    2    0    0  0.17697071995E+02 -0.34028780871E+02  0.27677936070E+02  0.47299180013E+02  0.00000000000E+00 0.  1.
         11    1    1    2    0    0  0.13400394239E+02  0.58005535761E+02  0.17681416670E+02  0.62103504250E+02  0.00000000000E+00 0. -1.
</event>
<event>
 7    1  0.2522928E-009  0.1171730E+03  0.7561462E-02  0.1247835E+00
          4   -1    0    0  501    0  0.00000000000E+00  0.00000000000E+00  0.13565014182E+03  0.13565014182E+03  0.00000000000E+00 0. -1.
         -4   -1    0    0    0  501 -0.00000000000E+00 -0.00000000000E+00 -0.11875354510E+03  0.11875354510E+03  0.00000000000E+00 0.  1.
         25    2    1    2    0    0  0.57851261041E+02 -0.16863201999E+02 -0.14155995400E+02  0.13955304441E+03  0.12507407410E+03 0.  0.
          5    1    3    3  502    0  0.29679515693E+02 -0.65280416856E+02 -0.34657793244E+02  0.79756137752E+02  0.41800000000E+01 0.  1.
         -5    1    3    3    0  502  0.28171745348E+02  0.48417214857E+02  0.20501797844E+02  0.59796906653E+02  0.41800000000E+01 0.  1.
        -11    1    1    2    0    0 -0.78295009925E+02  0.27888840491E+02  0.36840945294E+02  0.90912877268E+02  0.00000000000E+00 0. -1.
         11    1    1    2    0    0  0.20443748883E+02 -0.11025638492E+02 -0.57883531787E+01  0.23937765248E+02  0.00000000000E+00 0.  1.
</event>
<event>
 7    1  0.2522928E-009  0.1725180E+03  0.7561462E-02  0.1175247E+00
          1   -1    0    0  501    0  0.00000000000E+00  0.00000000000E+00  0.22472743264E+03  0.22472743264E+03  0.00000000000E+00 0. -1.
         -1   -1    0    0    0  501 -0.00000000000E+00 -0.00000000000E+00 -0.21035821283E+03  0.21035821283E+03  0.00000000000E+00 0.  1.
         25    2    1    2    0    0  0.10558047619E+03  0.93352297128E+02 -0.11768303704E+03  0.22216722896E+03  0.12508833712E+03 0.  0.
          5    1    3    3  502    0  0.13409690148E+03  0.79867901283E+02 -0.10353424160E+03  0.18734372748E+03  0.41800000000E+01 0. -1.
         -5    1    3    3    0  502 -0.28516425290E+02  0.13484395845E+02 -0.14148795436E+02  0.34823501474E+02  0.41800000000E+01 0. -1.
        -11    1    1    2    0    0 -0.11342581290E+03 -0.72038133669E+02  0.80630372561E+02  0.15670406732E+03  0.00000000000E+00 0.  1.
         11    1    1    2    0    0  0.78453367057E+01 -0.21314163459E+02  0.51421884286E+02  0.56214349195E+02  0.00000000000E+00 0. -1.
</event>
<event>
 7    1  0.2522928E-009  0.8871128E+02  0.7561462E-02  0.1306003E+00
          1   -1    0    0  501    0  0.00000000000E+00  0.00000000000E+00  0.15729064226E+03  0.15729064226E+03  0.00000000000E+00 0. -1.
         -1   -1    0    0    0  501 -0.00000000000E+00 -0.00000000000E+00 -0.12530766910E+03  0.12530766910E+03  0.00000000000E+00 0.  1.
         25    2    1    2    0    0  0.58649870247E+02 -0.28030728713E+02 -0.43809828218E+02  0.14761506464E+03  0.12508148235E+03 0.  0.
          5    1    3    3  502    0  0.55422754554E+02  0.13219371749E+02 -0.75962483151E+02  0.95048433749E+02  0.41800000000E+01 0.  1.
         -5    1    3    3    0  502  0.32271156931E+01 -0.41250100462E+02  0.32152654933E+02  0.52566630890E+02  0.41800000000E+01 0.  1.
        -11    1    1    2    0    0 -0.37173834751E+02 -0.67952750946E+01  0.85020118145E+02  0.93040261409E+02  0.00000000000E+00 0. -1.
         11    1    1    2    0    0 -0.21476035496E+02  0.34826003807E+02 -0.92273167667E+01  0.41942985308E+02  0.00000000000E+00 0.  1.
</event>
<event>
 7    1  0.2522928E-009  0.1700297E+03  0.7561462E-02  0.1177817E+00
         -2   -1    0    0    0  501 -0.00000000000E+00  0.00000000000E+00  0.45260289498E+03  0.45260289498E+03  0.00000000000E+00 0.  1.
          2   -1    0    0  501    0  0.00000000000E+00 -0.00000000000E+00 -0.99936780252E+02  0.99936780252E+02  0.00000000000E+00 0. -1.
         25    2    1    2    0    0 -0.13495979739E+03  0.93456550547E+02  0.79961062495E+02  0.22133703953E+03  0.12509212526E+03 0.  0.
          5    1    3    3  502    0 -0.64501713142E+02  0.96726558726E+01  0.90110050367E+02  0.11131632785E+03  0.41800000000E+01 0.  1.
         -5    1    3    3    0  502 -0.70458084249E+02  0.83783894674E+02 -0.10148987872E+02  0.11002071168E+03  0.41800000000E+01 0.  1.
        -11    1    1    2    0    0  0.67833467210E+02 -0.36008938425E+02  0.50075105163E+02  0.91681727063E+02  0.00000000000E+00 0. -1.
         11    1    1    2    0    0  0.67126330182E+02 -0.57447612122E+02  0.22262994707E+03  0.23952090864E+03  0.00000000000E+00 0.  1.
</event>
<event>
 7    1  0.2522928E-009  0.1294833E+03  0.7561462E-02  0.1228224E+00
          2   -1    0    0  501    0  0.00000000000E+00  0.00000000000E+00  0.40724364445E+03  0.40724364445E+03  0.00000000000E+00 0. -1.
         -2   -1    0    0    0  501 -0.00000000000E+00 -0.00000000000E+00 -0.50398941245E+02  0.50398941245E+02  0.00000000000E+00 0.  1.
         25    2    1    2    0    0  0.59970968094E+02  0.12044452963E+02  0.10199616566E+03  0.17260038042E+03  0.12508432216E+03 0.  0.
          5    1    3    3  502    0  0.36037672778E+02 -0.52274412285E+02  0.75939895785E+02  0.99074054175E+02  0.41800000000E+01 0. -1.
         -5    1    3    3    0  502  0.23933295316E+02  0.64318865248E+02  0.26056269871E+02  0.73526326244E+02  0.41800000000E+01 0. -1.
        -11    1    1    2    0    0  0.32773949173E+02 -0.80646827562E+01  0.52459041697E+02  0.62378857861E+02  0.00000000000E+00 0.  1.
         11    1    1    2    0    0 -0.92744917267E+02 -0.39797702068E+01  0.20238949585E+03  0.22266334741E+03  0.00000000000E+00 0. -1.
</event>
<event>
 7    1  0.2522928E-009  0.1294771E+03  0.7561462E-02  0.1228234E+00
          1   -1    0    0  501    0  0.00000000000E+00  0.00000000000E+00  0.24809236106E+03  0.24809236106E+03  0.00000000000E+00 0. -1.
         -1   -1    0    0    0  501 -0.00000000000E+00 -0.00000000000E+00 -0.13058980311E+03  0.13058980311E+03  0.00000000000E+00 0.  1.
         25    2    1    2    0    0 -0.69377641751E+02  0.38000770562E+02 -0.63478986245E+02  0.16104110708E+03  0.12508933102E+03 0.  0.
          5    1    3    3  502    0 -0.75743279237E+02 -0.26370596587E+02 -0.50692148480E+02  0.94971674890E+02  0.41800000000E+01 0. -1.
         -5    1    3    3    0  502  0.63656374864E+01  0.64371367149E+02 -0.12786837765E+02  0.66069432185E+02  0.41800000000E+01 0. -1.
        -11    1    1    2    0    0  0.51894114229E+02  0.18178195538E+02  0.12440986845E+03  0.13601934146E+03  0.00000000000E+00 0. -1.
         11    1    1    2    0    0  0.17483527522E+02 -0.56178966100E+02  0.56571675739E+02  0.81621715631E+02  0.00000000000E+00 0.  1.
</event>
<event>
 7    1  0.2522928E-009  0.1449127E+03  0.7561462E-02  0.1206867E+00
         -1   -1    0    0    0  501 -0.00000000000E+00  0.00000000000E+00  0.28256449769E+02  0.28256449769E+02  0.00000000000E+00 0.  1.
          1   -1    0    0  501    0  0.00000000000E+00 -0.00000000000E+00 -0.80125151385E+03  0.80125151385E+03  0.00000000000E+00 0. -1.
         25    2    1    2    0    0 -0.97473552895E+02 -0.30155601693E+02 -0.42809483187E+03  0.45751778559E+03  0.12508751028E+03 0.  0.
          5    1    3    3  502    0 -0.13792449551E+02 -0.59863231500E+02 -0.98642000085E+02  0.11628222018E+03  0.41800000000E+01 0.  1.
         -5    1    3    3    0  502 -0.83681103344E+02  0.29707629808E+02 -0.32945283178E+03  0.34123556540E+03  0.41800000000E+01 0.  1.
        -11    1    1    2    0    0  0.75118470508E+01  0.47199470552E+02 -0.11924217220E+03  0.12846366606E+03  0.00000000000E+00 0.  1.
         11    1    1    2    0    0  0.89961705844E+02 -0.17043868859E+02 -0.22565806001E+03  0.24352651197E+03  0.00000000000E+00 0. -1.
</event>
<event>
 7    1  0.2522928E-009  0.1248453E+03  0.7561462E-02  0.1235311E+00
         -1   -1    0    0    0  501 -0.00000000000E+00  0.00000000000E+00  0.17705094229E+03  0.17705094229E+03  0.00000000000E+00 0.  1.
          1   -1    0    0  501    0  0.00000000000E+00 -0.00000000000E+00 -0.13869771995E+03  0.13869771995E+03  0.00000000000E+00 0. -1.
         25    2    1    2    0    0  0.88456321789E+02 -0.68836355237E+02  0.19275349528E+02  0.16906402100E+03  0.12509252348E+03 0.  0.
          5    1    3    3  502    0  0.49758864516E+02  0.82013759519E-02  0.61654627633E+02  0.79339209561E+02  0.41800000000E+01 0.  1.
         -5    1    3    3    0  502  0.38697457274E+02 -0.68844556613E+02 -0.42379278105E+02  0.89724811437E+02  0.41800000000E+01 0.  1.
        -11    1    1    2    0    0 -0.62125169230E+02  0.20134470610E+02 -0.30764467061E+02  0.72189929991E+02  0.00000000000E+00 0.  1.
         11    1    1    2    0    0 -0.26331152559E+02  0.48701884628E+02  0.49842339865E+02  0.74494711253E+02  0.00000000000E+00 0. -1.
</event>
<event>
 7    1  0.2522928E-009  0.1165177E+03  0.7561462E-02  0.1248955E+00
         -1   -1    0    0    0  501 -0.00000000000E+00  0.00000000000E+00  0.14669283003E+02  0.14669283003E+02  0.00000000000E+00 0.  1.
          1   -1    0    0  501    0  0.00000000000E+00 -0.00000000000E+00 -0.98071619793E+03  0.98071619793E+03  0.00000000000E+00 0. -1.
         25    2    1    2    0    0 -0.33933714227E+02  0.36584950536E+02 -0.63344188108E+03  0.64759903943E+03  0.12508374631E+03 0.  0.
          5    1    3    3  502    0 -0.76265840395E+02  0.44868605007E+02 -0.48226305602E+03  0.49033131424E+03  0.41800000000E+01 0. -1.
         -5    1    3    3    0  502  0.42332126168E+02 -0.82836544714E+01 -0.15117882506E+03  0.15726772519E+03  0.41800000000E+01 0. -1.
        -11    1    1    2    0    0  0.12573704587E+02  0.29283581768E+02 -0.89135027088E+02  0.94660864470E+02  0.00000000000E+00 0.  1.
         11    1    1    2    0    0  0.21360009640E+02 -0.65868532304E+02 -0.24347000675E+03  0.25312557703E+03  0.00000000000E+00 0. -1.
</event>
<event>
 7    1  0.2522928E-009  0.1090024E+03  0.7561462E-02  0.1262429E+00
         -1   -1    0    0    0  501 -0.00000000000E+00  0.00000000000E+00  0.12738178411E+03  0.12738178411E+03  0.00000000000E+00 0.  1.
          1   -1    0    0  501    0  0.00000000000E+00 -0.00000000000E+00 -0.15208621684E+03  0.15208621684E+03  0.00000000000E+00 0. -1.
         25    2    1    2    0    0  0.55406086990E+02 -0.13472182624E+02 -0.88896197267E+02  0.16371398643E+03  0.12509357011E+03 0.  0.
          5    1    3    3  502    0  0.78538837513E+02  0.21403607890E+02 -0.21545614919E+02  0.84309841364E+02  0.41800000000E+01 0.  1.
         -5    1    3    3    0  502 -0.23132750524E+02 -0.34875790514E+02 -0.67350582348E+02  0.79404145064E+02  0.41800000000E+01 0.  1.
        -11    1    1    2    0    0 -0.27853606859E+02  0.44776826151E+02  0.24369643729E+02  0.58091885067E+02  0.00000000000E+00 0. -1.
         11    1    1    2    0    0 -0.27552480131E+02 -0.31304643527E+02  0.39822120809E+02  0.57662129456E+02  0.00000000000E+00 0.  1.
</event>
<event>
 7    1  0.2522928E-009  0.1394137E+03  0.7561462E-02  0.1214120E+00
         -1   -1    0    0    0  501 -0.00000000000E+00  0.00000000000E+00  0.20574157311E+02  0.20574157311E+02  0.00000000000E+00 0.  1.
          1   -1    0    0  501    0  0.00000000000E+00 -0.00000000000E+00 -0.14436275257E+04  0.14436275257E+04  0.00000000000E+00 0. -1.
         25    2    1    2    0    0  0.76851912034E+02  0.72592110167E+02 -0.10879011873E+04  0.11001559921E+04  0.12505351982E+03 0.  0.
          5    1    3    3  502    0  0.61390029989E+02  0.92538429900E+02 -0.52301190855E+03  0.53468778337E+03  0.41800000000E+01 0. -1.
         -5    1    3    3    0  502  0.15461882045E+02 -0.19946319733E+02 -0.56488927871E+03  0.56546820872E+03  0.41800000000E+01 0. -1.
        -11    1    1    2    0    0 -0.98677467390E+02 -0.49694117493E+02 -0.26288268768E+03  0.28515619468E+03  0.00000000000E+00 0.  1.
         11    1    1    2    0    0  0.21825555356E+02 -0.22897992674E+02 -0.72269493419E+02  0.78889496222E+02  0.00000000000E+00 0. -1.
</event>
<event>
 7    1  0.2522928E-009  0.1605959E+03  0.7561462E-02  0.1188026E+00
          1   -1    0    0  501    0  0.00000000000E+00  0.00000000000E+00  0.46567196486E+03  0.46567196486E+03  0.00000000000E+00 0. -1.
         -1   -1    0    0    0  501 -0.00000000000E+00 -0.00000000000E+00 -0.91907835916E+02  0.91907835916E+02  0.00000000000E+00 0.  1.
         25    2    1    2    0    0  0.63054255156E+02 -0.10184112504E+03  0.36737751500E+03  0.40615404177E+03  0.12508962096E+03 0.  0.
          5    1    3    3  502    0  0.99062761718E+02 -0.81433797147E+02  0.30798171265E+03  0.33363917906E+03  0.41800000000E+01 0.  1.
         -5    1    3    3    0  502 -0.36008506562E+02 -0.20407327897E+02  0.59395802357E+02  0.72514862713E+02  0.41800000000E+01 0.  1.
        -11    1    1    2    0    0 -0.58243081412E+02  0.97307872161E+01  0.30786016210E+01  0.59130555047E+02  0.00000000000E+00 0.  1.
         11    1    1    2    0    0 -0.48111737435E+01  0.92110337827E+02  0.33080123151E+01  0.92295203954E+02  0.00000000000E+00 0. -1.
</event>
<event>
 7    1  0.2522928E-009  0.1720884E+03  0.7561462E-02  0.1175687E+00
          2   -1    0    0  501    0  0.00000000000E+00  0.00000000000E+00  0.25358235704E+04  0.25358235704E+04  0.00000000000E+00 0. -1.
         -2   -1    0    0    0  501 -0.00000000000E+00 -0.00000000000E+00 -0.12524037361E+02  0.12524037361E+02  0.00000000000E+00 0.  1.
         25    2    1    2    0    0 -0.32265285079E+02 -0.13169681331E+03  0.16100507719E+04  0.16205850162E+04  0.12508879884E+03 0.  0.
          5    1    3    3  502    0 -0.56581189603E+02 -0.14282408722E+03  0.12284206549E+04  0.12379963363E+04  0.41800000000E+01 0.  1.
         -5    1    3    3    0  502  0.24315904524E+02  0.11127273913E+02  0.38163011696E+03  0.38258867993E+03  0.41800000000E+01 0.  1.
        -11    1    1    2    0    0 -0.68294067285E+01  0.12324363094E+03  0.69755005911E+03  0.70838670113E+03  0.00000000000E+00 0.  1.
         11    1    1    2    0    0  0.39094691807E+02  0.84531823638E+01  0.21569870211E+03  0.21937589045E+03  0.00000000000E+00 0. -1.
</event>
<event>
 7    1  0.2522928E-009  0.1408399E+03  0.7561462E-02  0.1212203E+00
          1   -1    0    0  501    0  0.00000000000E+00  0.00000000000E+00  0.75458419802E+03  0.75458419802E+03  0.00000000000E+00 0. -1.
         -1   -1    0    0    0  501 -0.00000000000E+00 -0.00000000000E+00 -0.31594146759E+02  0.31594146759E+02  0.00000000000E+00 0.  1.
         25    2    1    2    0    0  0.84984634041E+02 -0.68434757785E+02  0.40072140086E+03  0.43374123806E+03  0.12509243138E+03 0.  0.
          5    1    3    3  502    0  0.11337012838E+03 -0.61405923134E+02  0.36646733037E+03  0.38850900894E+03  0.41800000000E+01 0. -1.
         -5    1    3    3    0  502 -0.28385494337E+02 -0.70288346508E+01  0.34254070495E+02  0.45232229116E+02  0.41800000000E+01 0. -1.
        -11    1    1    2    0    0  0.85741117521E+01  0.82255001927E+01  0.40709873716E+00  0.11888649004E+02  0.00000000000E+00 0.  1.
         11    1    1    2    0    0 -0.93558745793E+02  0.60209257592E+02  0.32186155166E+03  0.34054845772E+03  0.00000000000E+00 0. -1.
</event>
<event>
 7    1  0.2522928E-009  0.1009640E+03  0.7561462E-02  0.1278282E+00
          2   -1    0    0  501    0  0.00000000000E+00  0.00000000000E+00  0.16757180573E+03  0.16757180573E+03  0.00000000000E+00 0. -1.
         -2   -1    0    0    0  501 -0.00000000000E+00 -0.00000000000E+00 -0.10251429235E+03  0.10251429235E+03  0.00000000000E+00 0.  1.
         25    2    1    2    0    0 -0.58278876754E+02 -0.15272044598E+02 -0.10259325061E+02  0.13922236830E+03  0.12509177137E+03 0.  0.
          5    1    3    3  502    0  0.19509693686E+02  0.22553579291E+02  0.31069269360E+02  0.43267354728E+02  0.41800000000E+01 0.  1.
         -5    1    3    3    0  502 -0.77788570440E+02 -0.37825623889E+02 -0.41328594421E+02  0.95955013577E+02  0.41800000000E+01 0.  1.
        -11    1    1    2    0    0  0.29733665011E+02 -0.22915617029E+02  0.74220385868E+02  0.83173806076E+02  0.00000000000E+00 0. -1.
         11    1    1    2    0    0  0.28545211743E+02  0.38187661627E+02  0.10964525665E+01  0.47689923696E+02  0.00000000000E+00 0.  1.
</event>
<event>
 7    1  0.2522928E-009  0.2133172E+03  0.7561462E-02  0.1138966E+00
          2   -1    0    0  501    0  0.00000000000E+00  0.00000000000E+00  0.64136343726E+03  0.64136343726E+03  0.00000000000E+00 0. -1.
         -2   -1    0    0    0  501 -0.00000000000E+00 -0.00000000000E+00 -0.97863969579E+02  0.97863969579E+02  0.00000000000E+00 0.  1.
         25    2    1    2    0    0  0.19739598416E+03  0.46217755028E+02  0.13420271688E+03  0.27342174055E+03  0.12509126086E+03 0.  0.
          5    1    3    3  502    0  0.70408744969E+02  0.58621820723E+02  0.11046170865E+03  0.14357287596E+03  0.41800000000E+01 0. -1.
         -5    1    3    3    0  502  0.12698723919E+03 -0.12404065695E+02  0.23741008230E+02  0.12984886459E+03  0.41800000000E+01 0. -1.
        -11    1    1    2    0    0 -0.71036958076E+02 -0.38177964641E+02  0.82642343360E+02  0.11547104967E+03  0.00000000000E+00 0.  1.
         11    1    1    2    0    0 -0.12635902608E+03 -0.80397903869E+01  0.32665440744E+03  0.35033461662E+03  0.00000000000E+00 0. -1.
</event>
<event>
 7    1  0.2522928E-009  0.1151463E+03  0.7561462E-02  0.1251326E+00
         -2   -1    0    0    0  501 -0.00000000000E+00  0.00000000000E+00  0.22598807096E+03  0.22598807096E+03  0.00000000000E+00 0.  1.
          2   -1    0    0  501    0  0.00000000000E+00 -0.00000000000E+00 -0.61923715586E+02  0.61923715586E+02  0.00000000000E+00 0. -1.
         25    2    1    2    0    0  0.35544406442E+02  0.18213128166E+02  0.12301988972E+03  0.17993108886E+03  0.12508469373E+03 0.  0.
          5    1    3    3  502    0  0.75699242683E+02  0.38726849036E+02  0.90006438986E+02  0.12389017571E+03  0.41800000000E+01 0. -1.
         -5    1    3    3    0  502 -0.40154836241E+02 -0.20513720869E+02  0.33013450732E+02  0.56040913150E+02  0.41800000000E+01 0. -1.
        -11    1    1    2    0    0 -0.13380348550E+02  0.37553110223E+02  0.16603634221E+02  0.43185072468E+02  0.00000000000E+00 0.  1.
         11    1    1    2    0    0 -0.22164057892E+02 -0.55766238389E+02  0.24440831440E+02  0.64795625221E+02  0.00000000000E+00 0. -1.
</event>
<event>
 7    1  0.2522928E-009  0.1030752E+03  0.7561462E-02  0.1273959E+00
          2   -1    0    0  501    0  0.00000000000E+00  0.00000000000E+00  0.39045542909E+03  0.39045542909E+03  0.00000000000E+00 0. -1.
         -2   -1    0    0    0  501 -0.00000000000E+00 -0.00000000000E+00 -0.33757076419E+02  0.33757076419E+02  0.00000000000E+00 0.  1.
         25    2    1    2    0    0 -0.11972399569E+02 -0.33857352405E+02  0.18716259343E+03  0.22796175187E+03  0.12508822996E+03 0.  0.
          5    1    3    3  502    0 -0.56806544510E+02  0.15116012252E+02  0.11856035941E+03  0.13239905041E+03  0.41800000000E+01 0.  1.
         -5    1    3    3    0  502  0.44834144942E+02 -0.48973364657E+02  0.68602234017E+02  0.95562701461E+02  0.41800000000E+01 0.  1.
        -11    1    1    2    0    0  0.36003135775E+02  0.41998696796E+02  0.15974987205E+03  0.16905661164E+03  0.00000000000E+00 0. -1.
         11    1    1    2    0    0 -0.24030736207E+02 -0.81413443905E+01  0.97858871963E+01  0.27194142004E+02  0.00000000000E+00 0.  1.
</event>
<event>
 7    1  0.2522928E-009  0.1465145E+03  0.7561462E-02  0.1204823E+00
          1   -1    0    0  501    0  0.00000000000E+00  0.00000000000E+00  0.24087309402E+03  0.24087309402E+03  0.00000000000E+00 0. -1.
         -1   -1    0    0    0  501 -0.00000000000E+00 -0.00000000000E+00 -0.11538009822E+03  0.11538009822E+03  0.00000000000E+00 0.  1.
         25    2    1    2    0    0  0.10273502644E+03  0.19682403049E+02  0.14114627662E+03  0.21566398288E+03  0.12508716745E+03 0.  0.
          5    1    3    3  502    0  0.33807414106E+02  0.68761092602E+02  0.52076542655E+02  0.92738707125E+02  0.41800000000E+01 0. -1.
         -5    1    3    3    0  502  0.68927612335E+02 -0.49078689554E+02  0.89069733967E+02  0.12292527576E+03  0.41800000000E+01 0. -1.
        -11    1    1    2    0    0 -0.80723804180E+02  0.22667179045E+02  0.13108946419E+02  0.84864468674E+02  0.00000000000E+00 0.  1.
         11    1    1    2    0    0 -0.22011222261E+02 -0.42349582093E+02 -0.28762227241E+02  0.55724740688E+02  0.00000000000E+00 0. -1.
</event>
<event>
 7    1  0.2522928E-009  0.1843761E+03  0.7561462E-02  0.1163634E+00
          1   -1    0    0  501    0  0.00000000000E+00  0.00000000000E+00  0.13873389198E+03  0.13873389198E+03  0.00000000000E+00 0. -1.
         -1   -1    0    0    0  501 -0.00000000000E+00 -0.00000000000E+00 -0.26753309400E+03  0.26753309400E+03  0.00000000000E+00 0.  1.
         25    2    1    2    0    0  0.51562591227E+02  0.12490279173E+03 -0.11399950690E+03  0.21657124445E+03  0.12509119934E+03 0.  0.
          5    1    3    3  502    0 -0.29576441587E+02  0.89680756111E+02 -0.47231700242E+02  0.10566792239E+03  0.41800000000E+01 0.  1.
         -5    1    3    3    0  502  0.81139032814E+02  0.35222035620E+02 -0.66767806654E+02  0.11090332206E+03  0.41800000000E+01 0.  1.
        -11    1    1    2    0    0  0.42674031329E+02 -0.46232308860E+02 -0.22190543720E+02  0.66715212381E+02  0.00000000000E+00 0.  1.
         11    1    1    2    0    0 -0.94236622556E+02 -0.78670482871E+02  0.73908485928E+01  0.12298052914E+03  0.00000000000E+00 0. -1.
</event>
<event>
 7    1  0.2522928E-009  0.1471218E+03  0.7561462E-02  0.1204055E+00
          1   -1    0    0  501    0  0.00000000000E+00  0.00000000000E+00  0.90466478424E+03  0.90466478424E+03  0.00000000000E+00 0. -1.
         -1   -1    0    0    0  501 -0.00000000000E+00 -0.00000000000E+00 -0.24975029255E+02  0.24975029255E+02  0.00000000000E+00 0.  1.
         25    2    1    2    0    0 -0.61592925085E+02 -0.84829514441E+02  0.55300025256E+03  0.57658197571E+03  0.12509100866E+03 0.  0.
          5    1    3    3  502    0 -0.60420303786E+02  0.15684242875E+02  0.20586492680E+03  0.21516144885E+03  0.41800000000E+01 0. -1.
         -5    1    3    3    0  502 -0.11726212999E+01 -0.10051375732E+03  0.34713532575E+03  0.36142052686E+03  0.41800000000E+01 0. -1.
        -11    1    1    2    0    0  0.64305983852E+02  0.21674780827E+02  0.13296371779E+03  0.14927962330E+03  0.00000000000E+00 0.  1.
         11    1    1    2    0    0 -0.27130587665E+01  0.63154733614E+02  0.19372578464E+03  0.20377821449E+03  0.00000000000E+00 0. -1.
</event>
<event>
 7    1  0.2522928E-009  0.1100733E+03  0.7561462E-02  0.1260434E+00
         -2   -1    0    0    0  501 -0.00000000000E+00  0.00000000000E+00  0.19293206566E+02  0.19293206566E+02  0.00000000000E+00 0.  1.
          2   -1    0    0  501    0  0.00000000000E+00 -0.00000000000E+00 -0.69368297557E+03  0.69368297557E+03  0.00000000000E+00 0. -1.
         25    2    1    2    0    0 -0.28515515959E+01 -0.26729274798E+02 -0.28744216946E+03  0.31463144689E+03  0.12508941247E+03 0.  0.
          5    1    3    3  502    0 -0.59337424059E+02 -0.34898916607E+02 -0.13088929701E+03  0.14794710118E+03  0.41800000000E+01 0.  1.
         -5    1    3    3    0  502  0.56485872463E+02  0.81696418089E+01 -0.15655287245E+03  0.16668434571E+03  0.41800000000E+01 0.  1.
        -11    1    1    2    0    0  0.85305780150E+01 -0.32934088330E+02 -0.11841460996E+03  0.12320488946E+03  0.00000000000E+00 0.  1.
         11    1    1    2    0    0 -0.56790264191E+01  0.59663363128E+02 -0.26853298959E+03  0.27513984579E+03  0.00000000000E+00 0. -1.
</event>
<event>
 7    1  0.2522928E-009  0.1034861E+03  0.7561462E-02  0.1273131E+00
          2   -1    0    0  501    0  0.00000000000E+00  0.00000000000E+00  0.10557981846E+02  0.10557981846E+02  0.00000000000E+00 0. -1.
         -2   -1    0    0    0  501 -0.00000000000E+00 -0.00000000000E+00 -0.14609367277E+04  0.14609367277E+04  0.00000000000E+00 0.  1.
         25    2    1    2    0    0 -0.47692544824E+02 -0.13840700426E+02 -0.10010163990E+04  0.10100234414E+04  0.12508947704E+03 0.  0.
          5    1    3    3  502    0  0.12398725031E+02  0.29726252605E+02 -0.66892401637E+03  0.66971202061E+03  0.41800000000E+01 0. -1.
         -5    1    3    3    0  502 -0.60091269855E+02 -0.43566953031E+02 -0.33209238265E+03  0.34031142079E+03  0.41800000000E+01 0. -1.
        -11    1    1    2    0    0  0.16620998726E+02  0.49875585360E+02 -0.30421289138E+03  0.30872206740E+03  0.00000000000E+00 0.  1.
         11    1    1    2    0    0  0.31071546098E+02 -0.36034884934E+02 -0.14514945541E+03  0.15274920071E+03  0.00000000000E+00 0. -1.
</event>
<event>
 7    1  0.2522928E-009  0.1023583E+03  0.7561462E-02  0.1275413E+00
         -1   -1    0    0    0  501 -0.00000000000E+00  0.00000000000E+00  0.13945654001E+03  0.13945654001E+03  0.00000000000E+00 0.  1.
          1   -1    0    0  501    0  0.00000000000E+00 -0.00000000000E+00 -0.10066222076E+03  0.10066222076E+03  0.00000000000E+00 0. -1.
         25    2    1    2    0    0 -0.25776886750E+02 -0.12771959607E+02 -0.19373219199E+02  0.12981897102E+03  0.12510025088E+03 0.  0.
          5    1    3    3  502    0  0.63711186896E+01 -0.56255508406E+02  0.22736470890E+02  0.61153028445E+02  0.41800000000E+01 0. -1.
         -5    1    3    3    0  502 -0.32148005440E+02  0.43483548799E+02 -0.42109690089E+02  0.68665942572E+02  0.41800000000E+01 0. -1.
        -11    1    1    2    0    0 -0.33229523507E+02 -0.48012740442E+00  0.21236858184E+02  0.39439014951E+02  0.00000000000E+00 0.  1.
         11    1    1    2    0    0  0.59006410257E+02  0.13252087012E+02  0.36930680260E+02  0.70860774806E+02  0.00000000000E+00 0. -1.
</event>
<event>
 7    1  0.2522928E-009  0.1414101E+03  0.7561462E-02  0.1211444E+00
          2   -1    0    0  501    0  0.00000000000E+00  0.00000000000E+00  0.21005779882E+03  0.21005779882E+03  0.00000000000E+00 0. -1.
         -2   -1    0    0    0  501 -0.00000000000E+00 -0.00000000000E+00 -0.13193015480E+03  0.13193015480E+03  0.00000000000E+00 0.  1.
         25    2    1    2    0    0  0.96041415386E+02  0.25724027752E+02 -0.24170013013E+02  0.16160299535E+03  0.12508261072E+03 0.  0.
          5    1    3    3  502    0  0.39042126784E+02 -0.49984692376E+02  0.59161989496E+00  0.63565553170E+02  0.41800000000E+01 0. -1.
         -5    1    3    3    0  502  0.56999288602E+02  0.75708720128E+02 -0.24761632908E+02  0.98037442179E+02  0.41800000000E+01 0. -1.
        -11    1    1    2    0    0 -0.87207417876E+02 -0.48628707589E+02  0.11536505968E+03  0.15257451271E+03  0.00000000000E+00 0. -1.
         11    1    1    2    0    0 -0.88339975102E+01  0.22904679836E+02 -0.13067402647E+02  0.27810445562E+02  0.00000000000E+00 0.  1.
</event>
<event>
 7    1  0.2522928E-009  0.9020012E+02  0.7561462E-02  0.1302368E+00
          2   -1    0    0  501    0  0.00000000000E+00  0.00000000000E+00  0.26646118569E+02  0.26646118569E+02  0.00000000000E+00 0. -1.
         -2   -1    0    0    0  501 -0.00000000000E+00 -0.00000000000E+00 -0.53013586757E+03  0.53013586757E+03  0.00000000000E+00 0.  1.
         25    2    1    2    0    0  0.44898909535E+02 -0.17660420278E+02 -0.32149875064E+03  0.34833444598E+03  0.12509051549E+03 0.  0.
          5    1    3    3  502    0  0.22536610514E+01 -0.36266922087E+02 -0.28928757966E+03  0.29159071448E+03  0.41800000000E+01 0. -1.
         -5    1    3    3    0  502  0.42645248484E+02  0.18606501809E+02 -0.32211170982E+02  0.56743731494E+02  0.41800000000E+01 0. -1.
        -11    1    1    2    0    0 -0.54025059700E+01 -0.32679912420E+02 -0.93899083691E+02  0.99570084185E+02  0.00000000000E+00 0.  1.
         11    1    1    2    0    0 -0.39496403565E+02  0.50340332699E+02 -0.88091914669E+02  0.10887745598E+03  0.00000000000E+00 0. -1.
</event>
<event>
 7    1  0.2522928E-009  0.1052742E+03  0.7561462E-02  0.1269580E+00
          2   -1    0    0  501    0  0.00000000000E+00  0.00000000000E+00  0.73412658421E+02  0.73412658421E+02  0.00000000000E+00 0. -1.
         -2   -1    0    0    0  501 -0.00000000000E+00 -0.00000000000E+00 -0.16995153153E+03  0.16995153153E+03  0.00000000000E+00 0.  1.
         25    2    1    2    0    0 -0.41169511456E+01  0.26952489566E+02 -0.61362765012E+02  0.14197292759E+03  0.12509011655E+03 0.  0.
          5    1    3    3  502    0 -0.28981002599E+02  0.65042526278E+02 -0.80728538258E+01  0.71784901651E+02  0.41800000000E+01 0. -1.
         -5    1    3    3    0  502  0.24864051453E+02 -0.38090036711E+02 -0.53289911186E+02  0.70188025941E+02  0.41800000000E+01 0. -1.
        -11    1    1    2    0    0 -0.23756750809E+01 -0.59906059605E+02 -0.13616453872E+02  0.61479977436E+02  0.00000000000E+00 0.  1.
         11    1    1    2    0    0  0.64926262265E+01  0.32953570039E+02 -0.21559654223E+02  0.39911284918E+02  0.00000000000E+00 0. -1.
</event>
<event>
 7    1  0.2522928E-009  0.9334022E+02  0.7561462E-02  0.1294959E+00
         -1   -1    0    0    0  501 -0.00000000000E+00  0.00000000000E+00  0.12165023833E+02  0.12165023833E+02  0.00000000000E+00 0.  1.
          1   -1    0    0  501    0  0.00000000000E+00 -0.00000000000E+00 -0.14913193200E+04  0.14913193200E+04  0.00000000000E+00 0. -1.
         25    2    1    2    0    0 -0.53415887736E+01 -0.37979560156E+02 -0.10745382871E+04  0.10824744274E+04  0.12508947226E+03 0.  0.
          5    1    3    3  502    0 -0.28600551910E+02  0.37932460124E+01 -0.59063849430E+02  0.65866463350E+02  0.41800000000E+01 0.  1.
         -5    1    3    3    0  502  0.23258963136E+02 -0.41772806168E+02 -0.10154744376E+04  0.10166079641E+04  0.41800000000E+01 0.  1.
        -11    1    1    2    0    0 -0.12187452373E+01  0.73451080207E+02 -0.33070281828E+03  0.33876378281E+03  0.00000000000E+00 0.  1.
         11    1    1    2    0    0  0.65603340109E+01 -0.35471520051E+02 -0.73913190835E+02  0.82246133626E+02  0.00000000000E+00 0. -1.
</event>
<event>
 7    1  0.2522928E-009  0.2114562E+03  0.7561462E-02  0.1140418E+00
         -2   -1    0    0    0  501 -0.00000000000E+00  0.00000000000E+00  0.29895174547E+02  0.29895174547E+02  0.00000000000E+00 0. -1.
          2   -1    0    0  501    0  0.00000000000E+00 -0.00000000000E+00 -0.17207298406E+04  0.17207298406E+04  0.00000000000E+00 0.  1.
         25    2    1    2    0    0 -0.64885254092E+02 -0.17144091887E+03 -0.11629859625E+04  0.11839706186E+04  0.12509193369E+03 0.  0.
          5    1    3    3  502    0 -0.89310094674E+02 -0.17482551812E+03 -0.10558822347E+04  0.10739855776E+04  0.41800000000E+01 0. -1.
         -5    1    3    3    0  502  0.24424840582E+02  0.33845992478E+01 -0.10710372779E+03  0.10998504105E+03  0.41800000000E+01 0. -1.
        -11    1    1    2    0    0  0.80716303476E+02  0.10073125881E+03 -0.39175313756E+03  0.41247112498E+03  0.00000000000E+00 0.  1.
         11    1    1    2    0    0 -0.15831049383E+02  0.70709660058E+02 -0.13609556599E+03  0.15418327157E+03  0.00000000000E+00 0. -1.
</event>
<event>
 7    1  0.2522928E-009  0.1098121E+03  0.7561462E-02  0.1260918E+00
          4   -1    0    0  501    0  0.00000000000E+00  0.00000000000E+00  0.39881333142E+03  0.39881333142E+03  0.00000000000E+00 0.  1.
         -4   -1    0    0    0  501 -0.00000000000E+00 -0.00000000000E+00 -0.50088970056E+02  0.50088970056E+02  0.00000000000E+00 0. -1.
         25    2    1    2    0    0  0.28511155991E+02  0.73474364344E+02  0.13111092328E+03  0.19760649362E+03  0.12508750493E+03 0.  0.
          5    1    3    3  502    0  0.11715075975E+01  0.75229479922E+02  0.14733987429E+03  0.16549126272E+03  0.41800000000E+01 0. -1.
         -5    1    3    3    0  502  0.27339648393E+02 -0.17551155775E+01 -0.16228951018E+02  0.32115230905E+02  0.41800000000E+01 0. -1.
        -11    1    1    2    0    0  0.13781409065E+02  0.13844653768E+02  0.83577631800E+02  0.85830194052E+02  0.00000000000E+00 0.  1.
         11    1    1    2    0    0 -0.42292565055E+02 -0.87319018112E+02  0.13403580629E+03  0.16546561380E+03  0.00000000000E+00 0. -1.
</event>
<event>
 7    1  0.2522928E-009  0.9575874E+02  0.7561462E-02  0.1289476E+00
         -1   -1    0    0    0  501 -0.00000000000E+00  0.00000000000E+00  0.89921408666E+03  0.89921408666E+03  0.00000000000E+00 0.  1.
          1   -1    0    0  501    0  0.00000000000E+00 -0.00000000000E+00 -0.16716645920E+02  0.16716645920E+02  0.00000000000E+00 0. -1.
         25    2    1    2    0    0 -0.10051425659E+02 -0.41024458680E+02  0.34983486692E+03  0.37392073181E+03  0.12509293423E+03 0.  0.
          5    1    3    3  502    0  0.27172834036E+02 -0.45997982313E+02  0.55420571901E+02  0.77091435816E+02  0.41800000000E+01 0.  1.
         -5    1    3    3    0  502 -0.37224259695E+02  0.49735236331E+01  0.29441429502E+03  0.29682929599E+03  0.41800000000E+01 0.  1.
        -11    1    1    2    0    0  0.33127744433E+02  0.61134611118E+02  0.37990555298E+03  0.38621641254E+03  0.00000000000E+00 0. -1.
         11    1    1    2    0    0 -0.23076318774E+02 -0.20110152438E+02  0.15275702083E+03  0.15579358823E+03  0.00000000000E+00 0.  1.
</event>
<event>
 7    1  0.2522928E-009  0.3560969E+03  0.7561462E-02  0.1060140E+00
          2   -1    0    0  501    0  0.00000000000E+00  0.00000000000E+00  0.51079444754E+03  0.51079444754E+03  0.00000000000E+00 0. -1.
         -2   -1    0    0    0  501 -0.00000000000E+00 -0.00000000000E+00 -0.29540451668E+03  0.29540451668E+03  0.00000000000E+00 0.  1.
         25    2    1    2    0    0 -0.34091241880E+03 -0.90317141044E+02  0.23471106574E+03  0.44171766170E+03  0.12508694985E+03 0.  0.
          5    1    3    3  502    0 -0.32578365355E+03 -0.78052436095E+02  0.17338148189E+03  0.37723438651E+03  0.41800000000E+01 0. -1.
         -5    1    3    3    0  502 -0.15128765252E+02 -0.12264704949E+02  0.61329583846E+02  0.64483275198E+02  0.41800000000E+01 0. -1.
        -11    1    1    2    0    0  0.28684468642E+02 -0.82173460437E+01 -0.21985838836E+02  0.37063467546E+02  0.00000000000E+00 0. -1.
         11    1    1    2    0    0  0.31222795016E+03  0.98534487088E+02  0.26647039602E+01  0.32741783496E+03  0.00000000000E+00 0.  1.
</event>
<event>
 7    1  0.2522928E-009  0.1539361E+03  0.7561462E-02  0.1195718E+00
         -3   -1    0    0    0  501 -0.00000000000E+00  0.00000000000E+00  0.25929311771E+03  0.25929311771E+03  0.00000000000E+00 0.  1.
          3   -1    0    0  501    0  0.00000000000E+00 -0.00000000000E+00 -0.96764718814E+02  0.96764718814E+02  0.00000000000E+00 0. -1.
         25    2    1    2    0    0  0.10496481047E+03  0.41376745918E+02  0.11009910467E+03  0.20124958728E+03  0.12509970820E+03 0.  0.
          5    1    3    3  502    0  0.12833722403E+03  0.97287356268E+01  0.80895080648E+02  0.15207425108E+03  0.41800000000E+01 0. -1.
         -5    1    3    3    0  502 -0.23372413562E+02  0.31648010291E+02  0.29204024019E+02  0.49175336196E+02  0.41800000000E+01 0. -1.
        -11    1    1    2    0    0 -0.93370703154E+02 -0.64626179643E+02  0.23564967447E+02  0.11597387203E+03  0.00000000000E+00 0. -1.
         11    1    1    2    0    0 -0.11594107319E+02  0.23249433726E+02  0.28864326784E+02  0.38834377217E+02  0.00000000000E+00 0.  1.
</event>
<event>
 7    1  0.2522928E-009  0.1224159E+03  0.7561462E-02  0.1239164E+00
          1   -1    0    0  501    0  0.00000000000E+00  0.00000000000E+00  0.36627814220E+03  0.36627814220E+03  0.00000000000E+00 0. -1.
         -1   -1    0    0    0  501 -0.00000000000E+00 -0.00000000000E+00 -0.88192276464E+02  0.88192276464E+02  0.00000000000E+00 0.  1.
         25    2    1    2    0    0 -0.75412003608E+02 -0.95927660463E+02  0.56355406348E+02  0.18361024490E+03  0.12509078254E+03 0.  0.
          5    1    3    3  502    0 -0.23291678149E+02 -0.26032735796E+02  0.84796674726E+02  0.91804978344E+02  0.41800000000E+01 0.  1.
         -5    1    3    3    0  502 -0.52120325459E+02 -0.69894924668E+02 -0.28441268378E+02  0.91805266555E+02  0.41800000000E+01 0.  1.
        -11    1    1    2    0    0  0.57029050213E+02  0.65851250265E+02  0.21878240351E+03  0.23548766383E+03  0.00000000000E+00 0. -1.
         11    1    1    2    0    0  0.18382953395E+02  0.30076410198E+02  0.29480558799E+01  0.35372509939E+02  0.00000000000E+00 0.  1.
</event>
<event>
 7    1  0.2522928E-009  0.9495204E+02  0.7561462E-02  0.1291284E+00
          2   -1    0    0  501    0  0.00000000000E+00  0.00000000000E+00  0.74148503543E+03  0.74148503543E+03  0.00000000000E+00 0. -1.
         -2   -1    0    0    0  501 -0.00000000000E+00 -0.00000000000E+00 -0.20683588006E+02  0.20683588006E+02  0.00000000000E+00 0.  1.
         25    2    1    2    0    0 -0.11847134366E+02  0.48406969048E+02  0.49844240484E+03  0.51630994295E+03  0.12509011552E+03 0.  0.
          5    1    3    3  502    0 -0.58771104706E+02  0.55626857186E+02  0.23465261697E+03  0.24824929615E+03  0.41800000000E+01 0. -1.
         -5    1    3    3    0  502  0.46923970340E+02 -0.72198881371E+01  0.26378978787E+03  0.26806064680E+03  0.41800000000E+01 0. -1.
        -11    1    1    2    0    0  0.13425969510E+02 -0.66104886592E+00 -0.43830090072E+01  0.14138755633E+02  0.00000000000E+00 0.  1.
         11    1    1    2    0    0 -0.15788351443E+01 -0.47745920183E+02  0.22674205160E+03  0.23171992486E+03  0.00000000000E+00 0. -1.
</event>
<event>
 7    1  0.2522928E-009  0.1173931E+03  0.7561462E-02  0.1247461E+00
         -2   -1    0    0    0  501 -0.00000000000E+00  0.00000000000E+00  0.38119677762E+02  0.38119677762E+02  0.00000000000E+00 0.  1.
          2   -1    0    0  501    0  0.00000000000E+00 -0.00000000000E+00 -0.44964351653E+03  0.44964351653E+03  0.00000000000E+00 0. -1.
         25    2    1    2    0    0  0.35549987737E+01 -0.61938614623E+02 -0.15380648025E+03  0.20773581650E+03  0.12509478843E+03 0.  0.
          5    1    3    3  502    0  0.61457230700E+02 -0.12600087843E+02 -0.60246105873E+02  0.87079383851E+02  0.41800000000E+01 0.  1.
         -5    1    3    3    0  502 -0.57902231926E+02 -0.49338526780E+02 -0.93560374373E+02  0.12065643265E+03  0.41800000000E+01 0.  1.
        -11    1    1    2    0    0 -0.16768750922E+02 -0.11996502744E+02 -0.13804344065E+02  0.24812637922E+02  0.00000000000E+00 0.  1.
         11    1    1    2    0    0  0.13213752148E+02  0.73935117367E+02 -0.24391301446E+03  0.25521473987E+03  0.00000000000E+00 0. -1.
</event>
<event>
 7    1  0.2522928E-009  0.2600196E+03  0.7561462E-02  0.1107131E+00
          2   -1    0    0  501    0  0.00000000000E+00  0.00000000000E+00  0.13298058819E+04  0.13298058819E+04  0.00000000000E+00 0. -1.
         -2   -1    0    0    0  501 -0.00000000000E+00 -0.00000000000E+00 -0.59189348796E+02  0.59189348796E+02  0.00000000000E+00 0.  1.
         25    2    1    2    0    0  0.22665210447E+03  0.10355554643E+03  0.48130461276E+03  0.55623432236E+03  0.12509022125E+03 0.  0.
          5    1    3    3  502    0  0.13345833055E+03  0.32413663536E+02  0.14366703590E+03  0.19879502302E+03  0.41800000000E+01 0.  1.
         -5    1    3    3    0  502  0.93193773920E+02  0.71141882893E+02  0.33763757687E+03  0.35743929934E+03  0.41800000000E+01 0.  1.
        -11    1    1    2    0    0 -0.16038263741E+03 -0.11594139724E+03  0.57603574151E+03  0.60908305959E+03  0.00000000000E+00 0.  1.
         11    1    1    2    0    0 -0.66269467059E+02  0.12385850810E+02  0.21327617885E+03  0.22367784877E+03  0.00000000000E+00 0. -1.
</event>
<event>
 7    1  0.2522928E-009  0.2450261E+03  0.7561462E-02  0.1116489E+00
         -1   -1    0    0    0  501 -0.00000000000E+00  0.00000000000E+00  0.68684485958E+03  0.68684485958E+03  0.00000000000E+00 0.  1.
          1   -1    0    0  501    0  0.00000000000E+00 -0.00000000000E+00 -0.10261414382E+03  0.10261414382E+03  0.00000000000E+00 0. -1.
         25    2    1    2    0    0 -0.24196153467E+03  0.86808638050E+01  0.27564063480E+03  0.38761587616E+03  0.12509023241E+03 0.  0.
          5    1    3    3  502    0 -0.21818372127E+03 -0.82472033367E+01  0.28277102385E+03  0.35728010988E+03  0.41800000000E+01 0.  1.
         -5    1    3    3    0  502 -0.23777813400E+02  0.16928067142E+02 -0.71303890560E+01  0.30335766272E+02  0.41800000000E+01 0.  1.
        -11    1    1    2    0    0  0.11458977958E+03 -0.12106256618E+01  0.21491103862E+03  0.24355499937E+03  0.00000000000E+00 0.  1.
         11    1    1    2    0    0  0.12737175508E+03 -0.74702381431E+01  0.93679042346E+02  0.15828812787E+03  0.00000000000E+00 0. -1.
</event>
<event>
 7    1  0.2522928E-009  0.1245798E+03  0.7561462E-02  0.1235727E+00
         -1   -1    0    0    0  501 -0.00000000000E+00  0.00000000000E+00  0.13539168326E+03  0.13539168326E+03  0.00000000000E+00 0.  1.
          1   -1    0    0  501    0  0.00000000000E+00 -0.00000000000E+00 -0.11597211825E+03  0.11597211825E+03  0.00000000000E+00 0. -1.
         25    2    1    2    0    0  0.28408474563E+02 -0.55985020913E+02  0.16547463495E+02  0.14093720874E+03  0.12509242290E+03 0.  0.
          5    1    3    3  502    0  0.57536459003E+02 -0.81487545678E+02  0.20072819025E+02  0.10183837528E+03  0.41800000000E+01 0. -1.
         -5    1    3    3    0  502 -0.29127984440E+02  0.25502524765E+02 -0.35253555298E+01  0.39098833468E+02  0.41800000000E+01 0. -1.
        -11    1    1    2    0    0  0.29802534747E+02  0.40244131275E+02  0.20343406828E+01  0.50119055472E+02  0.00000000000E+00 0. -1.
         11    1    1    2    0    0 -0.58211009310E+02  0.15740889638E+02  0.83776082829E+00  0.60307537296E+02  0.00000000000E+00 0.  1.
</event>
<event>
 7    1  0.2522928E-009  0.2014383E+03  0.7561462E-02  0.1148531E+00
          1   -1    0    0  501    0  0.00000000000E+00  0.00000000000E+00  0.52798870538E+03  0.52798870538E+03  0.00000000000E+00 0. -1.
         -1   -1    0    0    0  501 -0.00000000000E+00 -0.00000000000E+00 -0.12343671441E+03  0.12343671441E+03  0.00000000000E+00 0.  1.
         25    2    1    2    0    0 -0.89916987530E+02  0.16815054371E+03  0.37284029540E+03  0.43705361399E+03  0.12508519349E+03 0.  0.
          5    1    3    3  502    0 -0.57862164206E+02  0.11301701653E+03  0.11482306957E+03  0.17123868073E+03  0.41800000000E+01 0. -1.
         -5    1    3    3    0  502 -0.32054823324E+02  0.55133527175E+02  0.25801722583E+03  0.26581493326E+03  0.41800000000E+01 0. -1.
        -11    1    1    2    0    0 -0.13167787344E+02  0.16656981527E+01  0.34699949965E+01  0.13718820618E+02  0.00000000000E+00 0. -1.
         11    1    1    2    0    0  0.10308477487E+03 -0.16981624186E+03  0.28241700570E+02  0.20065298518E+03  0.00000000000E+00 0.  1.
</event>
<event>
 7    1  0.2522928E-009  0.7767554E+02  0.7561462E-02  0.1335780E+00
         -2   -1    0    0    0  501 -0.00000000000E+00  0.00000000000E+00  0.15453911629E+02  0.15453911629E+02  0.00000000000E+00 0.  1.
          2   -1    0    0  501    0  0.00000000000E+00 -0.00000000000E+00 -0.81400788849E+03  0.81400788849E+03  0.00000000000E+00 0. -1.
         25    2    1    2    0    0  0.49934167278E+01  0.23709745622E+02 -0.51061747200E+03  0.52627478614E+03  0.12509141284E+03 0.  0.
          5    1    3    3  502    0  0.25675527121E+02  0.28695317124E+02 -0.41911071828E+02  0.57067190745E+02  0.41800000000E+01 0. -1.
         -5    1    3    3    0  502 -0.20682110393E+02 -0.49855715018E+01 -0.46870640017E+03  0.46920759539E+03  0.41800000000E+01 0. -1.
        -11    1    1    2    0    0  0.29748352186E+02  0.22376130519E+02 -0.11490385864E+03  0.12078307996E+03  0.00000000000E+00 0.  1.
         11    1    1    2    0    0 -0.34741768914E+02 -0.46085876141E+02 -0.17303264622E+03  0.18240393402E+03  0.00000000000E+00 0. -1.
</event>
<event>
 7    1  0.2522928E-009  0.1216850E+03  0.7561462E-02  0.1240343E+00
         -2   -1    0    0    0  501 -0.00000000000E+00  0.00000000000E+00  0.41054356012E+02  0.41054356012E+02  0.00000000000E+00 0.  1.
          2   -1    0    0  501    0  0.00000000000E+00 -0.00000000000E+00 -0.53649255257E+03  0.53649255257E+03  0.00000000000E+00 0. -1.
         25    2    1    2    0    0  0.69083717877E+01 -0.99167000421E+02 -0.30437130338E+03  0.34376077562E+03  0.12509101070E+03 0.  0.
          5    1    3    3  502    0 -0.50007962128E+01  0.10841947714E+02 -0.16626200177E+03  0.16674256033E+03  0.41800000000E+01 0.  1.
         -5    1    3    3    0  502  0.11909168001E+02 -0.11000894814E+03 -0.13810930162E+03  0.17701821529E+03  0.41800000000E+01 0.  1.
        -11    1    1    2    0    0 -0.10187375414E+02 -0.78878484038E+01 -0.74011881961E+02  0.75124958846E+02  0.00000000000E+00 0. -1.
         11    1    1    2    0    0  0.32790036261E+01  0.10705484882E+03 -0.11705501121E+03  0.15866117411E+03  0.00000000000E+00 0.  1.
</event>
<event>
 7    1  0.2522928E-009  0.6620401E+02  0.7561462E-02  0.1373499E+00
         -2   -1    0    0    0  501 -0.00000000000E+00  0.00000000000E+00  0.39413516698E+03  0.39413516698E+03  0.00000000000E+00 0.  1.
          2   -1    0    0  501    0  0.00000000000E+00 -0.00000000000E+00 -0.37476174675E+02  0.37476174675E+02  0.00000000000E+00 0. -1.
         25    2    1    2    0    0  0.40854957807E+02  0.31849984289E+02  0.16655560326E+03  0.21464328966E+03  0.12508966282E+03 0.  0.
          5    1    3    3  502    0 -0.56056140193E+01  0.12653774406E+02 -0.18132366206E+02  0.23190429480E+02  0.41800000000E+01 0.  1.
         -5    1    3    3    0  502  0.46460571826E+02  0.19196209883E+02  0.18468796946E+03  0.19145286018E+03  0.41800000000E+01 0.  1.
        -11    1    1    2    0    0 -0.19316804339E+01 -0.28362244338E+02  0.63808518226E+01  0.29135263225E+02  0.00000000000E+00 0. -1.
         11    1    1    2    0    0 -0.38923277373E+02 -0.34877399512E+01  0.18372253723E+03  0.18783278877E+03  0.00000000000E+00 0.  1.
</event>
<event>
 7    1  0.2522928E-009  0.1288667E+03  0.7561462E-02  0.1229147E+00
          2   -1    0    0  501    0  0.00000000000E+00  0.00000000000E+00  0.22934585186E+03  0.22934585186E+03  0.00000000000E+00 0. -1.
         -2   -1    0    0    0  501 -0.00000000000E+00 -0.00000000000E+00 -0.78188769612E+02  0.78188769612E+02  0.00000000000E+00 0.  1.
         25    2    1    2    0    0  0.64013640266E+02  0.40898040296E+02  0.65416011244E+02  0.16030337819E+03  0.12509005833E+03 0.  0.
          5    1    3    3  502    0  0.17844723430E+02 -0.42881672203E+02  0.39482877104E+02  0.61103534674E+02  0.41800000000E+01 0.  1.
         -5    1    3    3    0  502  0.46168916835E+02  0.83779712499E+02  0.25933134140E+02  0.99199843520E+02  0.41800000000E+01 0.  1.
        -11    1    1    2    0    0 -0.69686773022E+02 -0.62136568351E+02  0.83279574813E+02  0.12511069915E+03  0.00000000000E+00 0.  1.
         11    1    1    2    0    0  0.56731327566E+01  0.21238528055E+02  0.24614961948E+01  0.22120544133E+02  0.00000000000E+00 0. -1.
</event>
<event>
 7    1  0.2522928E-009  0.1047999E+03  0.7561462E-02  0.1270514E+00
         -2   -1    0    0    0  501 -0.00000000000E+00  0.00000000000E+00  0.51385234747E+02  0.51385234747E+02  0.00000000000E+00 0. -1.
          2   -1    0    0  501    0  0.00000000000E+00 -0.00000000000E+00 -0.38666610658E+03  0.38666610658E+03  0.00000000000E+00 0.  1.
         25    2    1    2    0    0  0.33430577900E+02 -0.67857932340E+02 -0.10677449209E+03  0.18102342537E+03  0.12508551415E+03 0.  0.
          5    1    3    3  502    0  0.57654156533E+02 -0.45911098609E+02 -0.49339312004E+01  0.73984098414E+02  0.41800000000E+01 0.  1.
         -5    1    3    3    0  502 -0.24223578633E+02 -0.21946833731E+02 -0.10184056089E+03  0.10703932696E+03  0.41800000000E+01 0.  1.
        -11    1    1    2    0    0  0.21910148733E+02  0.18639183690E+02 -0.13350579324E+03  0.13656965481E+03  0.00000000000E+00 0.  1.
         11    1    1    2    0    0 -0.55340726633E+02  0.49218748650E+02 -0.95000586501E+02  0.12045826115E+03  0.00000000000E+00 0. -1.
</event>
<event>
 7    1  0.2522928E-009  0.1038657E+03  0.7561462E-02  0.1272371E+00
         -1   -1    0    0    0  501 -0.00000000000E+00  0.00000000000E+00  0.34299566668E+02  0.34299566668E+02  0.00000000000E+00 0.  1.
          1   -1    0    0  501    0  0.00000000000E+00 -0.00000000000E+00 -0.38744736191E+03  0.38744736191E+03  0.00000000000E+00 0. -1.
         25    2    1    2    0    0  0.34505628429E+02  0.11469783626E+02 -0.14865623742E+03  0.19765539875E+03  0.12508711125E+03 0.  0.
          5    1    3    3  502    0 -0.32472418757E+01 -0.54146137153E+02 -0.64645244081E+02  0.84491589704E+02  0.41800000000E+01 0.  1.
         -5    1    3    3    0  502  0.37752870305E+02  0.65615920779E+02 -0.84010993335E+02  0.11316380904E+03  0.41800000000E+01 0.  1.
        -11    1    1    2    0    0 -0.30229053708E+02  0.25954461139E+02 -0.44519562726E+02  0.59744633286E+02  0.00000000000E+00 0.  1.
         11    1    1    2    0    0 -0.42765747210E+01 -0.37424244765E+02 -0.15997199510E+03  0.16434689654E+03  0.00000000000E+00 0. -1.
</event>
<event>
 7    1  0.2522928E-009  0.1643371E+03  0.7561462E-02  0.1183885E+00
         -2   -1    0    0    0  501 -0.00000000000E+00  0.00000000000E+00  0.38050515410E+02  0.38050515410E+02  0.00000000000E+00 0.  1.
          2   -1    0    0  501    0  0.00000000000E+00 -0.00000000000E+00 -0.91242221344E+03  0.91242221344E+03  0.00000000000E+00 0. -1.
         25    2    1    2    0    0  0.10008206697E+03 -0.10565587409E+03 -0.56109024041E+03  0.59299915559E+03  0.12508459850E+03 0.  0.
          5    1    3    3  502    0  0.42800929533E+02  0.28936206397E+01 -0.44263010448E+02  0.61781705247E+02  0.41800000000E+01 0. -1.
         -5    1    3    3    0  502  0.57281137437E+02 -0.10854949473E+03 -0.51682722996E+03  0.53121745034E+03  0.41800000000E+01 0. -1.
        -11    1    1    2    0    0 -0.72599069105E+02  0.11300569530E+03 -0.29364458459E+03  0.32290564267E+03  0.00000000000E+00 0. -1.
         11    1    1    2    0    0 -0.27482997866E+02 -0.73498212124E+01 -0.19636873027E+02  0.34567930597E+02  0.00000000000E+00 0.  1.
</event>
<event>
 7    1  0.2522928E-009  0.3163080E+03  0.7561462E-02  0.1077361E+00
         -3   -1    0    0    0  501 -0.00000000000E+00  0.00000000000E+00  0.13082379728E+03  0.13082379728E+03  0.00000000000E+00 0.  1.
          3   -1    0    0  501    0  0.00000000000E+00 -0.00000000000E+00 -0.88115385065E+03  0.88115385065E+03  0.00000000000E+00 0. -1.
         25    2    1    2    0    0 -0.30395977500E+03  0.49521284289E+02 -0.24273108619E+03  0.41159295471E+03  0.12508588151E+03 0.  0.
          5    1    3    3  502    0 -0.30527200393E+03  0.48213657946E+02 -0.25359620955E+03  0.39980503136E+03  0.41800000000E+01 0.  1.
         -5    1    3    3    0  502  0.13122289344E+01  0.13076263421E+01  0.10865123362E+02  0.11787923358E+02  0.41800000000E+01 0.  1.
        -11    1    1    2    0    0  0.16622011754E+03 -0.68764501377E+02 -0.31630323394E+03  0.36387555555E+03  0.00000000000E+00 0. -1.
         11    1    1    2    0    0  0.13773965746E+03  0.19243217089E+02 -0.19129573325E+03  0.23650913767E+03  0.00000000000E+00 0.  1.
</event>
<event>
 7    1  0.2522928E-009  0.1403940E+03  0.7561462E-02  0.1212800E+00
         -1   -1    0    0    0  501 -0.00000000000E+00  0.00000000000E+00  0.75222001643E+03  0.75222001643E+03  0.00000000000E+00 0.  1.
          1   -1    0    0  501    0  0.00000000000E+00 -0.00000000000E+00 -0.27668065348E+02  0.27668065348E+02  0.00000000000E+00 0. -1.
         25    2    1    2    0    0  0.44697822598E+01 -0.92195211723E+02  0.33738358327E+03  0.37146968050E+03  0.12506840228E+03 0.  0.
          5    1    3    3  502    0  0.64193753295E+02 -0.39606611620E+02  0.15455490304E+03  0.17202968377E+03  0.41800000000E+01 0.  1.
         -5    1    3    3    0  502 -0.59723971036E+02 -0.52588600103E+02  0.18282868023E+03  0.19943999672E+03  0.41800000000E+01 0.  1.
        -11    1    1    2    0    0  0.37628877287E+02  0.21672206084E+02  0.18859683876E+03  0.19353135279E+03  0.00000000000E+00 0.  1.
         11    1    1    2    0    0 -0.42098659547E+02  0.70523005639E+02  0.19857152904E+03  0.21488704849E+03  0.00000000000E+00 0. -1.
</event>
<event>
 7    1  0.2522928E-009  0.1629815E+03  0.7561462E-02  0.1185371E+00
          1   -1    0    0  501    0  0.00000000000E+00  0.00000000000E+00  0.44910009381E+02  0.44910009381E+02  0.00000000000E+00 0. -1.
         -1   -1    0    0    0  501 -0.00000000000E+00 -0.00000000000E+00 -0.86193935709E+03  0.86193935709E+03  0.00000000000E+00 0.  1.
         25    2    1    2    0    0 -0.69913556679E+02 -0.12920327904E+03 -0.57694340781E+03  0.60835207908E+03  0.12508862292E+03 0.  0.
          5    1    3    3  502    0 -0.83922284726E+02 -0.76847545604E+02 -0.50774354592E+03  0.52035514407E+03  0.41800000000E+01 0.  1.
         -5    1    3    3    0  502  0.14008728046E+02 -0.52355733439E+02 -0.69199861891E+02  0.87996935010E+02  0.41800000000E+01 0.  1.
        -11    1    1    2    0    0  0.56542943346E+02  0.44417587692E+02 -0.17969738071E+03  0.19354889607E+03  0.00000000000E+00 0.  1.
         11    1    1    2    0    0  0.13370613333E+02  0.84785691351E+02 -0.60388559194E+02  0.10494839132E+03  0.00000000000E+00 0. -1.
</event>
<event>
 7    1  0.2522928E-009  0.2148107E+03  0.7561462E-02  0.1137812E+00
         -1   -1    0    0    0  501 -0.00000000000E+00  0.00000000000E+00  0.45755183296E+03  0.45755183296E+03  0.00000000000E+00 0.  1.
          1   -1    0    0  501    0  0.00000000000E+00 -0.00000000000E+00 -0.12637021476E+03  0.12637021476E+03  0.00000000000E+00 0. -1.
         25    2    1    2    0    0 -0.93968030877E+02 -0.16758065162E+03  0.45910994302E+02  0.23381408702E+03  0.12509173541E+03 0.  0.
          5    1    3    3  502    0 -0.22477569811E+02  0.17366109823E+02  0.17067410836E+02  0.33400476459E+02  0.41800000000E+01 0.  1.
         -5    1    3    3    0  502 -0.71490461065E+02 -0.18494676144E+03  0.28843583466E+02  0.20041361056E+03  0.41800000000E+01 0.  1.
        -11    1    1    2    0    0  0.28833913427E+02  0.11591230390E+03  0.17870326499E+03  0.21494630417E+03  0.00000000000E+00 0.  1.
         11    1    1    2    0    0  0.65134117450E+02  0.51668347720E+02  0.10656735891E+03  0.13516165653E+03  0.00000000000E+00 0. -1.
</event>
<event>
 7    1  0.2522928E-009  0.1449234E+03  0.7561462E-02  0.1206854E+00
         -1   -1    0    0    0  501 -0.00000000000E+00  0.00000000000E+00  0.34437416047E+02  0.34437416047E+02  0.00000000000E+00 0.  1.
          1   -1    0    0  501    0  0.00000000000E+00 -0.00000000000E+00 -0.78698659200E+03  0.78698659200E+03  0.00000000000E+00 0. -1.
         25    2    1    2    0    0  0.41093603732E+02  0.11628598235E+03 -0.44152225238E+03  0.47518718860E+03  0.12509936410E+03 0.  0.
          5    1    3    3  502    0  0.77611052787E+02  0.58723729992E+02 -0.17749225491E+03  0.20246709592E+03  0.41800000000E+01 0. -1.
         -5    1    3    3    0  502 -0.36517449055E+02  0.57562252359E+02 -0.26402999748E+03  0.27272009268E+03  0.41800000000E+01 0. -1.
        -11    1    1    2    0    0 -0.16708621971E+02 -0.68252263245E+02 -0.69708298006E+02  0.98978766901E+02  0.00000000000E+00 0.  1.
         11    1    1    2    0    0 -0.24384981761E+02 -0.48033719105E+02 -0.24131862557E+03  0.24725805255E+03  0.00000000000E+00 0. -1.
</event>
<event>
 7    1  0.2522928E-009  0.1007145E+03  0.7561462E-02  0.1278801E+00
          2   -1    0    0  501    0  0.00000000000E+00  0.00000000000E+00  0.55442277587E+03  0.55442277587E+03  0.00000000000E+00 0. -1.
         -2   -1    0    0    0  501 -0.00000000000E+00 -0.00000000000E+00 -0.40159654467E+02  0.40159654467E+02  0.00000000000E+00 0.  1.
         25    2    1    2    0    0 -0.53083208956E+02 -0.14023658210E+02  0.45736445351E+03  0.47732690446E+03  0.12507693760E+03 0.  0.
          5    1    3    3  502    0 -0.78597183996E+02 -0.38931577052E+02  0.21378701317E+03  0.23111803137E+03  0.41800000000E+01 0.  1.
         -5    1    3    3    0  502  0.25513975040E+02  0.24907918842E+02  0.24357744034E+03  0.24620887308E+03  0.41800000000E+01 0.  1.
        -11    1    1    2    0    0  0.46706843760E+02  0.33334316747E+02  0.71895747400E+02  0.91987523182E+02  0.00000000000E+00 0. -1.
         11    1    1    2    0    0  0.63763651959E+01 -0.19310658537E+02 -0.14997079512E+02  0.25268002694E+02  0.00000000000E+00 0.  1.
</event>
<event>
 7    1  0.2522928E-009  0.2009319E+03  0.7561462E-02  0.1148955E+00
         -2   -1    0    0    0  501 -0.00000000000E+00  0.00000000000E+00  0.67606035947E+03  0.67606035947E+03  0.00000000000E+00 0. -1.
          2   -1    0    0  501    0  0.00000000000E+00 -0.00000000000E+00 -0.64112888177E+02  0.64112888177E+02  0.00000000000E+00 0.  1.
         25    2    1    2    0    0 -0.11173994776E+03  0.13012890554E+03  0.40031444975E+03  0.45312074274E+03  0.12508957127E+03 0.  0.
          5    1    3    3  502    0 -0.12706497559E+03  0.63464436799E+02  0.24241228208E+03  0.28098830877E+03  0.41800000000E+01 0. -1.
         -5    1    3    3    0  502  0.15325027836E+02  0.66664468742E+02  0.15790216767E+03  0.17213243397E+03  0.41800000000E+01 0. -1.
        -11    1    1    2    0    0 -0.13526425570E+02 -0.57055544825E+01  0.55860829383E+01  0.15707382444E+02  0.00000000000E+00 0.  1.
         11    1    1    2    0    0  0.12526637333E+03 -0.12442335106E+03  0.20604693860E+03  0.27134512245E+03  0.00000000000E+00 0. -1.
</event>
<event>
 7    1  0.2522928E-009  0.1095801E+03  0.7561462E-02  0.1261349E+00
         -1   -1    0    0    0  501 -0.00000000000E+00  0.00000000000E+00  0.36038716958E+03  0.36038716958E+03  0.00000000000E+00 0.  1.
          1   -1    0    0  501    0  0.00000000000E+00 -0.00000000000E+00 -0.41738464258E+02  0.41738464258E+02  0.00000000000E+00 0. -1.
         25    2    1    2    0    0  0.21687002251E+02 -0.24923529603E+02  0.10251240374E+03  0.16506818972E+03  0.12508879223E+03 0.  0.
          5    1    3    3  502    0  0.60182757179E+02  0.24273803371E+02  0.38706264950E+02  0.75675816072E+02  0.41800000000E+01 0.  1.
         -5    1    3    3    0  502 -0.38495754928E+02 -0.49197332974E+02  0.63806138786E+02  0.89392373645E+02  0.41800000000E+01 0.  1.
        -11    1    1    2    0    0  0.81475901546E+01  0.51153616782E+02  0.16080872990E+03  0.16894532651E+03  0.00000000000E+00 0.  1.
         11    1    1    2    0    0 -0.29834592406E+02 -0.26230087179E+02  0.55327571681E+02  0.68112117612E+02  0.00000000000E+00 0. -1.
</event>
<event>
 7    1  0.2522928E-009  0.1155170E+03  0.7561462E-02  0.1250681E+00
         -2   -1    0    0    0  501 -0.00000000000E+00  0.00000000000E+00  0.13712521830E+02  0.13712521830E+02  0.00000000000E+00 0. -1.
          2   -1    0    0  501    0  0.00000000000E+00 -0.00000000000E+00 -0.11390402463E+04  0.11390402463E+04  0.00000000000E+00 0.  1.
         25    2    1    2    0    0  0.56544273270E+02  0.24278873190E+02 -0.60261682955E+03  0.61853174495E+03  0.12509099780E+03 0.  0.
          5    1    3    3  502    0  0.56974161276E+02 -0.31237974869E+02 -0.47304203903E+03  0.47750194682E+03  0.41800000000E+01 0. -1.
         -5    1    3    3    0  502 -0.42988800535E+00  0.55516848058E+02 -0.12957479052E+03  0.14102979812E+03  0.41800000000E+01 0. -1.
        -11    1    1    2    0    0 -0.48573140415E+02 -0.57968348603E+02 -0.35111290577E+03  0.35916563311E+03  0.00000000000E+00 0.  1.
         11    1    1    2    0    0 -0.79711328552E+01  0.33689475413E+02 -0.17159798919E+03  0.17505539011E+03  0.00000000000E+00 0. -1.
</event>
<event>
 7    1  0.2522928E-009  0.1091290E+03  0.7561462E-02  0.1262191E+00
          2   -1    0    0  501    0  0.00000000000E+00  0.00000000000E+00  0.40942010762E+03  0.40942010762E+03  0.00000000000E+00 0.  1.
         -2   -1    0    0    0  501 -0.00000000000E+00 -0.00000000000E+00 -0.48596853402E+02  0.48596853402E+02  0.00000000000E+00 0. -1.
         25    2    1    2    0    0 -0.71216800380E+02  0.22675795741E+02  0.28204883412E+03  0.31746668394E+03  0.12509007241E+03 0.  0.
          5    1    3    3  502    0 -0.88505396982E+01  0.38525531670E+02  0.23321438823E+03  0.23657762346E+03  0.41800000000E+01 0.  1.
         -5    1    3    3    0  502 -0.62366260682E+02 -0.15849735928E+02  0.48834445893E+02  0.80889060485E+02  0.41800000000E+01 0.  1.
        -11    1    1    2    0    0 -0.13502232070E+02  0.15964923834E+02  0.26532809915E+02  0.33781341979E+02  0.00000000000E+00 0.  1.
         11    1    1    2    0    0  0.84719032450E+02 -0.38640719576E+02  0.52241610185E+02  0.10676893510E+03  0.00000000000E+00 0. -1.
</event>
<event>
 7    1  0.2522928E-009  0.9201116E+02  0.7561462E-02  0.1298053E+00
         -3   -1    0    0    0  501 -0.00000000000E+00  0.00000000000E+00  0.76572985319E+02  0.76572985319E+02  0.00000000000E+00 0.  1.
          3   -1    0    0  501    0  0.00000000000E+00 -0.00000000000E+00 -0.19574095479E+03  0.19574095479E+03  0.00000000000E+00 0. -1.
         25    2    1    2    0    0  0.34674882912E+02 -0.43015166072E+02 -0.52010325841E+02  0.14631548811E+03  0.12510194263E+03 0.  0.
          5    1    3    3  502    0  0.24658370611E+02  0.12622849590E+02 -0.78789294846E+02  0.83621749296E+02  0.41800000000E+01 0.  1.
         -5    1    3    3    0  502  0.10016512300E+02 -0.55638015662E+02  0.26778969005E+02  0.62693738814E+02  0.41800000000E+01 0.  1.
        -11    1    1    2    0    0 -0.58208441637E+02  0.10445502188E+02 -0.16612229177E+02  0.61427171122E+02  0.00000000000E+00 0.  1.
         11    1    1    2    0    0  0.23533558726E+02  0.32569663884E+02 -0.50545414455E+02  0.64571280878E+02  0.00000000000E+00 0. -1.
</event>
<event>
 7    1  0.2522928E-009  0.1602780E+03  0.7561462E-02  0.1188383E+00
         -1   -1    0    0    0  501 -0.00000000000E+00  0.00000000000E+00  0.10496379102E+03  0.10496379102E+03  0.00000000000E+00 0.  1.
          1   -1    0    0  501    0  0.00000000000E+00 -0.00000000000E+00 -0.31239058263E+03  0.31239058263E+03  0.00000000000E+00 0. -1.
         25    2    1    2    0    0 -0.13994414715E+03 -0.36095816398E+02 -0.12939817460E+03  0.23081614258E+03  0.12507970181E+03 0.  0.
          5    1    3    3  502    0 -0.57656848176E+02  0.33067244081E+02 -0.56343822313E+01  0.66835420518E+02  0.41800000000E+01 0.  1.
         -5    1    3    3    0  502 -0.82287298971E+02 -0.69163060479E+02 -0.12376379237E+03  0.16398072206E+03  0.41800000000E+01 0.  1.
        -11    1    1    2    0    0  0.10195005572E+03  0.15361941877E+02 -0.69715640166E+01  0.10333637223E+03  0.00000000000E+00 0.  1.
         11    1    1    2    0    0  0.37994091424E+02  0.20733874521E+02 -0.71057052992E+02  0.83201858847E+02  0.00000000000E+00 0. -1.
</event>
<event>
 7    1  0.2522928E-009  0.1656298E+03  0.7561462E-02  0.1182483E+00
         -2   -1    0    0    0  501 -0.00000000000E+00  0.00000000000E+00  0.59714520807E+02  0.59714520807E+02  0.00000000000E+00 0.  1.
          2   -1    0    0  501    0  0.00000000000E+00 -0.00000000000E+00 -0.54162978426E+03  0.54162978426E+03  0.00000000000E+00 0. -1.
         25    2    1    2    0    0 -0.13284720246E+03 -0.46783220579E+02 -0.19700463676E+03  0.27258373048E+03  0.12511600333E+03 0.  0.
          5    1    3    3  502    0 -0.14875774429E+03 -0.15026079619E+02 -0.17651691164E+03  0.23136625089E+03  0.41800000000E+01 0. -1.
         -5    1    3    3    0  502  0.15910541832E+02 -0.31757140960E+02 -0.20487725115E+02  0.41217479589E+02  0.41800000000E+01 0. -1.
        -11    1    1    2    0    0  0.77316020852E+02  0.70447885358E+01 -0.22465450741E+03  0.23769106804E+03  0.00000000000E+00 0. -1.
         11    1    1    2    0    0  0.55531181607E+02  0.39738432043E+02 -0.60256119291E+02  0.91069506554E+02  0.00000000000E+00 0.  1.
</event>
<event>
 7    1  0.2522928E-009  0.2032896E+03  0.7561462E-02  0.1146993E+00
          1   -1    0    0  501    0  0.00000000000E+00  0.00000000000E+00  0.22325797742E+03  0.22325797742E+03  0.00000000000E+00 0. -1.
         -1   -1    0    0    0  501 -0.00000000000E+00 -0.00000000000E+00 -0.29264011698E+03  0.29264011698E+03  0.00000000000E+00 0.  1.
         25    2    1    2    0    0 -0.90661403733E+02  0.16337082008E+03 -0.17197469041E+03  0.28307593381E+03  0.12508866928E+03 0.  0.
          5    1    3    3  502    0 -0.91713141227E+02  0.10195043076E+03 -0.49242430504E+02  0.14576515347E+03  0.41800000000E+01 0. -1.
         -5    1    3    3    0  502  0.10517374937E+01  0.61420389323E+02 -0.12273225990E+03  0.13731078034E+03  0.41800000000E+01 0. -1.
        -11    1    1    2    0    0  0.71801763932E+02 -0.17250902558E+03  0.84244843261E+02  0.20496841422E+03  0.00000000000E+00 0. -1.
         11    1    1    2    0    0  0.18859639801E+02  0.91382055055E+01  0.18347707586E+02  0.27853746372E+02  0.00000000000E+00 0.  1.
</event>
<event>
 7    1  0.2522928E-009  0.1705956E+03  0.7561462E-02  0.1177228E+00
          1   -1    0    0  501    0  0.00000000000E+00  0.00000000000E+00  0.79397231296E+03  0.79397231296E+03  0.00000000000E+00 0. -1.
         -1   -1    0    0    0  501 -0.00000000000E+00 -0.00000000000E+00 -0.40298458919E+02  0.40298458919E+02  0.00000000000E+00 0.  1.
         25    2    1    2    0    0 -0.13530956982E+03 -0.36399185217E+02  0.48790191864E+03  0.52280877518E+03  0.12508857993E+03 0.  0.
          5    1    3    3  502    0  0.22841304808E+02  0.20310429396E+01  0.40824867423E+02  0.47010557759E+02  0.41800000000E+01 0. -1.
         -5    1    3    3    0  502 -0.15815087463E+03 -0.38430228157E+02  0.44707705121E+03  0.47579821742E+03  0.41800000000E+01 0. -1.
        -11    1    1    2    0    0  0.73900622881E+02 -0.14505631021E+02  0.17563217191E+03  0.19109781580E+03  0.00000000000E+00 0. -1.
         11    1    1    2    0    0  0.61408946937E+02  0.50904816238E+02  0.90139763491E+02  0.12036418089E+03  0.00000000000E+00 0.  1.
</event>
<event>
 7    1  0.2522928E-009  0.1326020E+03  0.7561462E-02  0.1223645E+00
          2   -1    0    0  501    0  0.00000000000E+00  0.00000000000E+00  0.41399470567E+03  0.41399470567E+03  0.00000000000E+00 0. -1.
         -2   -1    0    0    0  501 -0.00000000000E+00 -0.00000000000E+00 -0.75055052608E+02  0.75055052608E+02  0.00000000000E+00 0.  1.
         25    2    1    2    0    0 -0.10381377296E+03  0.79297597333E+02  0.11451694414E+03  0.21407109065E+03  0.12508754117E+03 0.  0.
          5    1    3    3  502    0 -0.66042954074E+02  0.54203667905E+02 -0.54877249594E+01  0.85716374879E+02  0.41800000000E+01 0. -1.
         -5    1    3    3    0  502 -0.37770818886E+02  0.25093929428E+02  0.12000466910E+03  0.12835471577E+03  0.41800000000E+01 0. -1.
        -11    1    1    2    0    0  0.13416811566E+02  0.66909181350E+00 -0.61149128614E+01  0.14759765437E+02  0.00000000000E+00 0.  1.
         11    1    1    2    0    0  0.90396961394E+02 -0.79966689147E+02  0.23053762178E+03  0.26021890219E+03  0.00000000000E+00 0. -1.
</event>
<event>
 7    1  0.2522928E-009  0.1064244E+03  0.7561462E-02  0.1267338E+00
          1   -1    0    0  501    0  0.00000000000E+00  0.00000000000E+00  0.32789783361E+02  0.32789783361E+02  0.00000000000E+00 0. -1.
         -1   -1    0    0    0  501 -0.00000000000E+00 -0.00000000000E+00 -0.49277739163E+03  0.49277739163E+03  0.00000000000E+00 0.  1.
         25    2    1    2    0    0  0.49608797191E+01  0.57130203706E+02 -0.32632105650E+03  0.35414832937E+03  0.12508851579E+03 0.  0.
          5    1    3    3  502    0 -0.45249926421E+02 -0.14831293993E+02 -0.87875574926E+02  0.10003555463E+03  0.41800000000E+01 0. -1.
         -5    1    3    3    0  502  0.50210806140E+02  0.71961497700E+02 -0.23844548157E+03  0.25411277474E+03  0.41800000000E+01 0. -1.
        -11    1    1    2    0    0  0.22239416088E+02 -0.14225202670E+02  0.20765591995E+01  0.26481316376E+02  0.00000000000E+00 0. -1.
         11    1    1    2    0    0 -0.27200295807E+02 -0.42905001037E+02 -0.13574311097E+03  0.14493752924E+03  0.00000000000E+00 0.  1.
</event>
<event>
 7    1  0.2522928E-009  0.1086269E+03  0.7561462E-02  0.1263134E+00
          2   -1    0    0  501    0  0.00000000000E+00  0.00000000000E+00  0.77524435870E+03  0.77524435870E+03  0.00000000000E+00 0. -1.
         -2   -1    0    0    0  501 -0.00000000000E+00 -0.00000000000E+00 -0.24935197560E+02  0.24935197560E+02  0.00000000000E+00 0.  1.
         25    2    1    2    0    0 -0.74730815367E+02 -0.38691531607E+02  0.46593813191E+03  0.48972024760E+03  0.12508336724E+03 0.  0.
          5    1    3    3  502    0 -0.13478090221E+02 -0.26598272553E+02  0.13538459439E+02  0.33013471535E+02  0.41800000000E+01 0. -1.
         -5    1    3    3    0  502 -0.61252725145E+02 -0.12093259054E+02  0.45239967247E+03  0.45670677607E+03  0.41800000000E+01 0. -1.
        -11    1    1    2    0    0  0.95549604196E+02  0.40273717424E+02  0.23743051931E+03  0.25908483297E+03  0.00000000000E+00 0.  1.
         11    1    1    2    0    0 -0.20818788830E+02 -0.15821858176E+01  0.46940509917E+02  0.51374475681E+02  0.00000000000E+00 0. -1.
</event>
<event>
 7    1  0.2522928E-009  0.9641424E+02  0.7561462E-02  0.1288022E+00
         -1   -1    0    0    0  501 -0.00000000000E+00  0.00000000000E+00  0.13139313880E+03  0.13139313880E+03  0.00000000000E+00 0.  1.
          1   -1    0    0  501    0  0.00000000000E+00 -0.00000000000E+00 -0.12891027223E+03  0.12891027223E+03  0.00000000000E+00 0. -1.
         25    2    1    2    0    0 -0.16328853923E+02 -0.27596441271E+02  0.48267406651E+02  0.13785739881E+03  0.12508686909E+03 0.  0.
          5    1    3    3  502    0 -0.14143166851E+02  0.23770557426E+02  0.74793380927E+02  0.79853558465E+02  0.41800000000E+01 0. -1.
         -5    1    3    3    0  502 -0.21856870720E+01 -0.51366998698E+02 -0.26525974277E+02  0.58003840343E+02  0.41800000000E+01 0. -1.
        -11    1    1    2    0    0  0.50699528621E+02 -0.20051353671E+02 -0.26431230614E+02  0.60589676829E+02  0.00000000000E+00 0. -1.
         11    1    1    2    0    0 -0.34370674698E+02  0.47647794942E+02 -0.19353309466E+02  0.61856335402E+02  0.00000000000E+00 0.  1.
</event>
<event>
 7    1  0.2522928E-009  0.9831484E+02  0.7561462E-02  0.1283880E+00
         -1   -1    0    0    0  501 -0.00000000000E+00  0.00000000000E+00  0.61794685917E+02  0.61794685917E+02  0.00000000000E+00 0.  1.
          1   -1    0    0  501    0  0.00000000000E+00 -0.00000000000E+00 -0.20243857868E+03  0.20243857868E+03  0.00000000000E+00 0. -1.
         25    2    1    2    0    0  0.10932733129E+02  0.27558372869E+02 -0.97821031696E+02  0.16154404667E+03  0.12509410939E+03 0.  0.
          5    1    3    3  502    0  0.43736803371E+02  0.47480989104E+02 -0.97997190959E+01  0.65428275155E+02  0.41800000000E+01 0.  1.
         -5    1    3    3    0  502 -0.32804070242E+02 -0.19922616235E+02 -0.88021312600E+02  0.96115771515E+02  0.41800000000E+01 0.  1.
        -11    1    1    2    0    0  0.34176490678E+02  0.89179294224E+01 -0.15911031896E+02  0.38739165146E+02  0.00000000000E+00 0.  1.
         11    1    1    2    0    0 -0.45109223807E+02 -0.36476302291E+02 -0.26911829173E+02  0.63950052781E+02  0.00000000000E+00 0. -1.
</event>
<event>
 7    1  0.2522928E-009  0.1060724E+03  0.7561462E-02  0.1268021E+00
          1   -1    0    0  501    0  0.00000000000E+00  0.00000000000E+00  0.36782237528E+03  0.36782237528E+03  0.00000000000E+00 0. -1.
         -1   -1    0    0    0  501 -0.00000000000E+00 -0.00000000000E+00 -0.46150953698E+02  0.46150953698E+02  0.00000000000E+00 0.  1.
         25    2    1    2    0    0  0.10218330032E+02  0.53621360837E+02  0.10003308746E+03  0.16921666967E+03  0.12509195858E+03 0.  0.
          5    1    3    3  502    0 -0.53580194137E+02  0.47188314672E+02  0.44084376511E+02  0.84014754048E+02  0.41800000000E+01 0. -1.
         -5    1    3    3    0  502  0.63798524169E+02  0.64330461656E+01  0.55948710947E+02  0.85201915623E+02  0.41800000000E+01 0. -1.
        -11    1    1    2    0    0 -0.32114236208E+02 -0.27474758699E+02  0.34558529942E+02  0.54593759026E+02  0.00000000000E+00 0.  1.
         11    1    1    2    0    0  0.21895906176E+02 -0.26146602138E+02  0.18707980419E+03  0.19016290028E+03  0.00000000000E+00 0. -1.
</event>
<event>
 7    1  0.2522928E-009  0.2254120E+03  0.7561462E-02  0.1129911E+00
         -2   -1    0    0    0  501 -0.00000000000E+00  0.00000000000E+00  0.73297323912E+02  0.73297323912E+02  0.00000000000E+00 0.  1.
          2   -1    0    0  501    0  0.00000000000E+00 -0.00000000000E+00 -0.71721555480E+03  0.71721555480E+03  0.00000000000E+00 0. -1.
         25    2    1    2    0    0 -0.48550639972E+02 -0.19723100058E+03 -0.36565775460E+03  0.43658908042E+03  0.12508876612E+03 0.  0.
          5    1    3    3  502    0  0.29629236492E+01  0.14915099983E+02 -0.52544298729E+02  0.54859956735E+02  0.41800000000E+01 0. -1.
         -5    1    3    3    0  502 -0.51513563622E+02 -0.21214610056E+03 -0.31311345587E+03  0.38172912369E+03  0.41800000000E+01 0. -1.
        -11    1    1    2    0    0  0.21098688999E+02  0.39294414466E+01 -0.44111167687E+02  0.49054972248E+02  0.00000000000E+00 0.  1.
         11    1    1    2    0    0  0.27451950974E+02  0.19330155913E+03 -0.23414930859E+03  0.30486882604E+03  0.00000000000E+00 0. -1.
</event>
<event>
 7    1  0.2522928E-009  0.1331826E+03  0.7561462E-02  0.1222808E+00
         -1   -1    0    0    0  501 -0.00000000000E+00  0.00000000000E+00  0.34173457797E+02  0.34173457797E+02  0.00000000000E+00 0.  1.
          1   -1    0    0  501    0  0.00000000000E+00 -0.00000000000E+00 -0.55617793218E+03  0.55617793218E+03  0.00000000000E+00 0. -1.
         25    2    1    2    0    0  0.55307311384E+02 -0.57270073972E+02 -0.22291420826E+03  0.26772824794E+03  0.12509560518E+03 0.  0.
          5    1    3    3  502    0 -0.33495508284E+01  0.35334375597E+02 -0.79554996793E+02  0.87213574083E+02  0.41800000000E+01 0.  1.
         -5    1    3    3    0  502  0.58656862212E+02 -0.92604449569E+02 -0.14335921147E+03  0.18051467386E+03  0.41800000000E+01 0.  1.
        -11    1    1    2    0    0  0.18321305062E+02  0.41875650265E+02 -0.11646114203E+03  0.12510970349E+03  0.00000000000E+00 0. -1.
         11    1    1    2    0    0 -0.73628616446E+02  0.15394423707E+02 -0.18262912409E+03  0.19751343855E+03  0.00000000000E+00 0.  1.
</event>
<event>
 7    1  0.2522928E-009  0.1111919E+03  0.7561462E-02  0.1258379E+00
          2   -1    0    0  501    0  0.00000000000E+00  0.00000000000E+00  0.10878102204E+04  0.10878102204E+04  0.00000000000E+00 0. -1.
         -2   -1    0    0    0  501 -0.00000000000E+00 -0.00000000000E+00 -0.25920393569E+02  0.25920393569E+02  0.00000000000E+00 0.  1.
         25    2    1    2    0    0 -0.20490112089E+02 -0.57007025201E+02  0.93483551019E+03  0.94510999958E+03  0.12508331056E+03 0.  0.
          5    1    3    3  502    0  0.15693856504E+02 -0.82483369784E+02  0.41820741999E+03  0.42657323165E+03  0.41800000000E+01 0. -1.
         -5    1    3    3    0  502 -0.36183968592E+02  0.25476344583E+02  0.51662809020E+03  0.51853676794E+03  0.41800000000E+01 0. -1.
        -11    1    1    2    0    0 -0.26387639621E+02  0.12394733103E+02  0.37862652649E+01  0.29398515917E+02  0.00000000000E+00 0.  1.
         11    1    1    2    0    0  0.46877751710E+02  0.44612292098E+02  0.12326805135E+03  0.13922209845E+03  0.00000000000E+00 0. -1.
</event>
<event>
 7    1  0.2522928E-009  0.8846825E+02  0.7561462E-02  0.1306604E+00
         -3   -1    0    0    0  501 -0.00000000000E+00  0.00000000000E+00  0.22853193274E+03  0.22853193274E+03  0.00000000000E+00 0.  1.
          3   -1    0    0  501    0  0.00000000000E+00 -0.00000000000E+00 -0.78293918439E+02  0.78293918439E+02  0.00000000000E+00 0. -1.
         25    2    1    2    0    0 -0.48894654346E+02  0.50344952315E+02  0.42192849732E+02  0.14951059571E+03  0.12509148737E+03 0.  0.
          5    1    3    3  502    0 -0.32692498113E+02  0.25845645726E+02  0.86546776024E+02  0.96148914066E+02  0.41800000000E+01 0. -1.
         -5    1    3    3    0  502 -0.16202156233E+02  0.24499306589E+02 -0.44353926292E+02  0.53361681640E+02  0.41800000000E+01 0. -1.
        -11    1    1    2    0    0  0.21070298021E+02  0.20422500639E+02  0.61547874084E+02  0.68184872188E+02  0.00000000000E+00 0.  1.
         11    1    1    2    0    0  0.27824356325E+02 -0.70767452954E+02  0.46497290489E+02  0.89130383289E+02  0.00000000000E+00 0. -1.
</event>
<event>
 7    1  0.2522928E-009  0.9411870E+02  0.7561462E-02  0.1293173E+00
          2   -1    0    0  501    0  0.00000000000E+00  0.00000000000E+00  0.24266834578E+02  0.24266834578E+02  0.00000000000E+00 0. -1.
         -2   -1    0    0    0  501 -0.00000000000E+00 -0.00000000000E+00 -0.60308475392E+03  0.60308475392E+03  0.00000000000E+00 0.  1.
         25    2    1    2    0    0  0.14808634364E+02  0.42638327120E+02 -0.39096690492E+03  0.41296519887E+03  0.12509121527E+03 0.  0.
          5    1    3    3  502    0  0.38650581583E+02  0.74661185952E+02 -0.18680590686E+03  0.20489528882E+03  0.41800000000E+01 0.  1.
         -5    1    3    3    0  502 -0.23841947219E+02 -0.32022858832E+02 -0.20416099806E+03  0.20806991004E+03  0.41800000000E+01 0.  1.
        -11    1    1    2    0    0  0.10942268025E+02  0.31499683532E+01  0.64654295191E+01  0.13094170803E+02  0.00000000000E+00 0. -1.
         11    1    1    2    0    0 -0.25750902388E+02 -0.45788295473E+02 -0.19431644394E+03  0.20129221883E+03  0.00000000000E+00 0.  1.
</event>
<event>
 7    1  0.2522928E-009  0.1143946E+03  0.7561462E-02  0.1252642E+00
         -2   -1    0    0    0  501 -0.00000000000E+00  0.00000000000E+00  0.31444402993E+02  0.31444402993E+02  0.00000000000E+00 0.  1.
          2   -1    0    0  501    0  0.00000000000E+00 -0.00000000000E+00 -0.14929887217E+04  0.14929887217E+04  0.00000000000E+00 0. -1.
         25    2    1    2    0    0 -0.84031521986E+00  0.40055775627E+02 -0.14009998332E+04  0.14071435787E+04  0.12508935647E+03 0.  0.
          5    1    3    3  502    0 -0.41188010855E+01  0.84119159087E+02 -0.77544974415E+03  0.78002100969E+03  0.41800000000E+01 0.  1.
         -5    1    3    3    0  502  0.32784858657E+01 -0.44063383460E+02 -0.62555008903E+03  0.62712256897E+03  0.41800000000E+01 0.  1.
        -11    1    1    2    0    0 -0.18959451856E+02  0.25401392136E+02 -0.23950216756E+02  0.39727879628E+02  0.00000000000E+00 0.  1.
         11    1    1    2    0    0  0.19799767076E+02 -0.65457167763E+02 -0.36594268762E+02  0.77561666395E+02  0.00000000000E+00 0. -1.
</event>
<event>
 7    1  0.2522928E-009  0.2065801E+03  0.7561462E-02  0.1144303E+00
          1   -1    0    0  501    0  0.00000000000E+00  0.00000000000E+00  0.11969490664E+04  0.11969490664E+04  0.00000000000E+00 0. -1.
         -1   -1    0    0    0  501 -0.00000000000E+00 -0.00000000000E+00 -0.48506590231E+02  0.48506590231E+02  0.00000000000E+00 0.  1.
         25    2    1    2    0    0  0.93596260349E+02  0.17534283551E+03  0.38053473315E+03  0.44716966610E+03  0.12509459315E+03 0.  0.
          5    1    3    3  502    0  0.41975127989E+02  0.10582071640E+03  0.32457315704E+03  0.34398421775E+03  0.41800000000E+01 0. -1.
         -5    1    3    3    0  502  0.51621132360E+02  0.69522119112E+02  0.55961576107E+02  0.10318544836E+03  0.41800000000E+01 0. -1.
        -11    1    1    2    0    0 -0.43899928108E+02 -0.15092215902E+03  0.47927905150E+03  0.50439380545E+03  0.00000000000E+00 0. -1.
         11    1    1    2    0    0 -0.49696332241E+02 -0.24420676488E+02  0.28862869151E+03  0.29389218506E+03  0.00000000000E+00 0.  1.
</event>
<event>
 7    1  0.2522928E-009  0.1227717E+03  0.7561462E-02  0.1238593E+00
         -2   -1    0    0    0  501 -0.00000000000E+00  0.00000000000E+00  0.19829207664E+02  0.19829207664E+02  0.00000000000E+00 0.  1.
          2   -1    0    0  501    0  0.00000000000E+00 -0.00000000000E+00 -0.82082159861E+03  0.82082159861E+03  0.00000000000E+00 0. -1.
         25    2    1    2    0    0 -0.57221827493E+02  0.16844827138E+02 -0.36040644490E+03  0.38613263663E+03  0.12509005477E+03 0.  0.
          5    1    3    3  502    0  0.16607860560E+02  0.50128332807E+02 -0.19270970941E+03  0.19985788772E+03  0.41800000000E+01 0.  1.
         -5    1    3    3    0  502 -0.73829688053E+02 -0.33283505669E+02 -0.16769673549E+03  0.18627474891E+03  0.41800000000E+01 0.  1.
        -11    1    1    2    0    0  0.56551425518E+02  0.30415718843E+02 -0.24038214202E+03  0.24881067879E+03  0.00000000000E+00 0. -1.
         11    1    1    2    0    0  0.67040197528E+00 -0.47260545981E+02 -0.20020380403E+03  0.20570749085E+03  0.00000000000E+00 0.  1.
</event>
<event>
 7    1  0.2522928E-009  0.2998138E+03  0.7561462E-02  0.1085334E+00
          1   -1    0    0  501    0  0.00000000000E+00  0.00000000000E+00  0.80589012606E+02  0.80589012606E+02  0.00000000000E+00 0. -1.
         -1   -1    0    0    0  501 -0.00000000000E+00 -0.00000000000E+00 -0.12108826652E+04  0.12108826652E+04  0.00000000000E+00 0.  1.
         25    2    1    2    0    0  0.45846385344E+02 -0.28899533075E+03 -0.58861312594E+03  0.66912903719E+03  0.12509222256E+03 0.  0.
          5    1    3    3  502    0 -0.47749471697E+01 -0.16691765184E+03 -0.43767565595E+03  0.46846745332E+03  0.41800000000E+01 0. -1.
         -5    1    3    3    0  502  0.50621332514E+02 -0.12207767891E+03 -0.15093746999E+03  0.20066158387E+03  0.41800000000E+01 0. -1.
        -11    1    1    2    0    0  0.17119566718E+02  0.91117855466E+02 -0.11420235703E+03  0.14709765974E+03  0.00000000000E+00 0. -1.
         11    1    1    2    0    0 -0.62965952062E+02  0.19787747528E+03 -0.42747816965E+03  0.47524498090E+03  0.00000000000E+00 0.  1.
</event>
<event>
 7    1  0.2522928E-009  0.1191471E+03  0.7561462E-02  0.1244511E+00
         -2   -1    0    0    0  501 -0.00000000000E+00  0.00000000000E+00  0.99953421670E+02  0.99953421670E+02  0.00000000000E+00 0.  1.
          2   -1    0    0  501    0  0.00000000000E+00 -0.00000000000E+00 -0.16754444527E+03  0.16754444527E+03  0.00000000000E+00 0. -1.
         25    2    1    2    0    0  0.12671515218E+02  0.63664413307E+02 -0.14142124826E+02  0.14163903527E+03  0.12509153368E+03 0.  0.
          5    1    3    3  502    0 -0.29297696868E+01 -0.32657754751E+02  0.19455334377E+02  0.38354855384E+02  0.41800000000E+01 0. -1.
         -5    1    3    3    0  502  0.15601284905E+02  0.96322168058E+02 -0.33597459202E+02  0.10328417989E+03  0.41800000000E+01 0. -1.
        -11    1    1    2    0    0 -0.43708340092E+02 -0.88703632123E+01 -0.21770452960E+01  0.44652456409E+02  0.00000000000E+00 0.  1.
         11    1    1    2    0    0  0.31036824874E+02 -0.54794050095E+02 -0.51271853482E+02  0.81206375264E+02  0.00000000000E+00 0. -1.
</event>
<event>
 7    1  0.2522928E-009  0.6743409E+02  0.7561462E-02  0.1369042E+00
         -2   -1    0    0    0  501 -0.00000000000E+00  0.00000000000E+00  0.37602444172E+02  0.37602444172E+02  0.00000000000E+00 0.  1.
          2   -1    0    0  501    0  0.00000000000E+00 -0.00000000000E+00 -0.45816256539E+03  0.45816256539E+03  0.00000000000E+00 0. -1.
         25    2    1    2    0    0  0.34807589904E+02 -0.60238230654E+01 -0.35314575078E+03  0.37630716694E+03  0.12508919953E+03 0.  0.
          5    1    3    3  502    0  0.18790724665E+02 -0.19204540593E+02 -0.51576576434E+01  0.27676335472E+02  0.41800000000E+01 0.  1.
         -5    1    3    3    0  502  0.16016865239E+02  0.13180717527E+02 -0.34798809314E+03  0.34863083147E+03  0.41800000000E+01 0.  1.
        -11    1    1    2    0    0 -0.99090597851E+01 -0.36181793026E+02 -0.17902711124E+01  0.37556846021E+02  0.00000000000E+00 0.  1.
         11    1    1    2    0    0 -0.24898530119E+02  0.42205616091E+02 -0.65624099327E+02  0.81900996600E+02  0.00000000000E+00 0. -1.
</event>
<event>
 7    1  0.2522928E-009  0.1310009E+03  0.7561462E-02  0.1225978E+00
          2   -1    0    0  501    0  0.00000000000E+00  0.00000000000E+00  0.47584967613E+03  0.47584967613E+03  0.00000000000E+00 0. -1.
         -2   -1    0    0    0  501 -0.00000000000E+00 -0.00000000000E+00 -0.42066225503E+02  0.42066225503E+02  0.00000000000E+00 0.  1.
         25    2    1    2    0    0  0.52784690520E+02  0.67145235478E+02  0.16868788588E+03  0.22671111351E+03  0.12509044706E+03 0.  0.
          5    1    3    3  502    0  0.43018103471E+02 -0.29262916212E+02  0.41056152014E+02  0.66407495884E+02  0.41800000000E+01 0.  1.
         -5    1    3    3    0  502  0.97665870497E+01  0.96408151690E+02  0.12763173386E+03  0.16030361763E+03  0.41800000000E+01 0.  1.
        -11    1    1    2    0    0  0.46760300159E+01 -0.53568023848E+02  0.75949826486E+02  0.93057909814E+02  0.00000000000E+00 0.  1.
         11    1    1    2    0    0 -0.57460720536E+02 -0.13577211630E+02  0.18914573826E+03  0.19814687831E+03  0.00000000000E+00 0. -1.
</event>
<event>
 7    1  0.2522928E-009  0.8092441E+02  0.7561462E-02  0.1326448E+00
         -4   -1    0    0    0  501 -0.00000000000E+00  0.00000000000E+00  0.11009046731E+03  0.11009046731E+03  0.00000000000E+00 0.  1.
          4   -1    0    0  501    0  0.00000000000E+00 -0.00000000000E+00 -0.12541055129E+03  0.12541055129E+03  0.00000000000E+00 0. -1.
         25    2    1    2    0    0 -0.25979290117E+02 -0.37964043283E+02 -0.17405573051E+02  0.13441265928E+03  0.12509043491E+03 0.  0.
          5    1    3    3  502    0  0.24706425110E+01 -0.52938152270E+02 -0.60465996719E+02  0.80511869929E+02  0.41800000000E+01 0.  1.
         -5    1    3    3    0  502 -0.28449932629E+02  0.14974108988E+02  0.43060423668E+02  0.53900789354E+02  0.41800000000E+01 0.  1.
        -11    1    1    2    0    0 -0.17870318364E+02  0.24641037138E+02 -0.31855025916E+02  0.44059864569E+02  0.00000000000E+00 0. -1.
         11    1    1    2    0    0  0.43849608482E+02  0.13323006145E+02  0.33940514987E+02  0.57028494758E+02  0.00000000000E+00 0.  1.
</event>
<event>
 7    1  0.2522928E-009  0.7938942E+02  0.7561462E-02  0.1330793E+00
         -2   -1    0    0    0  501 -0.00000000000E+00  0.00000000000E+00  0.20866644339E+02  0.20866644339E+02  0.00000000000E+00 0.  1.
          2   -1    0    0  501    0  0.00000000000E+00 -0.00000000000E+00 -0.59150508173E+03  0.59150508173E+03  0.00000000000E+00 0. -1.
         25    2    1    2    0    0 -0.21680655508E+02 -0.41913070785E+01 -0.33763598414E+03  0.36073676574E+03  0.12508132750E+03 0.  0.
          5    1    3    3  502    0  0.43384638528E+01  0.24825846872E+02 -0.52914102799E+01  0.26088625190E+02  0.41800000000E+01 0. -1.
         -5    1    3    3    0  502 -0.26019119361E+02 -0.29017153951E+02 -0.33234457386E+03  0.33464814055E+03  0.41800000000E+01 0. -1.
        -11    1    1    2    0    0  0.13805090719E+02 -0.43530664953E+02 -0.13134707592E+03  0.13905953284E+03  0.00000000000E+00 0.  1.
         11    1    1    2    0    0  0.78755647890E+01  0.47721972031E+02 -0.10165537733E+03  0.11257542749E+03  0.00000000000E+00 0. -1.
</event>
<event>
 7    1  0.2522928E-009  0.9545515E+02  0.7561462E-02  0.1290154E+00
          3   -1    0    0  501    0  0.00000000000E+00  0.00000000000E+00  0.13062326858E+03  0.13062326858E+03  0.00000000000E+00 0. -1.
         -3   -1    0    0    0  501 -0.00000000000E+00 -0.00000000000E+00 -0.14499966494E+03  0.14499966494E+03  0.00000000000E+00 0.  1.
         25    2    1    2    0    0  0.34813608367E+02  0.22296116192E+01  0.68006230208E+02  0.14659461490E+03  0.12509266675E+03 0.  0.
          5    1    3    3  502    0  0.52586374820E+02 -0.48211410695E+02  0.57970703903E+02  0.92020333888E+02  0.41800000000E+01 0. -1.
         -5    1    3    3    0  502 -0.17772766453E+02  0.50441022314E+02  0.10035526305E+02  0.54574281009E+02  0.41800000000E+01 0. -1.
        -11    1    1    2    0    0 -0.27760841179E+02  0.25192600463E+02  0.43983847187E+01  0.37744896466E+02  0.00000000000E+00 0. -1.
         11    1    1    2    0    0 -0.70527671873E+01 -0.27422212083E+02 -0.86781011284E+02  0.91283422153E+02  0.00000000000E+00 0.  1.
</event>
<event>
 7    1  0.2522928E-009  0.1083492E+03  0.7561462E-02  0.1263658E+00
          2   -1    0    0  501    0  0.00000000000E+00  0.00000000000E+00  0.88383299139E+03  0.88383299139E+03  0.00000000000E+00 0.  1.
         -2   -1    0    0    0  501 -0.00000000000E+00 -0.00000000000E+00 -0.14625150772E+02  0.14625150772E+02  0.00000000000E+00 0. -1.
         25    2    1    2    0    0  0.24252622009E+02 -0.15251018456E+01  0.57417164116E+03  0.58814233404E+03  0.12509123059E+03 0.  0.
          5    1    3    3  502    0  0.65806793542E+02 -0.33499149878E+02  0.30105039963E+03  0.31000248811E+03  0.41800000000E+01 0.  1.
         -5    1    3    3    0  502 -0.41554171533E+02  0.31974048033E+02  0.27312124153E+03  0.27813984593E+03  0.41800000000E+01 0.  1.
        -11    1    1    2    0    0 -0.14319045532E+02  0.44128411781E+02  0.20540088910E+03  0.21057511019E+03  0.00000000000E+00 0.  1.
         11    1    1    2    0    0 -0.99335764770E+01 -0.42603309935E+02  0.89635310367E+02  0.99740697931E+02  0.00000000000E+00 0. -1.
</event>
<event>
 7    1  0.2522928E-009  0.9977615E+02  0.7561462E-02  0.1280767E+00
          2   -1    0    0  501    0  0.00000000000E+00  0.00000000000E+00  0.44709259230E+02  0.44709259230E+02  0.00000000000E+00 0. -1.
         -2   -1    0    0    0  501 -0.00000000000E+00 -0.00000000000E+00 -0.38852790251E+03  0.38852790251E+03  0.00000000000E+00 0.  1.
         25    2    1    2    0    0  0.18694606505E+02 -0.62634390194E+02 -0.24514545856E+03  0.28286081196E+03  0.12506553458E+03 0.  0.
          5    1    3    3  502    0  0.42653741195E+02 -0.81023003575E+01 -0.20803497575E+03  0.21255825659E+03  0.41800000000E+01 0.  1.
         -5    1    3    3    0  502 -0.23959134690E+02 -0.54532089836E+02 -0.37110482813E+02  0.70302555370E+02  0.41800000000E+01 0.  1.
        -11    1    1    2    0    0 -0.24259663077E+02  0.77046745126E+02 -0.10600668221E+03  0.13327471200E+03  0.00000000000E+00 0.  1.
         11    1    1    2    0    0  0.55650565720E+01 -0.14412354932E+02  0.73334974875E+01  0.17101637779E+02  0.00000000000E+00 0. -1.
</event>
<event>
 7    1  0.2522928E-009  0.1733718E+03  0.7561462E-02  0.1174377E+00
          1   -1    0    0  501    0  0.00000000000E+00  0.00000000000E+00  0.79412370419E+02  0.79412370419E+02  0.00000000000E+00 0. -1.
         -1   -1    0    0    0  501 -0.00000000000E+00 -0.00000000000E+00 -0.38748961313E+03  0.38748961313E+03  0.00000000000E+00 0.  1.
         25    2    1    2    0    0  0.10525829439E+03  0.88428313218E+02 -0.16540402717E+03  0.24880715430E+03  0.12509049809E+03 0.  0.
          5    1    3    3  502    0  0.29033629146E+00  0.76057687531E+02 -0.44726684206E+02  0.88333486333E+02  0.41800000000E+01 0. -1.
         -5    1    3    3    0  502  0.10496795809E+03  0.12370625687E+02 -0.12067734297E+03  0.16047366797E+03  0.41800000000E+01 0. -1.
        -11    1    1    2    0    0 -0.55418343806E+02  0.82455923891E+01 -0.44001261099E+02  0.71241094898E+02  0.00000000000E+00 0. -1.
         11    1    1    2    0    0 -0.49839950580E+02 -0.96673905607E+02 -0.98671954446E+02  0.14685373435E+03  0.00000000000E+00 0.  1.
</event>
<event>
 7    1  0.2522928E-009  0.2788426E+03  0.7561462E-02  0.1096323E+00
         -2   -1    0    0    0  501 -0.00000000000E+00  0.00000000000E+00  0.88003612354E+02  0.88003612354E+02  0.00000000000E+00 0.  1.
          2   -1    0    0  501    0  0.00000000000E+00 -0.00000000000E+00 -0.96821658145E+03  0.96821658145E+03  0.00000000000E+00 0. -1.
         25    2    1    2    0    0  0.98187845025E+01  0.26364825672E+03 -0.56233147263E+03  0.63361784052E+03  0.12509224962E+03 0.  0.
          5    1    3    3  502    0  0.44497473076E+02  0.26873022465E+02 -0.11538964539E+03  0.12662711838E+03  0.41800000000E+01 0.  1.
         -5    1    3    3    0  502 -0.34678688574E+02  0.23677523425E+03 -0.44694182724E+03  0.50699072214E+03  0.41800000000E+01 0.  1.
        -11    1    1    2    0    0  0.13463918043E+02 -0.97826279257E+02 -0.18157208756E+03  0.20668739919E+03  0.00000000000E+00 0.  1.
         11    1    1    2    0    0 -0.23282702546E+02 -0.16582197746E+03 -0.13630940891E+03  0.21591495410E+03  0.00000000000E+00 0. -1.
</event>
<event>
 7    1  0.2522928E-009  0.9318959E+02  0.7561462E-02  0.1295306E+00
         -2   -1    0    0    0  501 -0.00000000000E+00  0.00000000000E+00  0.23944592448E+03  0.23944592448E+03  0.00000000000E+00 0.  1.
          2   -1    0    0  501    0  0.00000000000E+00 -0.00000000000E+00 -0.53727723268E+02  0.53727723268E+02  0.00000000000E+00 0. -1.
         25    2    1    2    0    0  0.27954810653E+02  0.96107356809E+01  0.12522039160E+03  0.17944722927E+03  0.12508926389E+03 0.  0.
          5    1    3    3  502    0  0.29024290143E+02  0.59620095355E+02  0.10719078596E+03  0.12611226024E+03  0.41800000000E+01 0. -1.
         -5    1    3    3    0  502 -0.10694794905E+01 -0.50009359674E+02  0.18029605640E+02  0.53334969025E+02  0.41800000000E+01 0. -1.
        -11    1    1    2    0    0  0.18179080067E+02  0.86428210120E+01 -0.13786274033E+02  0.24397513374E+02  0.00000000000E+00 0. -1.
         11    1    1    2    0    0 -0.46133890719E+02 -0.18253556693E+02  0.74284083648E+02  0.89328905111E+02  0.00000000000E+00 0.  1.
</event>
<event>
 7    1  0.2529514E-009  0.1040725E+03  0.7561462E-02  0.1271958E+00
         -1   -1    0    0    0  501 -0.00000000000E+00  0.00000000000E+00  0.98738948500E+02  0.98738948500E+02  0.00000000000E+00 0.  1.
          1   -1    0    0  501    0  0.00000000000E+00 -0.00000000000E+00 -0.25933034795E+03  0.25933034795E+03  0.00000000000E+00 0. -1.
         25    2    1    2    0    0  0.74171023974E+02  0.67842248084E+02 -0.18775975834E+02  0.16159112929E+03  0.12512091901E+03 0.  0.
          5    1    3    3  502    0  0.41559190783E+02  0.18248130092E+02 -0.69694167037E+02  0.83276106473E+02  0.41800000000E+01 0. -1.
         -5    1    3    3    0  502  0.32611833191E+02  0.49594117992E+02  0.50918191203E+02  0.78315022817E+02  0.41800000000E+01 0. -1.
        -11    1    1    2    0    0 -0.28447466645E+02 -0.41432657405E+02 -0.58233523106E+01  0.50594810903E+02  0.00000000000E+00 0.  1.
         11    1    1    2    0    0 -0.45723557329E+02 -0.26409590679E+02 -0.13599207130E+03  0.14588335625E+03  0.00000000000E+00 0. -1.
</event>
<event>
 7    1  0.2522928E-009  0.1041475E+03  0.7561462E-02  0.1271808E+00
         -2   -1    0    0    0  501 -0.00000000000E+00  0.00000000000E+00  0.15111595266E+02  0.15111595266E+02  0.00000000000E+00 0. -1.
          2   -1    0    0  501    0  0.00000000000E+00 -0.00000000000E+00 -0.92042910651E+03  0.92042910651E+03  0.00000000000E+00 0.  1.
         25    2    1    2    0    0  0.17590085307E+02  0.10056779773E+02 -0.58564563639E+03  0.59919874816E+03  0.12509108064E+03 0.  0.
          5    1    3    3  502    0 -0.48723032405E+02  0.10712040491E+02 -0.37484966779E+03  0.37817777240E+03  0.41800000000E+01 0. -1.
         -5    1    3    3    0  502  0.66313117712E+02 -0.65526071822E+00 -0.21079596860E+03  0.22102097576E+03  0.41800000000E+01 0. -1.
        -11    1    1    2    0    0 -0.37156964228E+02  0.29638470168E+02 -0.83680099332E+02  0.96236364898E+02  0.00000000000E+00 0. -1.
         11    1    1    2    0    0  0.19566878920E+02 -0.39695249940E+02 -0.23599177552E+03  0.24010558872E+03  0.00000000000E+00 0.  1.
</event>
<event>
 7    1  0.2522928E-009  0.7765217E+02  0.7561462E-02  0.1335849E+00
          2   -1    0    0  501    0  0.00000000000E+00  0.00000000000E+00  0.27999813882E+02  0.27999813882E+02  0.00000000000E+00 0.  1.
         -2   -1    0    0    0  501 -0.00000000000E+00 -0.00000000000E+00 -0.46260624351E+03  0.46260624351E+03  0.00000000000E+00 0. -1.
         25    2    1    2    0    0  0.34532094281E+01  0.26139574094E+02 -0.25912189040E+03  0.28894270199E+03  0.12509408043E+03 0.  0.
          5    1    3    3  502    0 -0.34037582997E+02  0.18388517735E+02 -0.24477070600E+03  0.24784443822E+03  0.41800000000E+01 0. -1.
         -5    1    3    3    0  502  0.37490792425E+02  0.77510563593E+01 -0.14351184405E+02  0.41098263773E+02  0.41800000000E+01 0. -1.
        -11    1    1    2    0    0  0.25519031239E+02 -0.38656776012E+02 -0.15988202111E+03  0.16645668494E+03  0.00000000000E+00 0. -1.
         11    1    1    2    0    0 -0.28972240668E+02  0.12517201918E+02 -0.15602518107E+02  0.35206670454E+02  0.00000000000E+00 0.  1.
</event>
<event>
 7    1  0.2522928E-009  0.9223312E+02  0.7561462E-02  0.1297532E+00
          2   -1    0    0  501    0  0.00000000000E+00  0.00000000000E+00  0.79964396905E+02  0.79964396905E+02  0.00000000000E+00 0. -1.
         -2   -1    0    0    0  501 -0.00000000000E+00 -0.00000000000E+00 -0.29361165262E+03  0.29361165262E+03  0.00000000000E+00 0.  1.
         25    2    1    2    0    0  0.27466860463E+02 -0.51994113945E+02 -0.22459552177E+03  0.26372241590E+03  0.12509415631E+03 0.  0.
          5    1    3    3  502    0  0.58211850758E+02 -0.55775118743E+02 -0.21703681636E+03  0.23156410667E+03  0.41800000000E+01 0.  1.
         -5    1    3    3    0  502 -0.30744990295E+02  0.37810047982E+01 -0.75587054045E+01  0.32158309236E+02  0.41800000000E+01 0.  1.
        -11    1    1    2    0    0  0.51485807664E+01  0.35612856171E+02  0.46571016089E+02  0.58852722521E+02  0.00000000000E+00 0. -1.
         11    1    1    2    0    0 -0.32615441229E+02  0.16381257774E+02 -0.35622750035E+02  0.51000911099E+02  0.00000000000E+00 0.  1.
</event>
<event>
 7    1  0.2522928E-009  0.1519751E+03  0.7561462E-02  0.1198067E+00
          1   -1    0    0  501    0  0.00000000000E+00  0.00000000000E+00  0.49886515747E+03  0.49886515747E+03  0.00000000000E+00 0. -1.
         -1   -1    0    0    0  501 -0.00000000000E+00 -0.00000000000E+00 -0.64445904247E+02  0.64445904247E+02  0.00000000000E+00 0.  1.
         25    2    1    2    0    0 -0.10843383326E+03 -0.63275956576E+02  0.12268237593E+03  0.21554466387E+03  0.12508714516E+03 0.  0.
          5    1    3    3  502    0  0.24808009532E+02  0.52583336332E+01  0.29156722704E+02  0.38867393640E+02  0.41800000000E+01 0.  1.
         -5    1    3    3    0  502 -0.13324184279E+03 -0.68534290209E+02  0.93525653221E+02  0.17667727023E+03  0.41800000000E+01 0.  1.
        -11    1    1    2    0    0  0.16799412076E+02 -0.34222702442E+00  0.14048873706E+00  0.16803484832E+02  0.00000000000E+00 0.  1.
         11    1    1    2    0    0  0.91634421181E+02  0.63618183601E+02  0.31159638856E+03  0.33096291302E+03  0.00000000000E+00 0. -1.
</event>
<event>
 7    1  0.2522928E-009  0.9976793E+02  0.7561462E-02  0.1280785E+00
          2   -1    0    0  501    0  0.00000000000E+00  0.00000000000E+00  0.10309488239E+03  0.10309488239E+03  0.00000000000E+00 0.  1.
         -2   -1    0    0    0  501 -0.00000000000E+00 -0.00000000000E+00 -0.13727084545E+03  0.13727084545E+03  0.00000000000E+00 0. -1.
         25    2    1    2    0    0 -0.22206221145E+02 -0.48935092284E+02 -0.28868643874E+02  0.13917919168E+03  0.12509871815E+03 0.  0.
          5    1    3    3  502    0  0.32614423465E+02 -0.24333765380E+02  0.33204277085E+02  0.52686138331E+02  0.41800000000E+01 0. -1.
         -5    1    3    3    0  502 -0.54820644610E+02 -0.24601326905E+02 -0.62072920959E+02  0.86493053347E+02  0.41800000000E+01 0. -1.
        -11    1    1    2    0    0 -0.22693102687E+02  0.48443025520E+02  0.85963397494E+01  0.54181183894E+02  0.00000000000E+00 0.  1.
         11    1    1    2    0    0  0.44899323832E+02  0.49206676434E+00 -0.13903658929E+02  0.47005352268E+02  0.00000000000E+00 0. -1.
</event>
<event>
 7    1  0.2522928E-009  0.1201468E+03  0.7561462E-02  0.1242855E+00
         -3   -1    0    0    0  501 -0.00000000000E+00  0.00000000000E+00  0.13942963791E+03  0.13942963791E+03  0.00000000000E+00 0.  1.
          3   -1    0    0  501    0  0.00000000000E+00 -0.00000000000E+00 -0.11908834124E+03  0.11908834124E+03  0.00000000000E+00 0. -1.
         25    2    1    2    0    0 -0.34952580995E+02 -0.44725391013E+02 -0.28801867825E+02  0.14039483852E+03  0.12513640387E+03 0.  0.
          5    1    3    3  502    0 -0.28036366404E+02  0.39319664766E+02  0.64483940250E+01  0.48899162201E+02  0.41800000000E+01 0.  1.
         -5    1    3    3    0  502 -0.69162145907E+01 -0.84045055779E+02 -0.35250261850E+02  0.91495676322E+02  0.41800000000E+01 0.  1.
        -11    1    1    2    0    0 -0.25436820470E+02  0.39223243539E+02  0.20096762336E+02  0.50885897121E+02  0.00000000000E+00 0.  1.
         11    1    1    2    0    0  0.60389401465E+02  0.55021474735E+01  0.29046402157E+02  0.67237243507E+02  0.00000000000E+00 0. -1.
</event>
<event>
 7    1  0.2522928E-009  0.1011971E+03  0.7561462E-02  0.1277799E+00
         -2   -1    0    0    0  501 -0.00000000000E+00  0.00000000000E+00  0.22394705954E+02  0.22394705954E+02  0.00000000000E+00 0. -1.
          2   -1    0    0  501    0  0.00000000000E+00 -0.00000000000E+00 -0.54982748805E+03  0.54982748805E+03  0.00000000000E+00 0.  1.
         25    2    1    2    0    0  0.19201888252E+02  0.21040767845E+02 -0.30382338300E+03  0.32979751573E+03  0.12508527852E+03 0.  0.
          5    1    3    3  502    0  0.30475019960E+02 -0.37790504817E+02 -0.22762877912E+03  0.23278570098E+03  0.41800000000E+01 0.  1.
         -5    1    3    3    0  502 -0.11273131708E+02  0.58831272663E+02 -0.76194603877E+02  0.97011814752E+02  0.41800000000E+01 0.  1.
        -11    1    1    2    0    0 -0.48454385804E+01  0.35222304153E+02 -0.87407938321E+02  0.94362262936E+02  0.00000000000E+00 0.  1.
         11    1    1    2    0    0 -0.14356449672E+02 -0.56263071998E+02 -0.13620146078E+03  0.14806241534E+03  0.00000000000E+00 0. -1.
</event>
<event>
 7    1  0.2522928E-009  0.1323837E+03  0.7561462E-02  0.1223961E+00
         -1   -1    0    0    0  501 -0.00000000000E+00  0.00000000000E+00  0.48176946366E+03  0.48176946366E+03  0.00000000000E+00 0.  1.
          1   -1    0    0  501    0  0.00000000000E+00 -0.00000000000E+00 -0.40452957894E+02  0.40452957894E+02  0.00000000000E+00 0. -1.
         25    2    1    2    0    0 -0.86054762483E+02  0.10897678682E+02  0.26092367391E+03  0.30208041528E+03  0.12508889696E+03 0.  0.
          5    1    3    3  502    0  0.87970676357E+01 -0.41878491468E+02  0.86514639215E+02  0.96609790628E+02  0.41800000000E+01 0.  1.
         -5    1    3    3    0  502 -0.94851830119E+02  0.52776170150E+02  0.17440903469E+03  0.20547062465E+03  0.41800000000E+01 0.  1.
        -11    1    1    2    0    0 -0.79265287213E+01  0.13851832953E+02  0.75413402311E+02  0.77083619413E+02  0.00000000000E+00 0.  1.
         11    1    1    2    0    0  0.93981291205E+02 -0.24749511635E+02  0.10497942954E+03  0.14305838686E+03  0.00000000000E+00 0. -1.
</event>
<event>
 7    1  0.2522928E-009  0.1100084E+03  0.7561462E-02  0.1260554E+00
          1   -1    0    0  501    0  0.00000000000E+00  0.00000000000E+00  0.29954198465E+03  0.29954198465E+03  0.00000000000E+00 0. -1.
         -1   -1    0    0    0  501 -0.00000000000E+00 -0.00000000000E+00 -0.56863208132E+02  0.56863208132E+02  0.00000000000E+00 0.  1.
         25    2    1    2    0    0 -0.21936090440E+02 -0.20067285964E+01  0.21396327437E+03  0.24882293264E+03  0.12508936807E+03 0.  0.
          5    1    3    3  502    0  0.49215977322E+02 -0.12338526823E+01  0.51281930813E+02  0.71211260655E+02  0.41800000000E+01 0. -1.
         -5    1    3    3    0  502 -0.71152067761E+02 -0.77287591405E+00  0.16268134356E+03  0.17761167199E+03  0.41800000000E+01 0. -1.
        -11    1    1    2    0    0  0.39507764912E+01 -0.46979746638E+02  0.29088474663E+02  0.55397153241E+02  0.00000000000E+00 0. -1.
         11    1    1    2    0    0  0.17985313948E+02  0.48986475234E+02 -0.37297251407E+00  0.52185106900E+02  0.00000000000E+00 0.  1.
</event>
<event>
 7    1  0.2522928E-009  0.8450703E+02  0.7561462E-02  0.1316727E+00
         -4   -1    0    0    0  501 -0.00000000000E+00  0.00000000000E+00  0.24992406081E+03  0.24992406081E+03  0.00000000000E+00 0.  1.
          4   -1    0    0  501    0  0.00000000000E+00 -0.00000000000E+00 -0.50060497764E+02  0.50060497764E+02  0.00000000000E+00 0. -1.
         25    2    1    2    0    0 -0.32389555963E+02 -0.69476657851E+01  0.13088920730E+03  0.18405648917E+03  0.12508978064E+03 0.  0.
          5    1    3    3  502    0 -0.53892736413E+02 -0.19052711168E+02  0.70879142184E+01  0.57750703622E+02  0.41800000000E+01 0.  1.
         -5    1    3    3    0  502  0.21503180449E+02  0.12105045383E+02  0.12380129308E+03  0.12630578555E+03  0.41800000000E+01 0.  1.
        -11    1    1    2    0    0  0.54970812811E+02 -0.13061543856E+02  0.23142847129E+02  0.61057231859E+02  0.00000000000E+00 0. -1.
         11    1    1    2    0    0 -0.22581256847E+02  0.20009209642E+02  0.45831508614E+02  0.54870837547E+02  0.00000000000E+00 0.  1.
</event>
<event>
 7    1  0.2522928E-009  0.7397495E+02  0.7561462E-02  0.1347075E+00
          1   -1    0    0  501    0  0.00000000000E+00  0.00000000000E+00  0.14234882369E+03  0.14234882369E+03  0.00000000000E+00 0. -1.
         -1   -1    0    0    0  501 -0.00000000000E+00 -0.00000000000E+00 -0.99238694687E+02  0.99238694687E+02  0.00000000000E+00 0.  1.
         25    2    1    2    0    0 -0.26107318911E+02 -0.34713019165E+02  0.96420920412E+00  0.13242544179E+03  0.12509589175E+03 0.  0.
          5    1    3    3  502    0 -0.23354405657E+02 -0.16474467882E+02 -0.61078563277E+02  0.67564041084E+02  0.41800000000E+01 0.  1.
         -5    1    3    3    0  502 -0.27529132545E+01 -0.18238551283E+02  0.62042772482E+02  0.64861400706E+02  0.41800000000E+01 0.  1.
        -11    1    1    2    0    0  0.40055516322E+02 -0.19232220211E+02  0.24360769724E+02  0.50673166308E+02  0.00000000000E+00 0.  1.
         11    1    1    2    0    0 -0.13948197411E+02  0.53945239376E+02  0.17785150074E+02  0.58488910278E+02  0.00000000000E+00 0. -1.
</event>
<event>
 7    1  0.2522928E-009  0.1089817E+03  0.7561462E-02  0.1262467E+00
         -1   -1    0    0    0  501 -0.00000000000E+00  0.00000000000E+00  0.10442518784E+04  0.10442518784E+04  0.00000000000E+00 0.  1.
          1   -1    0    0  501    0  0.00000000000E+00 -0.00000000000E+00 -0.11578919445E+02  0.11578919445E+02  0.00000000000E+00 0. -1.
         25    2    1    2    0    0 -0.15000599920E+02  0.99290749826E+00  0.56240617865E+03  0.57634644458E+03  0.12509400681E+03 0.  0.
          5    1    3    3  502    0 -0.44315569974E+02  0.51112982595E+02  0.30092497835E+03  0.30846348524E+03  0.41800000000E+01 0. -1.
         -5    1    3    3    0  502  0.29314970054E+02 -0.50120075097E+02  0.26148120030E+03  0.26788295934E+03  0.41800000000E+01 0. -1.
        -11    1    1    2    0    0  0.43945632425E+02  0.27104295889E+02  0.30676537441E+03  0.31108014466E+03  0.00000000000E+00 0.  1.
         11    1    1    2    0    0 -0.28945032505E+02 -0.28097203388E+02  0.16350140593E+03  0.16840420863E+03  0.00000000000E+00 0. -1.
</event>
<event>
 7    1  0.2522928E-009  0.1005832E+03  0.7561462E-02  0.1279074E+00
         -3   -1    0    0    0  501 -0.00000000000E+00  0.00000000000E+00  0.15954660281E+03  0.15954660281E+03  0.00000000000E+00 0.  1.
          3   -1    0    0  501    0  0.00000000000E+00 -0.00000000000E+00 -0.93455962173E+02  0.93455962173E+02  0.00000000000E+00 0. -1.
         25    2    1    2    0    0  0.61662758086E+01 -0.40426175119E+01 -0.21849833738E+02  0.12719530854E+03  0.12508743169E+03 0.  0.
          5    1    3    3  502    0  0.59502121013E+02 -0.25704252816E+02 -0.24493935839E+02  0.69416397997E+02  0.41800000000E+01 0. -1.
         -5    1    3    3    0  502 -0.53335845205E+02  0.21661635305E+02  0.26441021015E+01  0.57778910544E+02  0.41800000000E+01 0. -1.
        -11    1    1    2    0    0 -0.21356035854E+01  0.41132756641E+02  0.14918950492E+02  0.43806843704E+02  0.00000000000E+00 0. -1.
         11    1    1    2    0    0 -0.40306722232E+01 -0.37090139129E+02  0.73021523884E+02  0.82000412739E+02  0.00000000000E+00 0.  1.
</event>
<event>
 7    1  0.2522928E-009  0.1130329E+03  0.7561462E-02  0.1255054E+00
          1   -1    0    0  501    0  0.00000000000E+00  0.00000000000E+00  0.15348489399E+03  0.15348489399E+03  0.00000000000E+00 0. -1.
         -1   -1    0    0    0  501 -0.00000000000E+00 -0.00000000000E+00 -0.12718231943E+03  0.12718231943E+03  0.00000000000E+00 0.  1.
         25    2    1    2    0    0 -0.83791754945E+02 -0.18288514477E+02 -0.11834335266E+00  0.15167108395E+03  0.12509426743E+03 0.  0.
          5    1    3    3  502    0 -0.76890503851E+02  0.63984557494E+01 -0.52353634407E+02  0.93335230509E+02  0.41800000000E+01 0. -1.
         -5    1    3    3    0  502 -0.69012510932E+01 -0.24686970227E+02  0.52235291054E+02  0.58335853445E+02  0.41800000000E+01 0. -1.
        -11    1    1    2    0    0  0.75244476257E+02 -0.24544825683E+02  0.24757862556E+01  0.79185283939E+02  0.00000000000E+00 0. -1.
         11    1    1    2    0    0  0.85472786879E+01  0.42833340160E+02  0.23945131654E+02  0.49810845527E+02  0.00000000000E+00 0.  1.
</event>
<event>
 7    1  0.2522928E-009  0.9307054E+02  0.7561462E-02  0.1295582E+00
         -1   -1    0    0    0  501 -0.00000000000E+00  0.00000000000E+00  0.75151948499E+02  0.75151948499E+02  0.00000000000E+00 0.  1.
          1   -1    0    0  501    0  0.00000000000E+00 -0.00000000000E+00 -0.26408121515E+03  0.26408121515E+03  0.00000000000E+00 0. -1.
         25    2    1    2    0    0  0.48591359047E+02  0.15689923507E+02 -0.19127144988E+03  0.23417812115E+03  0.12508929216E+03 0.  0.
          5    1    3    3  502    0  0.72814527804E+02  0.49797267802E+02 -0.98309131738E+02  0.13215097852E+03  0.41800000000E+01 0.  1.
         -5    1    3    3    0  502 -0.24223168757E+02 -0.34107344295E+02 -0.92962318145E+02  0.10202714264E+03  0.41800000000E+01 0.  1.
        -11    1    1    2    0    0 -0.14882520527E+02 -0.16299129845E+02  0.45333328040E+02  0.50420845710E+02  0.00000000000E+00 0.  1.
         11    1    1    2    0    0 -0.33708838520E+02  0.60920633755E+00 -0.42991144811E+02  0.54634196790E+02  0.00000000000E+00 0. -1.
</event>
<event>
 7    1  0.2522928E-009  0.8266496E+02  0.7561462E-02  0.1321654E+00
          2   -1    0    0  501    0  0.00000000000E+00  0.00000000000E+00  0.10576746607E+04  0.10576746607E+04  0.00000000000E+00 0. -1.
         -2   -1    0    0    0  501 -0.00000000000E+00 -0.00000000000E+00 -0.22152255413E+02  0.22152255413E+02  0.00000000000E+00 0.  1.
         25    2    1    2    0    0 -0.40093967740E+02  0.61305378728E+00  0.91220335394E+03  0.92161310909E+03  0.12509141386E+03 0.  0.
          5    1    3    3  502    0 -0.12314464496E+02 -0.44890637582E+02  0.73578413808E+03  0.73726697039E+03  0.41800000000E+01 0.  1.
         -5    1    3    3    0  502 -0.27779503244E+02  0.45503691369E+02  0.17641921586E+03  0.18434613870E+03  0.41800000000E+01 0.  1.
        -11    1    1    2    0    0  0.17552750072E+02  0.25286649826E+02  0.60589594600E+00  0.30787672929E+02  0.00000000000E+00 0.  1.
         11    1    1    2    0    0  0.22541217668E+02 -0.25899703613E+02  0.12271315537E+03  0.12742613406E+03  0.00000000000E+00 0. -1.
</event>
<event>
 7    1  0.2522928E-009  0.1029680E+03  0.7561462E-02  0.1274176E+00
         -1   -1    0    0    0  501 -0.00000000000E+00  0.00000000000E+00  0.19588881235E+03  0.19588881235E+03  0.00000000000E+00 0.  1.
          1   -1    0    0  501    0  0.00000000000E+00 -0.00000000000E+00 -0.66663014485E+02  0.66663014485E+02  0.00000000000E+00 0. -1.
         25    2    1    2    0    0  0.11655931541E+02 -0.10049648656E+02  0.10667984720E+03  0.16513292826E+03  0.12510570738E+03 0.  0.
          5    1    3    3  502    0 -0.50333659378E+02 -0.25583406452E+02  0.74174997140E+02  0.93313399642E+02  0.41800000000E+01 0.  1.
         -5    1    3    3    0  502  0.61989590919E+02  0.15533757796E+02  0.32504850065E+02  0.71819528621E+02  0.41800000000E+01 0.  1.
        -11    1    1    2    0    0 -0.13967976475E+02  0.46602414744E+02 -0.85216109792E+01  0.49391368481E+02  0.00000000000E+00 0. -1.
         11    1    1    2    0    0  0.23120449348E+01 -0.36552766088E+02  0.31067561639E+02  0.48027530091E+02  0.00000000000E+00 0.  1.
</event>
<event>
 7    1  0.2522928E-009  0.1286873E+03  0.7561462E-02  0.1229417E+00
          2   -1    0    0  501    0  0.00000000000E+00  0.00000000000E+00  0.13660408467E+04  0.13660408467E+04  0.00000000000E+00 0.  1.
         -2   -1    0    0    0  501 -0.00000000000E+00 -0.00000000000E+00 -0.20321916776E+02  0.20321916776E+02  0.00000000000E+00 0. -1.
         25    2    1    2    0    0 -0.66246254970E+02 -0.72205993225E+02  0.10248748250E+04  0.10371204229E+04  0.12509233795E+03 0.  0.
          5    1    3    3  502    0  0.73737207245E+00 -0.54971825401E+02  0.15543994566E+03  0.16492875557E+03  0.41800000000E+01 0. -1.
         -5    1    3    3    0  502 -0.66983627042E+02 -0.17234167824E+02  0.86943487930E+03  0.87219166734E+03  0.41800000000E+01 0. -1.
        -11    1    1    2    0    0  0.59841048206E+02 -0.61641009974E+00  0.99194534740E+02  0.11584855085E+03  0.00000000000E+00 0.  1.
         11    1    1    2    0    0  0.64052067637E+01  0.72822403325E+02  0.22164957021E+03  0.23339378971E+03  0.00000000000E+00 0. -1.
</event>
<event>
 7    1  0.2522928E-009  0.1953186E+03  0.7561462E-02  0.1153750E+00
          2   -1    0    0  501    0  0.00000000000E+00  0.00000000000E+00  0.16574625205E+04  0.16574625205E+04  0.00000000000E+00 0. -1.
         -2   -1    0    0    0  501 -0.00000000000E+00 -0.00000000000E+00 -0.27892935657E+02  0.27892935657E+02  0.00000000000E+00 0.  1.
         25    2    1    2    0    0 -0.12224768574E+03  0.14145800790E+03  0.78161112588E+03  0.81333760155E+03  0.12508891769E+03 0.  0.
          5    1    3    3  502    0 -0.80801178661E+02  0.89264885814E+02  0.68729354839E+03  0.69777284583E+03  0.41800000000E+01 0. -1.
         -5    1    3    3    0  502 -0.41446507083E+02  0.52193122081E+02  0.94317577485E+02  0.11556475572E+03  0.41800000000E+01 0. -1.
        -11    1    1    2    0    0 -0.69198659274E+01 -0.35922605404E+02  0.14579838963E+03  0.15031795815E+03  0.00000000000E+00 0.  1.
         11    1    1    2    0    0  0.12916755167E+03 -0.10553540249E+03  0.70216006937E+03  0.72169989650E+03  0.00000000000E+00 0. -1.
</event>
<event>
 7    1  0.2522928E-009  0.8926792E+02  0.7561462E-02  0.1304634E+00
          1   -1    0    0  501    0  0.00000000000E+00  0.00000000000E+00  0.53377533151E+02  0.53377533151E+02  0.00000000000E+00 0. -1.
         -1   -1    0    0    0  501 -0.00000000000E+00 -0.00000000000E+00 -0.30098698273E+03  0.30098698273E+03  0.00000000000E+00 0.  1.
         25    2    1    2    0    0  0.19169967376E+01  0.54843902572E+02 -0.18890433726E+03  0.23312304222E+03  0.12509986271E+03 0.  0.
          5    1    3    3  502    0  0.36137499156E+02  0.47801973157E+02 -0.24298557739E+02  0.64798455160E+02  0.41800000000E+01 0. -1.
         -5    1    3    3    0  502 -0.34220502418E+02  0.70419294158E+01 -0.16460577952E+03  0.16832458706E+03  0.41800000000E+01 0. -1.
        -11    1    1    2    0    0 -0.31618438730E+02 -0.19649838077E+02  0.99847384176E+01  0.38542662148E+02  0.00000000000E+00 0. -1.
         11    1    1    2    0    0  0.29701441993E+02 -0.35194064495E+02 -0.68689850735E+02  0.82698811516E+02  0.00000000000E+00 0.  1.
</event>
<event>
 7    1  0.2522928E-009  0.8570966E+02  0.7561462E-02  0.1313587E+00
         -2   -1    0    0    0  501 -0.00000000000E+00  0.00000000000E+00  0.41144176481E+02  0.41144176481E+02  0.00000000000E+00 0. -1.
          2   -1    0    0  501    0  0.00000000000E+00 -0.00000000000E+00 -0.28400091577E+03  0.28400091577E+03  0.00000000000E+00 0.  1.
         25    2    1    2    0    0  0.30974409182E+02  0.13126278058E+02 -0.12848712271E+03  0.18244990870E+03  0.12508922927E+03 0.  0.
          5    1    3    3  502    0  0.48707175837E+02 -0.17766683228E+02 -0.13617440203E+03  0.14577031309E+03  0.41800000000E+01 0.  1.
         -5    1    3    3    0  502 -0.17732766655E+02  0.30892961286E+02  0.76872793181E+01  0.36679595603E+02  0.41800000000E+01 0.  1.
        -11    1    1    2    0    0 -0.56724570656E+02 -0.80301736293E+01 -0.91098325441E+02  0.10761535905E+03  0.00000000000E+00 0.  1.
         11    1    1    2    0    0  0.25750161474E+02 -0.50961044282E+01 -0.23271291136E+02  0.35079824507E+02  0.00000000000E+00 0. -1.
</event>
<event>
 7    1  0.2522928E-009  0.1490963E+03  0.7561462E-02  0.1201588E+00
          2   -1    0    0  501    0  0.00000000000E+00  0.00000000000E+00  0.16267048364E+03  0.16267048364E+03  0.00000000000E+00 0. -1.
         -2   -1    0    0    0  501 -0.00000000000E+00 -0.00000000000E+00 -0.14468260440E+03  0.14468260440E+03  0.00000000000E+00 0.  1.
         25    2    1    2    0    0 -0.16386722238E+02  0.10540325183E+03  0.17221383097E+02  0.16529497223E+03  0.12508989426E+03 0.  0.
          5    1    3    3  502    0 -0.70468789400E+02  0.65894233087E+02  0.17752672205E+02  0.98186200680E+02  0.41800000000E+01 0. -1.
         -5    1    3    3    0  502  0.54082067162E+02  0.39509018746E+02 -0.53128910751E+00  0.67108771549E+02  0.41800000000E+01 0. -1.
        -11    1    1    2    0    0 -0.14891084184E+02 -0.10197079388E+03  0.20285710086E+02  0.10502998251E+03  0.00000000000E+00 0.  1.
         11    1    1    2    0    0  0.31277806422E+02 -0.34324579528E+01 -0.19519213948E+02  0.37028133295E+02  0.00000000000E+00 0. -1.
</event>
<event>
 7    1  0.2522928E-009  0.1115624E+03  0.7561462E-02  0.1257704E+00
         -2   -1    0    0    0  501 -0.00000000000E+00  0.00000000000E+00  0.20576584040E+02  0.20576584040E+02  0.00000000000E+00 0.  1.
          2   -1    0    0  501    0  0.00000000000E+00 -0.00000000000E+00 -0.74747107246E+03  0.74747107246E+03  0.00000000000E+00 0. -1.
         25    2    1    2    0    0  0.28935505264E+02 -0.51994159617E+02 -0.42968848541E+03  0.45146514158E+03  0.12509166025E+03 0.  0.
          5    1    3    3  502    0  0.41494967818E+02  0.17205484439E+02 -0.30440627748E+03  0.30773123861E+03  0.41800000000E+01 0. -1.
         -5    1    3    3    0  502 -0.12559462555E+02 -0.69199644056E+02 -0.12528220793E+03  0.14373390296E+03  0.41800000000E+01 0. -1.
        -11    1    1    2    0    0 -0.36585628484E+00 -0.25221555297E+02 -0.49569868243E+02  0.55618634827E+02  0.00000000000E+00 0. -1.
         11    1    1    2    0    0 -0.28569648979E+02  0.77215714914E+02 -0.24763613476E+03  0.26096388009E+03  0.00000000000E+00 0.  1.
</event>
<event>
 7    1  0.2522928E-009  0.1231662E+03  0.7561462E-02  0.1237963E+00
          2   -1    0    0  501    0  0.00000000000E+00  0.00000000000E+00  0.42978925623E+03  0.42978925623E+03  0.00000000000E+00 0. -1.
         -2   -1    0    0    0  501 -0.00000000000E+00 -0.00000000000E+00 -0.64548863538E+02  0.64548863538E+02  0.00000000000E+00 0.  1.
         25    2    1    2    0    0 -0.69223875097E+02  0.10096644992E+03  0.25541104090E+03  0.30962655807E+03  0.12509051425E+03 0.  0.
          5    1    3    3  502    0 -0.19896255472E+02  0.18579696989E+02  0.19315763007E+03  0.19511127230E+03  0.41800000000E+01 0. -1.
         -5    1    3    3    0  502 -0.49327619625E+02  0.82386752930E+02  0.62253410831E+02  0.11451528578E+03  0.41800000000E+01 0. -1.
        -11    1    1    2    0    0  0.29309297438E+02 -0.35943883326E+02 -0.52105989079E+01  0.46670633227E+02  0.00000000000E+00 0.  1.
         11    1    1    2    0    0  0.39914577659E+02 -0.65022566594E+02  0.11503995069E+03  0.13804092847E+03  0.00000000000E+00 0. -1.
</event>
<event>
 7    1  0.2522928E-009  0.7950009E+02  0.7561462E-02  0.1330476E+00
         -2   -1    0    0    0  501 -0.00000000000E+00  0.00000000000E+00  0.29543847591E+02  0.29543847591E+02  0.00000000000E+00 0.  1.
          2   -1    0    0  501    0  0.00000000000E+00 -0.00000000000E+00 -0.44067665845E+03  0.44067665845E+03  0.00000000000E+00 0. -1.
         25    2    1    2    0    0  0.30827210258E+02 -0.40817961743E+01 -0.19421256315E+03  0.23309233592E+03  0.12508612803E+03 0.  0.
          5    1    3    3  502    0 -0.19391254719E+02 -0.12078578226E+02 -0.17806825514E+03  0.17957641465E+03  0.41800000000E+01 0.  1.
         -5    1    3    3    0  502  0.50218464977E+02  0.79967820516E+01 -0.16144308012E+02  0.53515921267E+02  0.41800000000E+01 0.  1.
        -11    1    1    2    0    0  0.25762391418E+02  0.10460013655E+02 -0.26633726035E+02  0.38502831841E+02  0.00000000000E+00 0.  1.
         11    1    1    2    0    0 -0.56589601676E+02 -0.63782174810E+01 -0.19028652167E+03  0.19862533828E+03  0.00000000000E+00 0. -1.
</event>
<event>
 7    1  0.2522928E-009  0.1027456E+03  0.7561462E-02  0.1274626E+00
          2   -1    0    0  501    0  0.00000000000E+00  0.00000000000E+00  0.84241086092E+02  0.84241086092E+02  0.00000000000E+00 0. -1.
         -2   -1    0    0    0  501 -0.00000000000E+00 -0.00000000000E+00 -0.14240652654E+03  0.14240652654E+03  0.00000000000E+00 0.  1.
         25    2    1    2    0    0  0.42685129037E+01 -0.36278605851E+01 -0.29511716419E+02  0.12862839343E+03  0.12507174187E+03 0.  0.
          5    1    3    3  502    0 -0.41069844617E+02 -0.42052055088E+02  0.60603652802E+01  0.59239411723E+02  0.41800000000E+01 0. -1.
         -5    1    3    3    0  502  0.45338357521E+02  0.38424194503E+02 -0.35572081699E+02  0.69388981707E+02  0.41800000000E+01 0. -1.
        -11    1    1    2    0    0  0.21591766270E+02  0.38159023270E+02 -0.32690163542E+02  0.54689690253E+02  0.00000000000E+00 0.  1.
         11    1    1    2    0    0 -0.25860279173E+02 -0.34531162685E+02  0.40364395095E+01  0.43329528952E+02  0.00000000000E+00 0. -1.
</event>
<event>
 7    1  0.2522928E-009  0.1536988E+03  0.7561462E-02  0.1196000E+00
         -2   -1    0    0    0  501 -0.00000000000E+00  0.00000000000E+00  0.31303706672E+02  0.31303706672E+02  0.00000000000E+00 0.  1.
          2   -1    0    0  501    0  0.00000000000E+00 -0.00000000000E+00 -0.95496356721E+03  0.95496356721E+03  0.00000000000E+00 0. -1.
         25    2    1    2    0    0 -0.10424669506E+03  0.70317100591E+02 -0.35423131342E+03  0.39615625583E+03  0.12509231616E+03 0.  0.
          5    1    3    3  502    0 -0.11086020128E+03  0.34019249029E+02 -0.15570626558E+03  0.19418858636E+03  0.41800000000E+01 0. -1.
         -5    1    3    3    0  502  0.66135062142E+01  0.36297851561E+02 -0.19852504784E+03  0.20196766947E+03  0.41800000000E+01 0. -1.
        -11    1    1    2    0    0  0.19551468350E+02 -0.66644843150E+02 -0.23013436403E+03  0.24038639841E+03  0.00000000000E+00 0.  1.
         11    1    1    2    0    0  0.84695226715E+02 -0.36722574404E+01 -0.33929418309E+03  0.34972461964E+03  0.00000000000E+00 0. -1.
</event>
<event>
 7    1  0.3321823E-009  0.2565868E+03  0.7561462E-02  0.1109211E+00
          2   -1    0    0  501    0  0.00000000000E+00  0.00000000000E+00  0.55091743424E+03  0.55091743424E+03  0.00000000000E+00 0. -1.
         -2   -1    0    0    0  501 -0.00000000000E+00 -0.00000000000E+00 -0.13818176297E+03  0.13818176297E+03  0.00000000000E+00 0.  1.
         25    2    1    2    0    0 -0.24652657993E+03 -0.41909562678E+02  0.26265429241E+03  0.38362307516E+03  0.12509044894E+03 0.  0.
          5    1    3    3  502    0 -0.12500264599E+03 -0.49687453904E+02  0.60423441633E+02  0.14752277546E+03  0.41800000000E+01 0.  1.
         -5    1    3    3    0  502 -0.12152393393E+03  0.77778912256E+01  0.20223085078E+03  0.23610029970E+03  0.41800000000E+01 0.  1.
        -11    1    1    2    0    0  0.10761469934E+03  0.47708005825E+02  0.10917714227E+03  0.16055100662E+03  0.00000000000E+00 0.  1.
         11    1    1    2    0    0  0.13891188059E+03 -0.57984431464E+01  0.40904236591E+02  0.14492511543E+03  0.00000000000E+00 0. -1.
</event>
<event>
 7    1  0.2522928E-009  0.1053273E+03  0.7561462E-02  0.1269476E+00
          1   -1    0    0  501    0  0.00000000000E+00  0.00000000000E+00  0.42342160111E+03  0.42342160111E+03  0.00000000000E+00 0. -1.
         -1   -1    0    0    0  501 -0.00000000000E+00 -0.00000000000E+00 -0.51349017176E+02  0.51349017176E+02  0.00000000000E+00 0.  1.
         25    2    1    2    0    0 -0.57348794608E+02 -0.31943447307E+02  0.32678090584E+03  0.35600613941E+03  0.12508134477E+03 0.  0.
          5    1    3    3  502    0 -0.84767524831E+01  0.29857306874E+02  0.22527788216E+03  0.22744430240E+03  0.41800000000E+01 0. -1.
         -5    1    3    3    0  502 -0.48872042125E+02 -0.61800754181E+02  0.10150302368E+03  0.12856183701E+03  0.41800000000E+01 0. -1.
        -11    1    1    2    0    0  0.13448226317E+02 -0.25088173311E+02 -0.75833419939E+01  0.29458077109E+02  0.00000000000E+00 0.  1.
         11    1    1    2    0    0  0.43900568291E+02  0.57031620618E+02  0.52875020088E+02  0.89306401763E+02  0.00000000000E+00 0. -1.
</event>
<event>
 7    1  0.2522928E-009  0.1347840E+03  0.7561462E-02  0.1220525E+00
         -1   -1    0    0    0  501 -0.00000000000E+00  0.00000000000E+00  0.15490382538E+03  0.15490382538E+03  0.00000000000E+00 0.  1.
          1   -1    0    0  501    0  0.00000000000E+00 -0.00000000000E+00 -0.16808253852E+03  0.16808253852E+03  0.00000000000E+00 0. -1.
         25    2    1    2    0    0 -0.40752443218E+02  0.10736366439E+03  0.20504633914E+02  0.17104164490E+03  0.12508831368E+03 0.  0.
          5    1    3    3  502    0  0.81945851198E+01  0.43240468887E+02  0.65160783101E+02  0.78741916596E+02  0.41800000000E+01 0. -1.
         -5    1    3    3    0  502 -0.48947028338E+02  0.64123195503E+02 -0.44656149187E+02  0.92299728303E+02  0.41800000000E+01 0. -1.
        -11    1    1    2    0    0  0.54864556273E+02 -0.23747937285E+02  0.22996331757E+01  0.59827856163E+02  0.00000000000E+00 0.  1.
         11    1    1    2    0    0 -0.14112113055E+02 -0.83615727104E+02 -0.35982980227E+02  0.92116862843E+02  0.00000000000E+00 0. -1.
</event>
<event>
 7    1  0.2522928E-009  0.9123588E+02  0.7561462E-02  0.1299886E+00
          2   -1    0    0  501    0  0.00000000000E+00  0.00000000000E+00  0.46224163738E+02  0.46224163738E+02  0.00000000000E+00 0. -1.
         -2   -1    0    0    0  501 -0.00000000000E+00 -0.00000000000E+00 -0.29938656791E+03  0.29938656791E+03  0.00000000000E+00 0.  1.
         25    2    1    2    0    0  0.20968138535E+02  0.23406973088E+02 -0.19148783231E+03  0.23087087510E+03  0.12508485849E+03 0.  0.
          5    1    3    3  502    0 -0.13239575301E+02  0.65327660770E+02 -0.64832148903E+02  0.93078835120E+02  0.41800000000E+01 0. -1.
         -5    1    3    3    0  502  0.34207713837E+02 -0.41920687682E+02 -0.12665568341E+03  0.13779203998E+03  0.41800000000E+01 0. -1.
        -11    1    1    2    0    0 -0.33348881359E+02 -0.32101387860E+02 -0.79109197626E+02  0.91656489893E+02  0.00000000000E+00 0.  1.
         11    1    1    2    0    0  0.12380742823E+02  0.86944147721E+01  0.17434625760E+02  0.23083366662E+02  0.00000000000E+00 0. -1.
</event>
<event>
 7    1  0.2522928E-009  0.1557500E+03  0.7561462E-02  0.1193580E+00
          2   -1    0    0  501    0  0.00000000000E+00  0.00000000000E+00  0.14197807921E+04  0.14197807921E+04  0.00000000000E+00 0. -1.
         -2   -1    0    0    0  501 -0.00000000000E+00 -0.00000000000E+00 -0.17684939277E+02  0.17684939277E+02  0.00000000000E+00 0.  1.
         25    2    1    2    0    0 -0.11400571750E+03 -0.85950315728E+01  0.82962001910E+03  0.84675133679E+03  0.12508905657E+03 0.  0.
          5    1    3    3  502    0 -0.12777230291E+03  0.25172417588E+02  0.58058195857E+03  0.59502293655E+03  0.41800000000E+01 0. -1.
         -5    1    3    3    0  502  0.13766585413E+02 -0.33767449161E+02  0.24903806053E+03  0.25172840025E+03  0.41800000000E+01 0. -1.
        -11    1    1    2    0    0  0.29669765793E+01 -0.27563162609E+02  0.83258162594E+02  0.87752222316E+02  0.00000000000E+00 0.  1.
         11    1    1    2    0    0  0.11103874092E+03  0.36158194181E+02  0.48921767115E+03  0.50296217229E+03  0.00000000000E+00 0. -1.
</event>
<event>
 7    1  0.2522928E-009  0.1140814E+03  0.7561462E-02  0.1253193E+00
          1   -1    0    0  501    0  0.00000000000E+00  0.00000000000E+00  0.12111353292E+04  0.12111353292E+04  0.00000000000E+00 0. -1.
         -1   -1    0    0    0  501 -0.00000000000E+00 -0.00000000000E+00 -0.22344351785E+02  0.22344351785E+02  0.00000000000E+00 0.  1.
         25    2    1    2    0    0  0.26665586209E+02 -0.81520971007E+02  0.95159216945E+03  0.96360108298E+03  0.12507065187E+03 0.  0.
          5    1    3    3  502    0  0.65774562252E+02 -0.26885384624E+02  0.68306958921E+03  0.68676826736E+03  0.41800000000E+01 0. -1.
         -5    1    3    3    0  502 -0.39108976043E+02 -0.54635586383E+02  0.26852258023E+03  0.27683281562E+03  0.41800000000E+01 0. -1.
        -11    1    1    2    0    0  0.41146609830E+01  0.24697410007E+02  0.10641049460E+01  0.25060423288E+02  0.00000000000E+00 0.  1.
         11    1    1    2    0    0 -0.30780247192E+02  0.56823561000E+02  0.23613470305E+03  0.24481817474E+03  0.00000000000E+00 0. -1.
</event>
<event>
 7    1  0.2522928E-009  0.6057667E+02  0.7561462E-02  0.1395428E+00
          2   -1    0    0  501    0  0.00000000000E+00  0.00000000000E+00  0.18965302044E+03  0.18965302044E+03  0.00000000000E+00 0. -1.
         -2   -1    0    0    0  501 -0.00000000000E+00 -0.00000000000E+00 -0.64556455142E+02  0.64556455142E+02  0.00000000000E+00 0.  1.
         25    2    1    2    0    0 -0.21560519479E+01  0.22868973596E+02  0.80446233302E+02  0.15048952639E+03  0.12509141692E+03 0.  0.
          5    1    3    3  502    0 -0.81871224643E+01  0.45029462052E+02  0.10620769623E+03  0.11572479667E+03  0.41800000000E+01 0. -1.
         -5    1    3    3    0  502  0.60310705163E+01 -0.22160488456E+02 -0.25761462927E+02  0.34764729717E+02  0.41800000000E+01 0. -1.
        -11    1    1    2    0    0  0.22494715787E+02 -0.22045107652E+02 -0.19075441343E+02  0.36822160069E+02  0.00000000000E+00 0.  1.
         11    1    1    2    0    0 -0.20338663839E+02 -0.82386594465E+00  0.63725773337E+02  0.66897789120E+02  0.00000000000E+00 0. -1.
</event>
<event>
 7    1  0.2522928E-009  0.1341189E+03  0.7561462E-02  0.1221469E+00
          2   -1    0    0  501    0  0.00000000000E+00  0.00000000000E+00  0.12081923627E+03  0.12081923627E+03  0.00000000000E+00 0. -1.
         -2   -1    0    0    0  501 -0.00000000000E+00 -0.00000000000E+00 -0.26797805528E+03  0.26797805528E+03  0.00000000000E+00 0.  1.
         25    2    1    2    0    0 -0.32358913898E+02 -0.10851209517E+03  0.17154041399E+02  0.16959793829E+03  0.12508887013E+03 0.  0.
          5    1    3    3  502    0  0.16402200317E+02 -0.74604090127E+02  0.59181733658E+02  0.96719969177E+02  0.41800000000E+01 0. -1.
         -5    1    3    3    0  502 -0.48761114216E+02 -0.33908005040E+02 -0.42027692258E+02  0.72877969112E+02  0.41800000000E+01 0. -1.
        -11    1    1    2    0    0  0.49078627190E+02  0.10381550436E+03 -0.98996428051E+02  0.15161353290E+03  0.00000000000E+00 0. -1.
         11    1    1    2    0    0 -0.16719713292E+02  0.46965908039E+01 -0.65316432360E+02  0.67585820362E+02  0.00000000000E+00 0.  1.
</event>
<event>
 7    1  0.2522928E-009  0.1004656E+03  0.7561462E-02  0.1279320E+00
         -2   -1    0    0    0  501 -0.00000000000E+00  0.00000000000E+00  0.59282746723E+02  0.59282746723E+02  0.00000000000E+00 0.  1.
          2   -1    0    0  501    0  0.00000000000E+00 -0.00000000000E+00 -0.20123770188E+03  0.20123770188E+03  0.00000000000E+00 0. -1.
         25    2    1    2    0    0  0.52600298937E+01 -0.11983285899E+01 -0.95012447319E+02  0.15717458259E+03  0.12508948941E+03 0.  0.
          5    1    3    3  502    0 -0.51016437646E+02 -0.87484336967E+01 -0.70665867562E+01  0.52408215488E+02  0.41800000000E+01 0. -1.
         -5    1    3    3    0  502  0.56276467540E+02  0.75501051068E+01 -0.87945860563E+02  0.10476636710E+03  0.41800000000E+01 0. -1.
        -11    1    1    2    0    0 -0.34076055465E+02 -0.32939100453E+02 -0.24514792140E+02  0.53358569400E+02  0.00000000000E+00 0.  1.
         11    1    1    2    0    0  0.28816025571E+02  0.34137429043E+02 -0.22427715699E+02  0.49987296615E+02  0.00000000000E+00 0. -1.
</event>
<event>
 7    1  0.2522928E-009  0.1336065E+03  0.7561462E-02  0.1222200E+00
         -2   -1    0    0    0  501 -0.00000000000E+00  0.00000000000E+00  0.66453443514E+02  0.66453443514E+02  0.00000000000E+00 0. -1.
          2   -1    0    0  501    0  0.00000000000E+00 -0.00000000000E+00 -0.35033962407E+03  0.35033962407E+03  0.00000000000E+00 0.  1.
         25    2    1    2    0    0 -0.10168600704E+03 -0.39892425382E+01 -0.19948076834E+03  0.25650644167E+03  0.12508804738E+03 0.  0.
          5    1    3    3  502    0 -0.10146357480E+03 -0.43242685865E+02 -0.18304228521E+03  0.21374456125E+03  0.41800000000E+01 0. -1.
         -5    1    3    3    0  502 -0.22243224139E+00  0.39253443327E+02 -0.16438483131E+02  0.42761880416E+02  0.41800000000E+01 0. -1.
        -11    1    1    2    0    0  0.32965083501E+02  0.29325422390E+02 -0.74213279881E+02  0.86338218879E+02  0.00000000000E+00 0.  1.
         11    1    1    2    0    0  0.68720923538E+02 -0.25336179851E+02 -0.10192132336E+02  0.73948407035E+02  0.00000000000E+00 0. -1.
</event>
<event>
 7    1  0.2522928E-009  0.1015023E+03  0.7561462E-02  0.1277168E+00
         -2   -1    0    0    0  501 -0.00000000000E+00  0.00000000000E+00  0.90854002348E+02  0.90854002348E+02  0.00000000000E+00 0.  1.
          2   -1    0    0  501    0  0.00000000000E+00 -0.00000000000E+00 -0.15117109788E+03  0.15117109788E+03  0.00000000000E+00 0. -1.
         25    2    1    2    0    0 -0.30596364141E+02 -0.38621292721E+02 -0.27497309295E+02  0.13722920659E+03  0.12509201163E+03 0.  0.
          5    1    3    3  502    0 -0.72557062002E+02 -0.45465047357E+01 -0.37797217167E+02  0.82044499982E+02  0.41800000000E+01 0.  1.
         -5    1    3    3    0  502  0.41960697861E+02 -0.34074787985E+02  0.10299907872E+02  0.55184706608E+02  0.41800000000E+01 0.  1.
        -11    1    1    2    0    0 -0.13853486975E+02  0.26491401787E+02 -0.47772315351E+02  0.56355191278E+02  0.00000000000E+00 0. -1.
         11    1    1    2    0    0  0.44449851116E+02  0.12129890934E+02  0.14952529114E+02  0.48440702361E+02  0.00000000000E+00 0.  1.
</event>
<event>
 7    1  0.2522928E-009  0.1651625E+03  0.7561462E-02  0.1182989E+00
         -1   -1    0    0    0  501 -0.00000000000E+00  0.00000000000E+00  0.71466035911E+03  0.71466035911E+03  0.00000000000E+00 0.  1.
          1   -1    0    0  501    0  0.00000000000E+00 -0.00000000000E+00 -0.50618527992E+02  0.50618527992E+02  0.00000000000E+00 0. -1.
         25    2    1    2    0    0 -0.15250832086E+03  0.18958284808E+02  0.40247456432E+03  0.44861148025E+03  0.12509308852E+03 0.  0.
          5    1    3    3  502    0 -0.63097852779E+02 -0.14104770194E+02  0.30650690194E+03  0.31327980609E+03  0.41800000000E+01 0. -1.
         -5    1    3    3    0  502 -0.89410468078E+02  0.33063055002E+02  0.95967662373E+02  0.13533167415E+03  0.41800000000E+01 0. -1.
        -11    1    1    2    0    0  0.86095789336E+02 -0.46926681772E+02  0.19636877612E+03  0.21948871187E+03  0.00000000000E+00 0. -1.
         11    1    1    2    0    0  0.66412531521E+02  0.27968396964E+02  0.65198490685E+02  0.97178694987E+02  0.00000000000E+00 0.  1.
</event>
<event>
 7    1  0.2522928E-009  0.9126224E+02  0.7561462E-02  0.1299823E+00
          2   -1    0    0  501    0  0.00000000000E+00  0.00000000000E+00  0.56951524152E+02  0.56951524152E+02  0.00000000000E+00 0. -1.
         -2   -1    0    0    0  501 -0.00000000000E+00 -0.00000000000E+00 -0.23465285644E+03  0.23465285644E+03  0.00000000000E+00 0.  1.
         25    2    1    2    0    0 -0.10421754453E+02  0.29697142538E+02 -0.54376687974E+02  0.13998263638E+03  0.12509109102E+03 0.  0.
          5    1    3    3  502    0 -0.24223455502E+02  0.58885709331E+02  0.13028414444E+02  0.65126911050E+02  0.41800000000E+01 0. -1.
         -5    1    3    3    0  502  0.13801701050E+02 -0.29188566793E+02 -0.67405102418E+02  0.74855725334E+02  0.41800000000E+01 0. -1.
        -11    1    1    2    0    0  0.34407756314E+02 -0.45787308697E+02 -0.96426397047E+02  0.11215356160E+03  0.00000000000E+00 0.  1.
         11    1    1    2    0    0 -0.23986001861E+02  0.16090166159E+02 -0.26898247267E+02  0.39468182608E+02  0.00000000000E+00 0. -1.
</event>
<event>
 7    1  0.2522928E-009  0.1075428E+03  0.7561462E-02  0.1265189E+00
         -2   -1    0    0    0  501 -0.00000000000E+00  0.00000000000E+00  0.15316401278E+03  0.15316401278E+03  0.00000000000E+00 0.  1.
          2   -1    0    0  501    0  0.00000000000E+00 -0.00000000000E+00 -0.91243681023E+02  0.91243681023E+02  0.00000000000E+00 0. -1.
         25    2    1    2    0    0  0.28702093833E+02  0.36518414716E+02  0.50376655021E+02  0.14262950946E+03  0.12509182544E+03 0.  0.
          5    1    3    3  502    0 -0.94865952423E+01 -0.35732977530E+02  0.48044294291E+02  0.60766502173E+02  0.41800000000E+01 0.  1.
         -5    1    3    3    0  502  0.38188689076E+02  0.72251392246E+02  0.23323607304E+01  0.81863007283E+02  0.41800000000E+01 0.  1.
        -11    1    1    2    0    0  0.24557857807E+02  0.88316927710E+01  0.17734259492E+02  0.31552989351E+02  0.00000000000E+00 0.  1.
         11    1    1    2    0    0 -0.53259951640E+02 -0.45350107487E+02 -0.61905827530E+01  0.70225194999E+02  0.00000000000E+00 0. -1.
</event>
<event>
 7    1  0.2522928E-009  0.7943278E+02  0.7561462E-02  0.1330669E+00
         -2   -1    0    0    0  501 -0.00000000000E+00  0.00000000000E+00  0.15497375295E+02  0.15497375295E+02  0.00000000000E+00 0.  1.
          2   -1    0    0  501    0  0.00000000000E+00 -0.00000000000E+00 -0.84635368947E+03  0.84635368947E+03  0.00000000000E+00 0. -1.
         25    2    1    2    0    0  0.30031990535E+02  0.11941159326E+02 -0.45990680650E+03  0.47770876849E+03  0.12508750973E+03 0.  0.
          5    1    3    3  502    0  0.59898538419E+01 -0.19633077944E+02 -0.42247892815E+03  0.42299793525E+03  0.41800000000E+01 0.  1.
         -5    1    3    3    0  502  0.24042136693E+02  0.31574237269E+02 -0.37427878348E+02  0.54710833238E+02  0.41800000000E+01 0.  1.
        -11    1    1    2    0    0  0.33486178905E+02 -0.76544342303E+01 -0.16665742488E+03  0.17016054716E+03  0.00000000000E+00 0.  1.
         11    1    1    2    0    0 -0.63518169441E+02 -0.42867250954E+01 -0.20429208279E+03  0.21398174911E+03  0.00000000000E+00 0. -1.
</event>
<event>
 7    1  0.2522928E-009  0.1009426E+03  0.7561462E-02  0.1278326E+00
          4   -1    0    0  501    0  0.00000000000E+00  0.00000000000E+00  0.15680756834E+02  0.15680756834E+02  0.00000000000E+00 0. -1.
         -4   -1    0    0    0  501 -0.00000000000E+00 -0.00000000000E+00 -0.80888232010E+03  0.80888232010E+03  0.00000000000E+00 0.  1.
         25    2    1    2    0    0  0.18799247672E+02  0.28558719025E+02 -0.44674156524E+03  0.46518399801E+03  0.12509641782E+03 0.  0.
          5    1    3    3  502    0  0.44538255360E+02 -0.22565396798E+02 -0.34287867302E+03  0.34651999961E+03  0.41800000000E+01 0.  1.
         -5    1    3    3    0  502 -0.25739007688E+02  0.51124115822E+02 -0.10386289223E+03  0.11866399840E+03  0.41800000000E+01 0.  1.
        -11    1    1    2    0    0  0.23922714959E+02 -0.43073934694E+02 -0.15349605472E+03  0.16121010811E+03  0.00000000000E+00 0. -1.
         11    1    1    2    0    0 -0.42721962631E+02  0.14515215669E+02 -0.19296394330E+03  0.19816897081E+03  0.00000000000E+00 0.  1.
</event>
<event>
 7    1  0.2522928E-009  0.1369574E+03  0.7561462E-02  0.1217483E+00
          1   -1    0    0  501    0  0.00000000000E+00  0.00000000000E+00  0.92719767232E+02  0.92719767232E+02  0.00000000000E+00 0. -1.
         -1   -1    0    0    0  501 -0.00000000000E+00 -0.00000000000E+00 -0.20998074636E+03  0.20998074636E+03  0.00000000000E+00 0.  1.
         25    2    1    2    0    0 -0.85066218108E+02  0.17952143733E+02 -0.56120584087E+02  0.16235072345E+03  0.12509874707E+03 0.  0.
          5    1    3    3  502    0 -0.10185905812E+03 -0.25908862861E+02 -0.38114472238E+02  0.11187815824E+03  0.41800000000E+01 0.  1.
         -5    1    3    3    0  502  0.16792840016E+02  0.43861006594E+02 -0.18006111849E+02  0.50472565213E+02  0.41800000000E+01 0.  1.
        -11    1    1    2    0    0  0.83824199195E+02  0.17891790827E+02 -0.59702112927E+02  0.10445551607E+03  0.00000000000E+00 0. -1.
         11    1    1    2    0    0  0.12420189138E+01 -0.35843934560E+02 -0.14382821153E+01  0.35894274073E+02  0.00000000000E+00 0.  1.
</event>
<event>
 7    1  0.2522928E-009  0.1991322E+03  0.7561462E-02  0.1150473E+00
          1   -1    0    0  501    0  0.00000000000E+00  0.00000000000E+00  0.20321371815E+03  0.20321371815E+03  0.00000000000E+00 0. -1.
         -1   -1    0    0    0  501 -0.00000000000E+00 -0.00000000000E+00 -0.24010425336E+03  0.24010425336E+03  0.00000000000E+00 0.  1.
         25    2    1    2    0    0  0.17143482369E+03  0.75575541050E+02  0.21933142353E+02  0.22633825956E+03  0.12508550608E+03 0.  0.
          5    1    3    3  502    0  0.82861750716E+02  0.54185112996E+02 -0.49228537883E+02  0.11064817009E+03  0.41800000000E+01 0. -1.
         -5    1    3    3    0  502  0.88573072973E+02  0.21390428053E+02  0.71161680236E+02  0.11569008947E+03  0.41800000000E+01 0. -1.
        -11    1    1    2    0    0 -0.88096325139E+02 -0.87027841922E+02 -0.25111378146E+02  0.12635422069E+03  0.00000000000E+00 0. -1.
         11    1    1    2    0    0 -0.83338498550E+02  0.11452300873E+02 -0.33712299417E+02  0.90625491270E+02  0.00000000000E+00 0.  1.
</event>
<event>
 7    1  0.2522928E-009  0.9007873E+02  0.7561462E-02  0.1302661E+00
          2   -1    0    0  501    0  0.00000000000E+00  0.00000000000E+00  0.33858462952E+02  0.33858462952E+02  0.00000000000E+00 0. -1.
         -2   -1    0    0    0  501 -0.00000000000E+00 -0.00000000000E+00 -0.36849727456E+03  0.36849727456E+03  0.00000000000E+00 0.  1.
         25    2    1    2    0    0 -0.21898489962E+02  0.16012719206E+02 -0.19791395909E+03  0.23569740991E+03  0.12508949915E+03 0.  0.
          5    1    3    3  502    0 -0.51954334117E+02  0.45643553491E+02 -0.17335668826E+03  0.18668851216E+03  0.41800000000E+01 0. -1.
         -5    1    3    3    0  502  0.30055844155E+02 -0.29630834285E+02 -0.24557270831E+02  0.49008897753E+02  0.41800000000E+01 0. -1.
        -11    1    1    2    0    0  0.31309342569E+01 -0.38808829480E+02 -0.13089202493E+03  0.13656006073E+03  0.00000000000E+00 0.  1.
         11    1    1    2    0    0  0.18767555705E+02  0.22796110274E+02 -0.58328275811E+01  0.30098266866E+02  0.00000000000E+00 0. -1.
</event>
<event>
 6    1  0.2522928E-009  0.1489696E+03  0.7561462E-02  0.1201745E+00
         -1   -1    0    0    0  501 -0.00000000000E+00  0.00000000000E+00  0.70878008814E+02  0.70878008814E+02  0.00000000000E+00 0.  1.
          1   -1    0    0  501    0  0.00000000000E+00 -0.00000000000E+00 -0.37243337104E+03  0.37243337104E+03  0.00000000000E+00 0. -1.
          5    1    1    2  502    0 -0.56588148560E+02 -0.12210078594E+03 -0.15169799755E+03  0.20283139635E+03  0.41800000000E+01 0.  1.
         -5    1    1    2    0  502  0.37829418760E+02  0.35751144740E+01 -0.31069114177E+02  0.49260619393E+02  0.41800000000E+01 0.  1.
        -11    1    1    2    0    0 -0.19054537224E+01  0.89065266649E+02 -0.12620334809E+03  0.15447827532E+03  0.00000000000E+00 0. -1.
         11    1    1    2    0    0  0.20664183522E+02  0.29460404820E+02  0.74150975957E+01  0.36741088785E+02  0.00000000000E+00 0.  1.
</event>
<event>
 7    1  0.2522928E-009  0.1190434E+03  0.7561462E-02  0.1244684E+00
         -1   -1    0    0    0  501 -0.00000000000E+00  0.00000000000E+00  0.14656358809E+03  0.14656358809E+03  0.00000000000E+00 0.  1.
          1   -1    0    0  501    0  0.00000000000E+00 -0.00000000000E+00 -0.17143675036E+03  0.17143675036E+03  0.00000000000E+00 0. -1.
         25    2    1    2    0    0 -0.10271227761E+03  0.49601518487E+02  0.89630299409E+01  0.16952241093E+03  0.12508952512E+03 0.  0.
          5    1    3    3  502    0 -0.71429042466E+02  0.25424330940E+02  0.65585115113E+02  0.10033635650E+03  0.41800000000E+01 0.  1.
         -5    1    3    3    0  502 -0.31283235143E+02  0.24177187546E+02 -0.56622085173E+02  0.69186054433E+02  0.41800000000E+01 0.  1.
        -11    1    1    2    0    0  0.77122744930E+02 -0.13735552698E+02  0.18070375772E+02  0.80393542489E+02  0.00000000000E+00 0.  1.
         11    1    1    2    0    0  0.25589532679E+02 -0.35865965789E+02 -0.51906567986E+02  0.68084385029E+02  0.00000000000E+00 0. -1.
</event>
<event>
 7    1  0.2522928E-009  0.2368221E+03  0.7561462E-02  0.1121928E+00
         -2   -1    0    0    0  501 -0.00000000000E+00  0.00000000000E+00  0.34425420476E+03  0.34425420476E+03  0.00000000000E+00 0.  1.
          2   -1    0    0  501    0  0.00000000000E+00 -0.00000000000E+00 -0.17157434927E+03  0.17157434927E+03  0.00000000000E+00 0. -1.
         25    2    1    2    0    0  0.18014507641E+03 -0.12098277848E+03  0.88557424466E+02  0.26566893321E+03  0.12509389833E+03 0.  0.
          5    1    3    3  502    0  0.10691352816E+03 -0.10303730062E+02  0.77330234743E+02  0.13241641501E+03  0.41800000000E+01 0.  1.
         -5    1    3    3    0  502  0.73231548249E+02 -0.11067904842E+03  0.11227189723E+02  0.13325251820E+03  0.41800000000E+01 0.  1.
        -11    1    1    2    0    0 -0.17053738236E+03  0.13421865855E+03  0.68582179455E+02  0.22759868722E+03  0.00000000000E+00 0. -1.
         11    1    1    2    0    0 -0.96076940562E+01 -0.13235880071E+02  0.15540251568E+02  0.22560933605E+02  0.00000000000E+00 0.  1.
</event>
<event>
 7    1  0.2522928E-009  0.1291610E+03  0.7561462E-02  0.1228706E+00
         -2   -1    0    0    0  501 -0.00000000000E+00  0.00000000000E+00  0.69624734537E+02  0.69624734537E+02  0.00000000000E+00 0.  1.
          2   -1    0    0  501    0  0.00000000000E+00 -0.00000000000E+00 -0.29073676991E+03  0.29073676991E+03  0.00000000000E+00 0. -1.
         25    2    1    2    0    0  0.65466158684E+02  0.27392339948E+02 -0.46992386729E+02  0.15130017534E+03  0.12508916990E+03 0.  0.
          5    1    3    3  502    0 -0.71816048843E+01 -0.41629268950E+02 -0.22555621638E+02  0.48070780621E+02  0.41800000000E+01 0. -1.
         -5    1    3    3    0  502  0.72647763568E+02  0.69021608898E+02 -0.24436765091E+02  0.10322939472E+03  0.41800000000E+01 0. -1.
        -11    1    1    2    0    0 -0.27808161588E+02 -0.59764012910E+02 -0.94287123694E+02  0.11504387330E+03  0.00000000000E+00 0.  1.
         11    1    1    2    0    0 -0.37657997096E+02  0.32371672962E+02 -0.79832524945E+02  0.94017455798E+02  0.00000000000E+00 0. -1.
</event>
<event>
 7    1  0.2522928E-009  0.1000334E+03  0.7561462E-02  0.1280226E+00
          2   -1    0    0  501    0  0.00000000000E+00  0.00000000000E+00  0.93458343712E+03  0.93458343712E+03  0.00000000000E+00 0. -1.
         -2   -1    0    0    0  501 -0.00000000000E+00 -0.00000000000E+00 -0.18478718608E+02  0.18478718608E+02  0.00000000000E+00 0.  1.
         25    2    1    2    0    0  0.53792263734E+02 -0.13077919279E+02  0.66757046555E+03  0.68144188096E+03  0.12509225012E+03 0.  0.
          5    1    3    3  502    0 -0.65935639960E+01 -0.49717088278E+02  0.44643203305E+03  0.44925972053E+03  0.41800000000E+01 0. -1.
         -5    1    3    3    0  502  0.60385827730E+02  0.36639168999E+02  0.22113843250E+03  0.23218216044E+03  0.41800000000E+01 0. -1.
        -11    1    1    2    0    0 -0.38072757127E+02 -0.19527186222E+02  0.35687112212E+02  0.55717284706E+02  0.00000000000E+00 0.  1.
         11    1    1    2    0    0 -0.15719506607E+02  0.32605105501E+02  0.21284714075E+03  0.21590299006E+03  0.00000000000E+00 0. -1.
</event>
<event>
 7    1  0.2522928E-009  0.1220278E+03  0.7561462E-02  0.1239789E+00
         -1   -1    0    0    0  501 -0.00000000000E+00  0.00000000000E+00  0.46423597424E+02  0.46423597424E+02  0.00000000000E+00 0.  1.
          1   -1    0    0  501    0  0.00000000000E+00 -0.00000000000E+00 -0.53244431128E+03  0.53244431128E+03  0.00000000000E+00 0. -1.
         25    2    1    2    0    0 -0.26212164570E+02  0.10542168593E+03 -0.20074195263E+03  0.26028096013E+03  0.12509211495E+03 0.  0.
          5    1    3    3  502    0 -0.32777333597E+02  0.20050176175E+02 -0.16139212906E+03  0.16595558106E+03  0.41800000000E+01 0. -1.
         -5    1    3    3    0  502  0.65651690269E+01  0.85371509752E+02 -0.39349823579E+02  0.94325379074E+02  0.41800000000E+01 0. -1.
        -11    1    1    2    0    0 -0.73918616921E+01 -0.71676518969E+02 -0.24756749518E+03  0.25784070210E+03  0.00000000000E+00 0. -1.
         11    1    1    2    0    0  0.33604026262E+02 -0.33745166958E+02 -0.37711266041E+02  0.60746246472E+02  0.00000000000E+00 0.  1.
</event>
<event>
 7    1  0.2522928E-009  0.2006190E+03  0.7561462E-02  0.1149218E+00
         -2   -1    0    0    0  501 -0.00000000000E+00  0.00000000000E+00  0.37263569322E+02  0.37263569322E+02  0.00000000000E+00 0.  1.
          2   -1    0    0  501    0  0.00000000000E+00 -0.00000000000E+00 -0.13180163828E+04  0.13180163828E+04  0.00000000000E+00 0. -1.
         25    2    1    2    0    0  0.15587409041E+03 -0.70178028317E+02 -0.39128636058E+03  0.44494287329E+03  0.12508979494E+03 0.  0.
          5    1    3    3  502    0  0.18349834285E+02 -0.67384623182E+02 -0.17639885419E+03  0.18976678323E+03  0.41800000000E+01 0.  1.
         -5    1    3    3    0  502  0.13752425612E+03 -0.27934051347E+01 -0.21488750639E+03  0.25517609006E+03  0.41800000000E+01 0.  1.
        -11    1    1    2    0    0 -0.54691163992E+01  0.39853345786E+02 -0.17047493339E+03  0.17515679638E+03  0.00000000000E+00 0. -1.
         11    1    1    2    0    0 -0.15040497401E+03  0.30324682531E+02 -0.71899151954E+03  0.73518028248E+03  0.00000000000E+00 0.  1.
</event>
<event>
 6    1  0.2522928E-009  0.6001735E+02  0.7561462E-02  0.1397759E+00
          2   -1    0    0  501    0  0.00000000000E+00  0.00000000000E+00  0.52532124450E+03  0.52532124450E+03  0.00000000000E+00 0.  1.
         -2   -1    0    0    0  501 -0.00000000000E+00 -0.00000000000E+00 -0.31058870073E+02  0.31058870073E+02  0.00000000000E+00 0. -1.
          5    1    1    2  502    0  0.10825086028E+02  0.20109560560E+02 -0.19230252213E+02  0.30147170906E+02  0.41800000000E+01 0.  1.
         -5    1    1    2    0  502 -0.37332681256E+01  0.25853346605E+01  0.15793391362E+03  0.15805446756E+03  0.41800000000E+01 0.  1.
        -11    1    1    2    0    0  0.27635951643E+02 -0.42478922769E+02  0.25463315915E+03  0.25962713733E+03  0.00000000000E+00 0.  1.
         11    1    1    2    0    0 -0.34727769546E+02  0.19784027549E+02  0.10092555388E+03  0.10855133877E+03  0.00000000000E+00 0. -1.
</event>
<event>
 7    1  0.2522928E-009  0.7083220E+02  0.7561462E-02  0.1357286E+00
          2   -1    0    0  501    0  0.00000000000E+00  0.00000000000E+00  0.40516110792E+02  0.40516110792E+02  0.00000000000E+00 0. -1.
         -2   -1    0    0    0  501 -0.00000000000E+00 -0.00000000000E+00 -0.32605161530E+03  0.32605161530E+03  0.00000000000E+00 0.  1.
         25    2    1    2    0    0  0.26030200698E+02 -0.68737469072E+00 -0.18942287213E+03  0.22848769979E+03  0.12509021000E+03 0.  0.
          5    1    3    3  502    0  0.34190488212E+02 -0.33031492915E+02 -0.13803846571E+02  0.49679850931E+02  0.41800000000E+01 0.  1.
         -5    1    3    3    0  502 -0.81602875142E+01  0.32344118224E+02 -0.17561902556E+03  0.17880784886E+03  0.41800000000E+01 0.  1.
        -11    1    1    2    0    0  0.13395350521E+02 -0.12923677706E+02 -0.94525741785E+02  0.96340919245E+02  0.00000000000E+00 0.  1.
         11    1    1    2    0    0 -0.39425551219E+02  0.13611052397E+02 -0.15868905965E+01  0.41739107059E+02  0.00000000000E+00 0. -1.
</event>
<event>
 6    1  0.2522928E-009  0.1115016E+03  0.7561462E-02  0.1257814E+00
          1   -1    0    0  501    0  0.00000000000E+00  0.00000000000E+00  0.37992197505E+02  0.37992197505E+02  0.00000000000E+00 0. -1.
         -1   -1    0    0    0  501 -0.00000000000E+00 -0.00000000000E+00 -0.38303536723E+03  0.38303536723E+03  0.00000000000E+00 0.  1.
          5    1    1    2  502    0  0.30228224924E+02 -0.22980874126E+02 -0.19017063029E+02  0.42673027124E+02  0.41800000000E+01 0.  1.
         -5    1    1    2    0  502 -0.47462218299E+02  0.75191776384E+02 -0.15347370572E+03  0.17742073201E+03  0.41800000000E+01 0.  1.
        -11    1    1    2    0    0 -0.16721936596E+01  0.20545160115E+02 -0.12499692158E+02  0.24106889883E+02  0.00000000000E+00 0. -1.
         11    1    1    2    0    0  0.18906187035E+02 -0.72756062373E+02 -0.16005270882E+03  0.17682691571E+03  0.00000000000E+00 0.  1.
</event>
<event>
 7    1  0.2522928E-009  0.7818080E+02  0.7561462E-02  0.1334295E+00
          2   -1    0    0  501    0  0.00000000000E+00  0.00000000000E+00  0.22656949504E+03  0.22656949504E+03  0.00000000000E+00 0. -1.
         -2   -1    0    0    0  501 -0.00000000000E+00 -0.00000000000E+00 -0.53387919863E+02  0.53387919863E+02  0.00000000000E+00 0.  1.
         25    2    1    2    0    0 -0.51944724478E+01  0.16733509842E+02  0.97044240392E+02  0.15928588184E+03  0.12508962652E+03 0.  0.
          5    1    3    3  502    0  0.30857305720E+02  0.33825221938E+02  0.10827089900E+03  0.11762813832E+03  0.41800000000E+01 0.  1.
         -5    1    3    3    0  502 -0.36051778167E+02 -0.17091712095E+02 -0.11226658605E+02  0.41657743515E+02  0.41800000000E+01 0.  1.
        -11    1    1    2    0    0 -0.46331166889E+01  0.26005407826E+02 -0.64249256297E+01  0.27185045077E+02  0.00000000000E+00 0.  1.
         11    1    1    2    0    0  0.98275891367E+01 -0.42738917669E+02  0.82562260413E+02  0.93486487987E+02  0.00000000000E+00 0. -1.
</event>
<event>
 7    1  0.2522928E-009  0.2045498E+03  0.7561462E-02  0.1145956E+00
         -1   -1    0    0    0  501 -0.00000000000E+00  0.00000000000E+00  0.19294682704E+03  0.19294682704E+03  0.00000000000E+00 0.  1.
          1   -1    0    0  501    0  0.00000000000E+00 -0.00000000000E+00 -0.32437711677E+03  0.32437711677E+03  0.00000000000E+00 0. -1.
         25    2    1    2    0    0  0.87984588819E+02 -0.15908905071E+03 -0.20828426080E+03  0.30344942336E+03  0.12509438561E+03 0.  0.
          5    1    3    3  502    0 -0.24436676198E+01  0.13709032540E+02  0.40671613071E+01  0.15097128393E+02  0.41800000000E+01 0. -1.
         -5    1    3    3    0  502  0.90428256439E+02 -0.17279808325E+03 -0.21235142211E+03  0.28835229496E+03  0.41800000000E+01 0. -1.
        -11    1    1    2    0    0 -0.40787746578E+02  0.84860080633E+01  0.18860970922E+02  0.45731704843E+02  0.00000000000E+00 0. -1.
         11    1    1    2    0    0 -0.47196842241E+02  0.15060304265E+03  0.57993000153E+02  0.16814281560E+03  0.00000000000E+00 0.  1.
</event>
<event>
 7    1  0.2522928E-009  0.8359657E+02  0.7561462E-02  0.1319144E+00
          1   -1    0    0  501    0  0.00000000000E+00  0.00000000000E+00  0.32548491727E+03  0.32548491727E+03  0.00000000000E+00 0. -1.
         -1   -1    0    0    0  501 -0.00000000000E+00 -0.00000000000E+00 -0.39898262504E+02  0.39898262504E+02  0.00000000000E+00 0.  1.
         25    2    1    2    0    0 -0.19786921084E+02  0.19459729023E+02  0.12081377901E+03  0.17610602370E+03  0.12508860494E+03 0.  0.
          5    1    3    3  502    0 -0.24697845844E+02 -0.21846822121E+02 -0.13169582178E+02  0.35751608647E+02  0.41800000000E+01 0.  1.
         -5    1    3    3    0  502  0.49109247606E+01  0.41306551143E+02  0.13398336118E+03  0.14035441505E+03  0.41800000000E+01 0.  1.
        -11    1    1    2    0    0  0.40493805009E+02 -0.44161024507E+02  0.11978458514E+03  0.13393390596E+03  0.00000000000E+00 0.  1.
         11    1    1    2    0    0 -0.20706883925E+02  0.24701295484E+02  0.44988290622E+02  0.55343250118E+02  0.00000000000E+00 0. -1.
</event>
<event>
 7    1  0.2522928E-009  0.9287595E+02  0.7561462E-02  0.1296033E+00
         -2   -1    0    0    0  501 -0.00000000000E+00  0.00000000000E+00  0.48806400167E+03  0.48806400167E+03  0.00000000000E+00 0.  1.
          2   -1    0    0  501    0  0.00000000000E+00 -0.00000000000E+00 -0.24205639402E+02  0.24205639402E+02  0.00000000000E+00 0. -1.
         25    2    1    2    0    0 -0.11080528368E+02 -0.11365189181E+02  0.26158662417E+03  0.29039114029E+03  0.12508999474E+03 0.  0.
          5    1    3    3  502    0 -0.20157959505E+02 -0.51293457113E+02  0.23495145739E+03  0.24136491420E+03  0.41800000000E+01 0.  1.
         -5    1    3    3    0  502  0.90774311370E+01  0.39928267932E+02  0.26635166776E+02  0.49026226097E+02  0.41800000000E+01 0.  1.
        -11    1    1    2    0    0 -0.20839546653E+02  0.40855671702E+02  0.81394843093E+02  0.93426939889E+02  0.00000000000E+00 0.  1.
         11    1    1    2    0    0  0.31920075021E+02 -0.29490482520E+02  0.12087689501E+03  0.12845156089E+03  0.00000000000E+00 0. -1.
</event>
<event>
 7    1  0.2522928E-009  0.1119889E+03  0.7561462E-02  0.1256931E+00
         -1   -1    0    0    0  501 -0.00000000000E+00  0.00000000000E+00  0.11016645174E+02  0.11016645174E+02  0.00000000000E+00 0.  1.
          1   -1    0    0  501    0  0.00000000000E+00 -0.00000000000E+00 -0.11634780603E+04  0.11634780603E+04  0.00000000000E+00 0. -1.
         25    2    1    2    0    0 -0.21101315162E+02  0.15753989186E+02 -0.71517110566E+03  0.72650553179E+03  0.12508846337E+03 0.  0.
          5    1    3    3  502    0 -0.65059749174E+02  0.40952563443E+02 -0.43015318097E+03  0.43698868969E+03  0.41800000000E+01 0. -1.
         -5    1    3    3    0  502  0.43958434011E+02 -0.25198574257E+02 -0.28501792469E+03  0.28951684210E+03  0.41800000000E+01 0. -1.
        -11    1    1    2    0    0  0.32942902517E+02  0.32610948820E+02 -0.24567564997E+03  0.25001046738E+03  0.00000000000E+00 0. -1.
         11    1    1    2    0    0 -0.11841587355E+02 -0.48364938006E+02 -0.19161465953E+03  0.19797870634E+03  0.00000000000E+00 0.  1.
</event>
<event>
 7    1  0.2522928E-009  0.1099350E+03  0.7561462E-02  0.1260690E+00
          2   -1    0    0  501    0  0.00000000000E+00  0.00000000000E+00  0.36331238443E+03  0.36331238443E+03  0.00000000000E+00 0. -1.
         -2   -1    0    0    0  501 -0.00000000000E+00 -0.00000000000E+00 -0.36780312467E+02  0.36780312467E+02  0.00000000000E+00 0.  1.
         25    2    1    2    0    0  0.80026667407E+01 -0.21168046272E+02  0.12959313798E+03  0.18153354657E+03  0.12509163946E+03 0.  0.
          5    1    3    3  502    0  0.59508671846E+02 -0.38863974619E+02  0.86010339753E+02  0.11165545886E+03  0.41800000000E+01 0.  1.
         -5    1    3    3    0  502 -0.51506005106E+02  0.17695928347E+02  0.43582798225E+02  0.69878087718E+02  0.41800000000E+01 0.  1.
        -11    1    1    2    0    0 -0.49206027645E+02  0.38520687771E+01  0.11678643087E+03  0.12678778343E+03  0.00000000000E+00 0.  1.
         11    1    1    2    0    0  0.41203360905E+02  0.17315977495E+02  0.80152503112E+02  0.91771366894E+02  0.00000000000E+00 0. -1.
</event>
<event>
 7    1  0.3088526E-009  0.1210247E+03  0.7561462E-02  0.1241416E+00
         -2   -1    0    0    0  501 -0.00000000000E+00  0.00000000000E+00  0.38716930488E+02  0.38716930488E+02  0.00000000000E+00 0.  1.
          2   -1    0    0  501    0  0.00000000000E+00 -0.00000000000E+00 -0.65604858349E+03  0.65604858349E+03  0.00000000000E+00 0. -1.
         25    2    1    2    0    0  0.39066031568E+02  0.10490153542E+03 -0.40126566720E+03  0.43496470197E+03  0.12509863839E+03 0.  0.
          5    1    3    3  502    0  0.21602963242E+02  0.51230334141E+01 -0.16086139790E+01  0.22649360501E+02  0.41800000000E+01 0. -1.
         -5    1    3    3    0  502  0.17463068326E+02  0.99778502004E+02 -0.39965705322E+03  0.41231534147E+03  0.41800000000E+01 0. -1.
        -11    1    1    2    0    0 -0.23129837329E+02 -0.16907635877E+02 -0.30953847334E+01  0.28817337359E+02  0.00000000000E+00 0.  1.
         11    1    1    2    0    0 -0.15936194239E+02 -0.87993899542E+02 -0.21297060106E+03  0.23098347465E+03  0.00000000000E+00 0. -1.
</event>
<event>
 7    1  0.3024099E-009  0.7792538E+02  0.7561462E-02  0.1335044E+00
          1   -1    0    0  501    0  0.00000000000E+00  0.00000000000E+00  0.74851495700E+03  0.74851495700E+03  0.00000000000E+00 0. -1.
         -1   -1    0    0    0  501 -0.00000000000E+00 -0.00000000000E+00 -0.17802412530E+02  0.17802412530E+02  0.00000000000E+00 0.  1.
         25    2    1    2    0    0  0.19820310156E+02 -0.14824058308E+02  0.51768730433E+03  0.53316046754E+03  0.12508933482E+03 0.  0.
          5    1    3    3  502    0  0.20374364630E+02 -0.48085050064E+02  0.47945913456E+03  0.48231299058E+03  0.41800000000E+01 0. -1.
         -5    1    3    3    0  502 -0.55405447453E+00  0.33260991757E+02  0.38228169777E+02  0.50847476962E+02  0.41800000000E+01 0. -1.
        -11    1    1    2    0    0  0.22867568048E+02 -0.41110312199E+01  0.10821530636E+02  0.25630680276E+02  0.00000000000E+00 0.  1.
         11    1    1    2    0    0 -0.42687878204E+02  0.18935089528E+02  0.20220370950E+03  0.20752622171E+03  0.00000000000E+00 0. -1.
</event>
<event>
 7    1  0.2522928E-009  0.2442912E+03  0.7561462E-02  0.1116967E+00
          1   -1    0    0  501    0  0.00000000000E+00  0.00000000000E+00  0.20559947516E+03  0.20559947516E+03  0.00000000000E+00 0. -1.
         -1   -1    0    0    0  501 -0.00000000000E+00 -0.00000000000E+00 -0.34158464440E+03  0.34158464440E+03  0.00000000000E+00 0.  1.
         25    2    1    2    0    0  0.95321143836E+02  0.20687023638E+03 -0.15261447327E+03  0.30136360491E+03  0.12508968684E+03 0.  0.
          5    1    3    3  502    0  0.85508071739E+02  0.22393068334E+03 -0.14131106859E+03  0.27828559391E+03  0.41800000000E+01 0.  1.
         -5    1    3    3    0  502  0.98130720971E+01 -0.17060446960E+02 -0.11303404673E+02  0.23078010999E+02  0.41800000000E+01 0.  1.
        -11    1    1    2    0    0 -0.28041785523E+02 -0.85141921474E+02  0.50203470063E+02  0.10274179740E+03  0.00000000000E+00 0. -1.
         11    1    1    2    0    0 -0.67279358314E+02 -0.12172831490E+03 -0.33574166037E+02  0.14307871725E+03  0.00000000000E+00 0.  1.
</event>
<event>
 7    1  0.2522928E-009  0.7604292E+02  0.7561462E-02  0.1340672E+00
         -2   -1    0    0    0  501 -0.00000000000E+00  0.00000000000E+00  0.13907523393E+03  0.13907523393E+03  0.00000000000E+00 0.  1.
          2   -1    0    0  501    0  0.00000000000E+00 -0.00000000000E+00 -0.93667674324E+02  0.93667674324E+02  0.00000000000E+00 0. -1.
         25    2    1    2    0    0  0.12126253145E+02 -0.31808174059E+02  0.10877054478E+02  0.13009275752E+03  0.12508800619E+03 0.  0.
          5    1    3    3  502    0  0.59092236084E+01  0.16210446856E+02  0.59051618945E+02  0.61662497605E+02  0.41800000000E+01 0.  1.
         -5    1    3    3    0  502  0.62170295368E+01 -0.48018620914E+02 -0.48174564467E+02  0.68430259917E+02  0.41800000000E+01 0.  1.
        -11    1    1    2    0    0 -0.15102041989E+02  0.57713979642E+02  0.34945286362E+00  0.59658169899E+02  0.00000000000E+00 0. -1.
         11    1    1    2    0    0  0.29757888434E+01 -0.25905805583E+02  0.34181052267E+02  0.42991980837E+02  0.00000000000E+00 0.  1.
</event>
<event>
 7    1  0.2522928E-009  0.1107967E+03  0.7561462E-02  0.1259102E+00
         -3   -1    0    0    0  501 -0.00000000000E+00  0.00000000000E+00  0.71204569240E+03  0.71204569240E+03  0.00000000000E+00 0.  1.
          3   -1    0    0  501    0  0.00000000000E+00 -0.00000000000E+00 -0.31504920967E+02  0.31504920967E+02  0.00000000000E+00 0. -1.
         25    2    1    2    0    0 -0.41743092617E+02  0.93276684791E+02  0.31738788454E+03  0.35612597085E+03  0.12509041592E+03 0.  0.
          5    1    3    3  502    0  0.94674380795E+01  0.82582446171E+01  0.20777550222E+03  0.20819693252E+03  0.41800000000E+01 0. -1.
         -5    1    3    3    0  502 -0.51210530697E+02  0.85018440174E+02  0.10961238232E+03  0.14792903833E+03  0.41800000000E+01 0. -1.
        -11    1    1    2    0    0  0.41419430708E+02 -0.46639390614E+02  0.31211542522E+03  0.31828735548E+03  0.00000000000E+00 0.  1.
         11    1    1    2    0    0  0.32366190971E+00 -0.46637294177E+02  0.51037461680E+02  0.69137287045E+02  0.00000000000E+00 0. -1.
</event>
<event>
 7    1  0.2522928E-009  0.1121326E+03  0.7561462E-02  0.1256671E+00
          1   -1    0    0  501    0  0.00000000000E+00  0.00000000000E+00  0.89279322736E+03  0.89279322736E+03  0.00000000000E+00 0. -1.
         -1   -1    0    0    0  501 -0.00000000000E+00 -0.00000000000E+00 -0.18515341857E+02  0.18515341857E+02  0.00000000000E+00 0.  1.
         25    2    1    2    0    0  0.64018529485E+02  0.80720848414E+01  0.58022996145E+03  0.59705885846E+03  0.12509572985E+03 0.  0.
          5    1    3    3  502    0 -0.31482620452E+01 -0.36517312506E+02  0.37044318230E+03  0.37227550198E+03  0.41800000000E+01 0. -1.
         -5    1    3    3    0  502  0.67166791530E+02  0.44589397347E+02  0.20978677915E+03  0.22478335647E+03  0.41800000000E+01 0. -1.
        -11    1    1    2    0    0 -0.71665418022E+02  0.22514290544E+02  0.24206881591E+03  0.25345638097E+03  0.00000000000E+00 0. -1.
         11    1    1    2    0    0  0.76468885373E+01 -0.30586375385E+02  0.51979108139E+02  0.60793329786E+02  0.00000000000E+00 0.  1.
</event>
<event>
 7    1  0.2522928E-009  0.1094131E+03  0.7561462E-02  0.1261661E+00
          2   -1    0    0  501    0  0.00000000000E+00  0.00000000000E+00  0.38931432454E+03  0.38931432454E+03  0.00000000000E+00 0. -1.
         -2   -1    0    0    0  501 -0.00000000000E+00 -0.00000000000E+00 -0.43915097836E+02  0.43915097836E+02  0.00000000000E+00 0.  1.
         25    2    1    2    0    0 -0.30956219509E+02 -0.33702542515E+02  0.96398078751E+02  0.16442169296E+03  0.12509098541E+03 0.  0.
          5    1    3    3  502    0  0.29605883868E+02 -0.49128585131E+02  0.11062032996E+02  0.58565921923E+02  0.41800000000E+01 0.  1.
         -5    1    3    3    0  502 -0.60562103377E+02  0.15426042616E+02  0.85336045755E+02  0.10585577103E+03  0.41800000000E+01 0.  1.
        -11    1    1    2    0    0  0.31648830084E+02 -0.24777888305E+02  0.13231385766E+03  0.13828430541E+03  0.00000000000E+00 0. -1.
         11    1    1    2    0    0 -0.69261057497E+00  0.58480430820E+02  0.11668729030E+03  0.13052342401E+03  0.00000000000E+00 0.  1.
</event>
<event>
 7    1  0.3968649E-009  0.9503956E+02  0.7561462E-02  0.1291087E+00
         -1   -1    0    0    0  501 -0.00000000000E+00  0.00000000000E+00  0.63031068380E+02  0.63031068380E+02  0.00000000000E+00 0.  1.
          1   -1    0    0  501    0  0.00000000000E+00 -0.00000000000E+00 -0.47301706136E+03  0.47301706136E+03  0.00000000000E+00 0. -1.
         25    2    1    2    0    0  0.35607714825E+02 -0.84982228216E+02 -0.36888316620E+03  0.40026530227E+03  0.12509050094E+03 0.  0.
          5    1    3    3  502    0  0.36425237391E+02 -0.53253027742E+02 -0.36172936057E+03  0.36746195120E+03  0.41800000000E+01 0.  1.
         -5    1    3    3    0  502 -0.81752256622E+00 -0.31729200474E+02 -0.71538056261E+01  0.32803351061E+02  0.41800000000E+01 0.  1.
        -11    1    1    2    0    0 -0.22593750897E+02  0.34209631399E+02  0.27561033790E+02  0.49400273720E+02  0.00000000000E+00 0.  1.
         11    1    1    2    0    0 -0.13013963928E+02  0.50772596817E+02 -0.68663860568E+02  0.86382553752E+02  0.00000000000E+00 0. -1.
</event>
<event>
 7    1  0.2522928E-009  0.2087368E+03  0.7561462E-02  0.1142570E+00
         -1   -1    0    0    0  501 -0.00000000000E+00  0.00000000000E+00  0.31093595974E+03  0.31093595974E+03  0.00000000000E+00 0.  1.
          1   -1    0    0  501    0  0.00000000000E+00 -0.00000000000E+00 -0.19407649505E+03  0.19407649505E+03  0.00000000000E+00 0. -1.
         25    2    1    2    0    0 -0.69899328528E+02  0.17842342194E+03  0.17132620686E+03  0.28586717814E+03  0.12508613333E+03 0.  0.
          5    1    3    3  502    0 -0.10200505264E+03  0.11217044617E+03  0.91234189057E+02  0.17699827516E+03  0.41800000000E+01 0. -1.
         -5    1    3    3    0  502  0.32105724107E+02  0.66252975770E+02  0.80092017804E+02  0.10886890297E+03  0.41800000000E+01 0. -1.
        -11    1    1    2    0    0  0.26226085013E+02 -0.50795427113E+02 -0.61630995033E+02  0.84061658915E+02  0.00000000000E+00 0. -1.
         11    1    1    2    0    0  0.43673243515E+02 -0.12762799483E+03  0.71642528660E+01  0.13508361774E+03  0.00000000000E+00 0.  1.
</event>
<event>
 7    1  0.2522928E-009  0.1002473E+03  0.7561462E-02  0.1279777E+00
         -2   -1    0    0    0  501 -0.00000000000E+00  0.00000000000E+00  0.78102343513E+02  0.78102343513E+02  0.00000000000E+00 0.  1.
          2   -1    0    0  501    0  0.00000000000E+00 -0.00000000000E+00 -0.19833914271E+03  0.19833914271E+03  0.00000000000E+00 0. -1.
         25    2    1    2    0    0 -0.46008398474E+02 -0.40473079710E+02 -0.72111419107E+02  0.15685110994E+03  0.12508945204E+03 0.  0.
          5    1    3    3  502    0 -0.74812347805E+02  0.65460041718E+01 -0.13766028244E+02  0.76463805087E+02  0.41800000000E+01 0.  1.
         -5    1    3    3    0  502  0.28803949331E+02 -0.47019083881E+02 -0.58345390862E+02  0.80387304850E+02  0.41800000000E+01 0.  1.
        -11    1    1    2    0    0  0.44368309497E+02  0.18702196629E+02  0.16875720515E+02  0.51020672176E+02  0.00000000000E+00 0.  1.
         11    1    1    2    0    0  0.16400889767E+01  0.21770883081E+02 -0.65001100609E+02  0.68569704114E+02  0.00000000000E+00 0. -1.
</event>
<event>
 7    1  0.2522928E-009  0.1562419E+03  0.7561462E-02  0.1193006E+00
          2   -1    0    0  501    0  0.00000000000E+00  0.00000000000E+00  0.45382990737E+03  0.45382990737E+03  0.00000000000E+00 0. -1.
         -2   -1    0    0    0  501 -0.00000000000E+00 -0.00000000000E+00 -0.66289489344E+02  0.66289489344E+02  0.00000000000E+00 0.  1.
         25    2    1    2    0    0 -0.10335367388E+03  0.46070563592E+02  0.17766957147E+03  0.24498766957E+03  0.12509197767E+03 0.  0.
          5    1    3    3  502    0 -0.80955155061E+02 -0.23525938830E+02  0.50845362117E+02  0.98538977961E+02  0.41800000000E+01 0. -1.
         -5    1    3    3    0  502 -0.22398518823E+02  0.69596502422E+02  0.12682420936E+03  0.14644869161E+03  0.41800000000E+01 0. -1.
        -11    1    1    2    0    0 -0.21312291402E+02  0.16067954534E+01 -0.52133841064E+01  0.21999430226E+02  0.00000000000E+00 0.  1.
         11    1    1    2    0    0  0.12466596529E+03 -0.47677359045E+02  0.21508423066E+03  0.25313229692E+03  0.00000000000E+00 0. -1.
</event>
<event>
 7    1  0.2522928E-009  0.9150339E+02  0.7561462E-02  0.1299251E+00
          4   -1    0    0  501    0  0.00000000000E+00  0.00000000000E+00  0.34698166754E+03  0.34698166754E+03  0.00000000000E+00 0. -1.
         -4   -1    0    0    0  501 -0.00000000000E+00 -0.00000000000E+00 -0.75490478690E+02  0.75490478690E+02  0.00000000000E+00 0.  1.
         25    2    1    2    0    0 -0.37646202319E+02  0.99183742213E+01 -0.63467986086E+00  0.13100962300E+03  0.12508999881E+03 0.  0.
          5    1    3    3  502    0 -0.15631755762E+01  0.44837038462E+02 -0.45141742007E+02  0.63781288850E+02  0.41800000000E+01 0. -1.
         -5    1    3    3    0  502 -0.36083026743E+02 -0.34918664241E+02  0.44507062146E+02  0.67228334146E+02  0.41800000000E+01 0. -1.
        -11    1    1    2    0    0  0.26619391512E+02  0.33486827439E+02  0.21320354063E+03  0.21745277500E+03  0.00000000000E+00 0. -1.
         11    1    1    2    0    0  0.11026810807E+02 -0.43405201660E+02  0.58922328078E+02  0.74009748236E+02  0.00000000000E+00 0.  1.
</event>
<event>
 7    1  0.2522928E-009  0.2539670E+03  0.7561462E-02  0.1110823E+00
         -1   -1    0    0    0  501 -0.00000000000E+00  0.00000000000E+00  0.28720090395E+03  0.28720090395E+03  0.00000000000E+00 0.  1.
          1   -1    0    0  501    0  0.00000000000E+00 -0.00000000000E+00 -0.32323711282E+03  0.32323711282E+03  0.00000000000E+00 0. -1.
         25    2    1    2    0    0 -0.82279165816E+01 -0.24792215935E+03 -0.16391094064E+03  0.32256113827E+03  0.12508315534E+03 0.  0.
          5    1    3    3  502    0 -0.40801958878E+02 -0.17495171783E+03 -0.16288824535E+03  0.24253444352E+03  0.41800000000E+01 0. -1.
         -5    1    3    3    0  502  0.32574042296E+02 -0.72970441514E+02 -0.10226952948E+01  0.80026694746E+02  0.41800000000E+01 0. -1.
        -11    1    1    2    0    0  0.51551522694E+01  0.48564443122E+02  0.59769193078E+02  0.77184436073E+02  0.00000000000E+00 0.  1.
         11    1    1    2    0    0  0.30727643122E+01  0.19935771622E+03  0.68105538692E+02  0.21069244243E+03  0.00000000000E+00 0. -1.
</event>
<event>
 7    1  0.2522928E-009  0.8912523E+02  0.7561462E-02  0.1304984E+00
          1   -1    0    0  501    0  0.00000000000E+00  0.00000000000E+00  0.66607443825E+02  0.66607443825E+02  0.00000000000E+00 0. -1.
         -1   -1    0    0    0  501 -0.00000000000E+00 -0.00000000000E+00 -0.21002690181E+03  0.21002690181E+03  0.00000000000E+00 0.  1.
         25    2    1    2    0    0 -0.17492825538E+02  0.34739766930E+02 -0.11311878670E+03  0.17307677529E+03  0.12508740900E+03 0.  0.
          5    1    3    3  502    0  0.34499778280E+02  0.62606099964E+02 -0.56580916134E+02  0.91261333130E+02  0.41800000000E+01 0.  1.
         -5    1    3    3    0  502 -0.51992603818E+02 -0.27866333034E+02 -0.56537870562E+02  0.81815442162E+02  0.41800000000E+01 0.  1.
        -11    1    1    2    0    0  0.79580162614E+00 -0.30192790035E+02  0.28946628932E+02  0.41834736725E+02  0.00000000000E+00 0. -1.
         11    1    1    2    0    0  0.16697023912E+02 -0.45469768950E+01 -0.59247300225E+02  0.61722833622E+02  0.00000000000E+00 0.  1.
</event>
<event>
 7    1  0.2522928E-009  0.2330068E+03  0.7561462E-02  0.1124541E+00
         -1   -1    0    0    0  501 -0.00000000000E+00  0.00000000000E+00  0.57139338944E+02  0.57139338944E+02  0.00000000000E+00 0. -1.
          1   -1    0    0  501    0  0.00000000000E+00 -0.00000000000E+00 -0.10224538182E+04  0.10224538182E+04  0.00000000000E+00 0.  1.
         25    2    1    2    0    0  0.19012850083E+03  0.93110194043E+02 -0.40836723600E+03  0.47668608327E+03  0.12508983762E+03 0.  0.
          5    1    3    3  502    0  0.18798407370E+03  0.45251089337E+02 -0.35893019457E+03  0.40771807665E+03  0.41800000000E+01 0. -1.
         -5    1    3    3    0  502  0.21444271263E+01  0.47859104706E+02 -0.49437041430E+02  0.68968006613E+02  0.41800000000E+01 0. -1.
        -11    1    1    2    0    0 -0.56683597719E+02 -0.68361663976E+02 -0.29223129069E+03  0.30542670906E+03  0.00000000000E+00 0.  1.
         11    1    1    2    0    0 -0.13344490311E+03 -0.24748530067E+02 -0.26471595252E+03  0.29748036477E+03  0.00000000000E+00 0. -1.
</event>
<event>
 7    1  0.2522928E-009  0.1135999E+03  0.7561462E-02  0.1254045E+00
         -1   -1    0    0    0  501 -0.00000000000E+00  0.00000000000E+00  0.15974128958E+03  0.15974128958E+03  0.00000000000E+00 0.  1.
          1   -1    0    0  501    0  0.00000000000E+00 -0.00000000000E+00 -0.14723756196E+03  0.14723756196E+03  0.00000000000E+00 0. -1.
         25    2    1    2    0    0 -0.45763897308E+02 -0.83055027426E+02  0.57977409780E+02  0.16733423479E+03  0.12508754618E+03 0.  0.
          5    1    3    3  502    0 -0.38096919935E+02 -0.88695986359E+02 -0.11300493909E+02  0.97280660294E+02  0.41800000000E+01 0. -1.
         -5    1    3    3    0  502 -0.76669773731E+01  0.56409589327E+01  0.69277903688E+02  0.70053574492E+02  0.41800000000E+01 0. -1.
        -11    1    1    2    0    0  0.64367596050E+02  0.47304899229E+02 -0.56523489959E+02  0.97856250845E+02  0.00000000000E+00 0. -1.
         11    1    1    2    0    0 -0.18603698742E+02  0.35750128197E+02  0.11049807798E+02  0.41788365910E+02  0.00000000000E+00 0.  1.
</event>
<event>
 7    1  0.2522928E-009  0.8975290E+02  0.7561462E-02  0.1303451E+00
         -2   -1    0    0    0  501 -0.00000000000E+00  0.00000000000E+00  0.31379273013E+02  0.31379273013E+02  0.00000000000E+00 0.  1.
          2   -1    0    0  501    0  0.00000000000E+00 -0.00000000000E+00 -0.40055310149E+03  0.40055310149E+03  0.00000000000E+00 0. -1.
         25    2    1    2    0    0 -0.18345204254E+02  0.24529841539E+02 -0.20950175337E+03  0.24592417581E+03  0.12509778550E+03 0.  0.
          5    1    3    3  502    0 -0.61798019755E+02 -0.17839816168E+02 -0.79150106513E+02  0.10207578580E+03  0.41800000000E+01 0. -1.
         -5    1    3    3    0  502  0.43452815501E+02  0.42369657707E+02 -0.13035164686E+03  0.14384839001E+03  0.41800000000E+01 0. -1.
        -11    1    1    2    0    0  0.21197904553E+02  0.71766516267E+01  0.81457068488E+00  0.22394620144E+02  0.00000000000E+00 0.  1.
         11    1    1    2    0    0 -0.28527002992E+01 -0.31706493165E+02 -0.16048664579E+03  0.16361357855E+03  0.00000000000E+00 0. -1.
</event>
<event>
 7    1  0.2522928E-009  0.1446850E+03  0.7561462E-02  0.1207160E+00
          1   -1    0    0  501    0  0.00000000000E+00  0.00000000000E+00  0.16022940513E+03  0.16022940513E+03  0.00000000000E+00 0. -1.
         -1   -1    0    0    0  501 -0.00000000000E+00 -0.00000000000E+00 -0.18957571782E+03  0.18957571782E+03  0.00000000000E+00 0.  1.
         25    2    1    2    0    0  0.94789104857E+02 -0.84369899460E+02  0.35491624796E+02  0.18168998458E+03  0.12509332809E+03 0.  0.
          5    1    3    3  502    0  0.96303517558E+02 -0.86891353536E+02  0.69558089804E+02  0.14724223263E+03  0.41800000000E+01 0. -1.
         -5    1    3    3    0  502 -0.15144127004E+01  0.25214540759E+01 -0.34066465008E+02  0.34447751953E+02  0.41800000000E+01 0. -1.
        -11    1    1    2    0    0 -0.75056337309E+02  0.10293210150E+03 -0.59054856197E+02  0.14041348699E+03  0.00000000000E+00 0. -1.
         11    1    1    2    0    0 -0.19732767548E+02 -0.18562202038E+02 -0.57830812910E+01  0.27701651373E+02  0.00000000000E+00 0.  1.
</event>
<event>
 7    1  0.2522928E-009  0.1053189E+03  0.7561462E-02  0.1269493E+00
         -2   -1    0    0    0  501 -0.00000000000E+00  0.00000000000E+00  0.20313757446E+03  0.20313757446E+03  0.00000000000E+00 0.  1.
          2   -1    0    0  501    0  0.00000000000E+00 -0.00000000000E+00 -0.95095294105E+02  0.95095294105E+02  0.00000000000E+00 0. -1.
         25    2    1    2    0    0  0.80747661845E+02 -0.33168276017E+02  0.64733548699E+02  0.16570416693E+03  0.12508844544E+03 0.  0.
          5    1    3    3  502    0  0.19306702450E+02 -0.53798576556E+02  0.80551707674E+02  0.98858917697E+02  0.41800000000E+01 0.  1.
         -5    1    3    3    0  502  0.61440959395E+02  0.20630300539E+02 -0.15818158975E+02  0.66845249233E+02  0.41800000000E+01 0.  1.
        -11    1    1    2    0    0 -0.19267570771E+02  0.17755145675E+01  0.58696292156E+02  0.61803288329E+02  0.00000000000E+00 0.  1.
         11    1    1    2    0    0 -0.61480091074E+02  0.31392761450E+02 -0.15387560496E+02  0.70725413310E+02  0.00000000000E+00 0. -1.
</event>
<event>
 7    1  0.2522928E-009  0.9215612E+02  0.7561462E-02  0.1297713E+00
          2   -1    0    0  501    0  0.00000000000E+00  0.00000000000E+00  0.34236857395E+03  0.34236857395E+03  0.00000000000E+00 0. -1.
         -2   -1    0    0    0  501 -0.00000000000E+00 -0.00000000000E+00 -0.38617010985E+02  0.38617010985E+02  0.00000000000E+00 0.  1.
         25    2    1    2    0    0  0.39909425330E+02 -0.17572101991E-01  0.18208788803E+03  0.22449186575E+03  0.12509131177E+03 0.  0.
          5    1    3    3  502    0 -0.39279827207E+02  0.15405420304E+02  0.10323304715E+03  0.11160092394E+03  0.41800000000E+01 0.  1.
         -5    1    3    3    0  502  0.79189252538E+02 -0.15422992406E+02  0.78854840877E+02  0.11289094181E+03  0.41800000000E+01 0.  1.
        -11    1    1    2    0    0 -0.13263106676E+02  0.22596512913E+02 -0.36041457126E+01  0.26448105052E+02  0.00000000000E+00 0.  1.
         11    1    1    2    0    0 -0.26646318654E+02 -0.22578940811E+02  0.12526782065E+03  0.13004561413E+03  0.00000000000E+00 0. -1.
</event>
<event>
 7    1  0.2522928E-009  0.1036731E+03  0.7561462E-02  0.1272756E+00
         -3   -1    0    0    0  501 -0.00000000000E+00  0.00000000000E+00  0.40261917116E+02  0.40261917116E+02  0.00000000000E+00 0.  1.
          3   -1    0    0  501    0  0.00000000000E+00 -0.00000000000E+00 -0.44171464796E+03  0.44171464796E+03  0.00000000000E+00 0. -1.
         25    2    1    2    0    0 -0.45371548831E+02  0.11744750039E+02 -0.28246635579E+03  0.31245918831E+03  0.12508791153E+03 0.  0.
          5    1    3    3  502    0 -0.43346858561E+02 -0.49155542253E+02 -0.96549520169E+02  0.11676686057E+03  0.41800000000E+01 0.  1.
         -5    1    3    3    0  502 -0.20246902697E+01  0.60900292291E+02 -0.18591683562E+03  0.19569232775E+03  0.41800000000E+01 0.  1.
        -11    1    1    2    0    0  0.37578692298E+02  0.23619660643E+02  0.78406012346E+00  0.44392130316E+02  0.00000000000E+00 0.  1.
         11    1    1    2    0    0  0.77928565335E+01 -0.35364410682E+02 -0.11977043517E+03  0.12512524644E+03  0.00000000000E+00 0. -1.
</event>
<event>
 7    1  0.2522928E-009  0.1070933E+03  0.7561462E-02  0.1266049E+00
          2   -1    0    0  501    0  0.00000000000E+00  0.00000000000E+00  0.25532997887E+03  0.25532997887E+03  0.00000000000E+00 0. -1.
         -2   -1    0    0    0  501 -0.00000000000E+00 -0.00000000000E+00 -0.74213935205E+02  0.74213935205E+02  0.00000000000E+00 0.  1.
         25    2    1    2    0    0  0.59952251128E+01  0.81114931604E+02  0.12653421206E+03  0.19563757739E+03  0.12509028744E+03 0.  0.
          5    1    3    3  502    0  0.79944785190E+01  0.85236444114E+02  0.14923882445E+03  0.17210131381E+03  0.41800000000E+01 0.  1.
         -5    1    3    3    0  502 -0.19992534062E+01 -0.41215125100E+01 -0.22704612390E+02  0.23536263580E+02  0.41800000000E+01 0.  1.
        -11    1    1    2    0    0 -0.25333644131E+02  0.11384102144E+02  0.12876146298E+02  0.30613501107E+02  0.00000000000E+00 0. -1.
         11    1    1    2    0    0  0.19338419018E+02 -0.92499033748E+02  0.41705685304E+02  0.10329283557E+03  0.00000000000E+00 0.  1.
</event>
<event>
 7    1  0.2522928E-009  0.9734679E+02  0.7561462E-02  0.1285976E+00
          2   -1    0    0  501    0  0.00000000000E+00  0.00000000000E+00  0.10452332291E+03  0.10452332291E+03  0.00000000000E+00 0. -1.
         -2   -1    0    0    0  501 -0.00000000000E+00 -0.00000000000E+00 -0.11781992828E+03  0.11781992828E+03  0.00000000000E+00 0.  1.
         25    2    1    2    0    0  0.18799269345E+02 -0.14989410592E+01  0.58441215940E+01  0.12663777255E+03  0.12508921747E+03 0.  0.
          5    1    3    3  502    0 -0.26179156987E+01  0.51236395041E+02  0.35298338442E+02  0.62413674432E+02  0.41800000000E+01 0.  1.
         -5    1    3    3    0  502  0.21417185044E+02 -0.52735336100E+02 -0.29454216848E+02  0.64224098116E+02  0.41800000000E+01 0.  1.
        -11    1    1    2    0    0  0.33425746658E+02  0.50404335700E+01  0.10694311050E+02  0.35454968609E+02  0.00000000000E+00 0. -1.
         11    1    1    2    0    0 -0.52225016003E+02 -0.35414925108E+01 -0.29835038022E+02  0.60250510035E+02  0.00000000000E+00 0.  1.
</event>
<event>
 7    1  0.2522928E-009  0.9628098E+02  0.7561462E-02  0.1288317E+00
         -2   -1    0    0    0  501 -0.00000000000E+00  0.00000000000E+00  0.17271813362E+03  0.17271813362E+03  0.00000000000E+00 0.  1.
          2   -1    0    0  501    0  0.00000000000E+00 -0.00000000000E+00 -0.71692483550E+02  0.71692483550E+02  0.00000000000E+00 0. -1.
         25    2    1    2    0    0  0.58408350588E+01  0.12140489973E+02  0.80322350637E+02  0.14926045885E+03  0.12508196399E+03 0.  0.
          5    1    3    3  502    0 -0.45066220118E+02  0.27707264286E+02  0.31210844177E+00  0.53068130753E+02  0.41800000000E+01 0.  1.
         -5    1    3    3    0  502  0.50907055177E+02 -0.15566774313E+02  0.80010242195E+02  0.96192328101E+02  0.41800000000E+01 0.  1.
        -11    1    1    2    0    0 -0.21866625249E+02  0.32214928396E+02  0.27267417741E+02  0.47533808827E+02  0.00000000000E+00 0.  1.
         11    1    1    2    0    0  0.16025790190E+02 -0.44355418369E+02 -0.65641183046E+01  0.47616349493E+02  0.00000000000E+00 0. -1.
</event>
<event>
 7    1  0.2522928E-009  0.7126310E+02  0.7561462E-02  0.1355850E+00
         -1   -1    0    0    0  501 -0.00000000000E+00  0.00000000000E+00  0.40229479413E+03  0.40229479413E+03  0.00000000000E+00 0.  1.
          1   -1    0    0  501    0  0.00000000000E+00 -0.00000000000E+00 -0.33710999277E+02  0.33710999277E+02  0.00000000000E+00 0. -1.
         25    2    1    2    0    0 -0.27654505723E+02  0.19576555034E+02  0.26353638817E+03  0.29367794498E+03  0.12508914537E+03 0.  0.
          5    1    3    3  502    0 -0.24042377728E+02 -0.10305070182E+02 -0.18530476097E+01  0.26554407990E+02  0.41800000000E+01 0. -1.
         -5    1    3    3    0  502 -0.36121279950E+01  0.29881625216E+02  0.26538943578E+03  0.26712353699E+03  0.41800000000E+01 0. -1.
        -11    1    1    2    0    0  0.50921019331E+02  0.57647585378E+01  0.92428152185E+02  0.10568418031E+03  0.00000000000E+00 0. -1.
         11    1    1    2    0    0 -0.23266513608E+02 -0.25341313571E+02  0.12619254505E+02  0.36643668120E+02  0.00000000000E+00 0.  1.
</event>
<event>
 7    1  0.2522928E-009  0.2084741E+03  0.7561462E-02  0.1142780E+00
         -1   -1    0    0    0  501 -0.00000000000E+00  0.00000000000E+00  0.57650066560E+02  0.57650066560E+02  0.00000000000E+00 0.  1.
          1   -1    0    0  501    0  0.00000000000E+00 -0.00000000000E+00 -0.88212947709E+03  0.88212947709E+03  0.00000000000E+00 0. -1.
         25    2    1    2    0    0  0.19248236490E+03 -0.30250291429E+02 -0.49609672756E+03  0.54747024738E+03  0.12508863952E+03 0.  0.
          5    1    3    3  502    0  0.16040718909E+03  0.20436677056E+02 -0.42266901442E+03  0.45256457244E+03  0.41800000000E+01 0.  1.
         -5    1    3    3    0  502  0.32075175803E+02 -0.50686968486E+02 -0.73427713143E+02  0.94905674933E+02  0.41800000000E+01 0.  1.
        -11    1    1    2    0    0 -0.14644314684E+03  0.19024774356E+02 -0.30627617100E+03  0.34001857334E+03  0.00000000000E+00 0.  1.
         11    1    1    2    0    0 -0.46039218058E+02  0.11225517074E+02 -0.22106511965E+02  0.52290722927E+02  0.00000000000E+00 0. -1.
</event>
<event>
 7    1  0.2522928E-009  0.3726925E+03  0.7561462E-02  0.1053668E+00
          2   -1    0    0  501    0  0.00000000000E+00  0.00000000000E+00  0.31725255649E+03  0.31725255649E+03  0.00000000000E+00 0. -1.
         -2   -1    0    0    0  501 -0.00000000000E+00 -0.00000000000E+00 -0.53052504627E+03  0.53052504627E+03  0.00000000000E+00 0.  1.
         25    2    1    2    0    0  0.14646697619E+03 -0.34133115221E+03  0.32159534592E+02  0.39324545147E+03  0.12509284095E+03 0.  0.
          5    1    3    3  502    0  0.45823112831E+01 -0.29401947587E+02 -0.32748103418E+02  0.44445278445E+02  0.41800000000E+01 0. -1.
         -5    1    3    3    0  502  0.14188466491E+03 -0.31192920462E+03  0.64907638010E+02  0.34880017303E+03  0.41800000000E+01 0. -1.
        -11    1    1    2    0    0 -0.42961644298E+02  0.68895047440E+02 -0.14018794859E+02  0.82393913925E+02  0.00000000000E+00 0. -1.
         11    1    1    2    0    0 -0.10350533189E+03  0.27243610477E+03 -0.23141322951E+03  0.37213823736E+03  0.00000000000E+00 0.  1.
</event>
<event>
 7    1  0.2522928E-009  0.3292458E+03  0.7561462E-02  0.1071471E+00
         -4   -1    0    0    0  501 -0.00000000000E+00  0.00000000000E+00  0.52548662357E+03  0.52548662357E+03  0.00000000000E+00 0.  1.
          4   -1    0    0  501    0  0.00000000000E+00 -0.00000000000E+00 -0.23074630055E+03  0.23074630055E+03  0.00000000000E+00 0. -1.
         25    2    1    2    0    0  0.16786118454E+03  0.26763469477E+03  0.44250757733E+02  0.34265314585E+03  0.12508933479E+03 0.  0.
          5    1    3    3  502    0  0.93890462593E+02  0.23571563605E+03  0.71579641608E+01  0.25386214546E+03  0.41800000000E+01 0. -1.
         -5    1    3    3    0  502  0.73970721948E+02  0.31919058719E+02  0.37092793572E+02  0.88791000388E+02  0.41800000000E+01 0. -1.
        -11    1    1    2    0    0 -0.76935120082E+02 -0.60595567521E+02  0.44012576124E+02  0.10736825584E+03  0.00000000000E+00 0. -1.
         11    1    1    2    0    0 -0.90926064459E+02 -0.20703912725E+03  0.20647698916E+03  0.30621152242E+03  0.00000000000E+00 0.  1.
</event>
<event>
 7    1  0.2522928E-009  0.2582498E+03  0.7561462E-02  0.1108199E+00
         -1   -1    0    0    0  501 -0.00000000000E+00  0.00000000000E+00  0.63791781134E+02  0.63791781134E+02  0.00000000000E+00 0.  1.
          1   -1    0    0  501    0  0.00000000000E+00 -0.00000000000E+00 -0.13150559382E+04  0.13150559382E+04  0.00000000000E+00 0. -1.
         25    2    1    2    0    0  0.10903302908E+01  0.25005412677E+03 -0.40792157431E+03  0.49454647482E+03  0.12509176564E+03 0.  0.
          5    1    3    3  502    0 -0.10667308867E+02  0.25239963797E+03 -0.33009857059E+03  0.41569448809E+03  0.41800000000E+01 0. -1.
         -5    1    3    3    0  502  0.11757639158E+02 -0.23455112082E+01 -0.77823003723E+02  0.78851986722E+02  0.41800000000E+01 0. -1.
        -11    1    1    2    0    0  0.10412096165E+02 -0.16300320266E+03 -0.39495112623E+03  0.42739308363E+03  0.00000000000E+00 0.  1.
         11    1    1    2    0    0 -0.11502426456E+02 -0.87050924111E+02 -0.44839145652E+03  0.45690816089E+03  0.00000000000E+00 0. -1.
</event>
<event>
 7    1  0.2522928E-009  0.1126446E+03  0.7561462E-02  0.1255749E+00
          2   -1    0    0  501    0  0.00000000000E+00  0.00000000000E+00  0.64901734938E+02  0.64901734938E+02  0.00000000000E+00 0. -1.
         -2   -1    0    0    0  501 -0.00000000000E+00 -0.00000000000E+00 -0.34169824915E+03  0.34169824915E+03  0.00000000000E+00 0.  1.
         25    2    1    2    0    0  0.83916108228E+02  0.43576523823E+02 -0.20303862973E+03  0.25654286953E+03  0.12509489236E+03 0.  0.
          5    1    3    3  502    0  0.50335367105E+02  0.32532283250E+02 -0.10806874820E+02  0.61043096075E+02  0.41800000000E+01 0.  1.
         -5    1    3    3    0  502  0.33580741123E+02  0.11044240573E+02 -0.19223175491E+03  0.19549977345E+03  0.41800000000E+01 0.  1.
        -11    1    1    2    0    0  0.14774799576E+02  0.94903747187E+01 -0.17032001708E+02  0.24463258103E+02  0.00000000000E+00 0.  1.
         11    1    1    2    0    0 -0.98690907804E+02 -0.53066898541E+02 -0.56725882776E+02  0.12559385646E+03  0.00000000000E+00 0. -1.
</event>
<event>
 7    1  0.2522928E-009  0.1028447E+03  0.7561462E-02  0.1274425E+00
         -1   -1    0    0    0  501 -0.00000000000E+00  0.00000000000E+00  0.19395048331E+03  0.19395048331E+03  0.00000000000E+00 0.  1.
          1   -1    0    0  501    0  0.00000000000E+00 -0.00000000000E+00 -0.10067594843E+03  0.10067594843E+03  0.00000000000E+00 0. -1.
         25    2    1    2    0    0 -0.78016710766E+02  0.40325829626E+02  0.50656518730E+02  0.16101638000E+03  0.12508961605E+03 0.  0.
          5    1    3    3  502    0 -0.68649531385E+02  0.20391619645E+02 -0.29662928405E+02  0.77626915646E+02  0.41800000000E+01 0.  1.
         -5    1    3    3    0  502 -0.93671793810E+01  0.19934209981E+02  0.80319447135E+02  0.83389464354E+02  0.41800000000E+01 0.  1.
        -11    1    1    2    0    0  0.63776900290E+02  0.50506295554E+01 -0.76233922128E+01  0.64429170244E+02  0.00000000000E+00 0. -1.
         11    1    1    2    0    0  0.14239810476E+02 -0.45376459182E+02  0.50241408358E+02  0.69180881492E+02  0.00000000000E+00 0.  1.
</event>
<event>
 7    1  0.2522928E-009  0.8743426E+02  0.7561462E-02  0.1309187E+00
         -2   -1    0    0    0  501 -0.00000000000E+00  0.00000000000E+00  0.30017395890E+03  0.30017395890E+03  0.00000000000E+00 0.  1.
          2   -1    0    0  501    0  0.00000000000E+00 -0.00000000000E+00 -0.40899077420E+02  0.40899077420E+02  0.00000000000E+00 0. -1.
         25    2    1    2    0    0  0.26572439797E+02  0.10780011301E-01  0.16829094634E+03  0.21136598894E+03  0.12509054316E+03 0.  0.
          5    1    3    3  502    0  0.87360987909E+01  0.62247386819E+02  0.84137082338E+02  0.10510745745E+03  0.41800000000E+01 0.  1.
         -5    1    3    3    0  502  0.17836341006E+02 -0.62236606807E+02  0.84153863999E+02  0.10625853149E+03  0.41800000000E+01 0.  1.
        -11    1    1    2    0    0  0.45763007382E+01  0.12588903523E+02 -0.14060480194E+02  0.19419580934E+02  0.00000000000E+00 0. -1.
         11    1    1    2    0    0 -0.31148740535E+02 -0.12599683534E+02  0.10504441534E+03  0.11028746645E+03  0.00000000000E+00 0.  1.
</event>
<event>
 7    1  0.2522928E-009  0.9458688E+02  0.7561462E-02  0.1292109E+00
          2   -1    0    0  501    0  0.00000000000E+00  0.00000000000E+00  0.95389356805E+03  0.95389356805E+03  0.00000000000E+00 0. -1.
         -2   -1    0    0    0  501 -0.00000000000E+00 -0.00000000000E+00 -0.16486551777E+02  0.16486551777E+02  0.00000000000E+00 0.  1.
         25    2    1    2    0    0  0.27129890072E+02  0.38528958711E+02  0.66900704108E+03  0.68223207498E+03  0.12509864714E+03 0.  0.
          5    1    3    3  502    0 -0.21628339500E+02  0.28624467933E+02  0.52606723727E+02  0.63812890667E+02  0.41800000000E+01 0.  1.
         -5    1    3    3    0  502  0.48758229571E+02  0.99044907772E+01  0.61640031735E+03  0.61841918431E+03  0.41800000000E+01 0.  1.
        -11    1    1    2    0    0 -0.36192507074E+02  0.21712380506E+02  0.85123334502E+02  0.95012141921E+02  0.00000000000E+00 0. -1.
         11    1    1    2    0    0  0.90626170024E+01 -0.60241339217E+02  0.18327664069E+03  0.19313590293E+03  0.00000000000E+00 0.  1.
</event>
<event>
 7    1  0.2522928E-009  0.9746129E+02  0.7561462E-02  0.1285727E+00
          1   -1    0    0  501    0  0.00000000000E+00  0.00000000000E+00  0.67551551089E+03  0.67551551089E+03  0.00000000000E+00 0. -1.
         -1   -1    0    0    0  501 -0.00000000000E+00 -0.00000000000E+00 -0.22055348517E+02  0.22055348517E+02  0.00000000000E+00 0.  1.
         25    2    1    2    0    0  0.14907930723E+02  0.47665446480E+02  0.43359041113E+03  0.45403009948E+03  0.12509374655E+03 0.  0.
          5    1    3    3  502    0  0.51308042870E+02  0.29684316163E+02  0.38927251455E+03  0.39378196616E+03  0.41800000000E+01 0.  1.
         -5    1    3    3    0  502 -0.36400112147E+02  0.17981130317E+02  0.44317896584E+02  0.60248133327E+02  0.41800000000E+01 0.  1.
        -11    1    1    2    0    0  0.15141206061E+02 -0.60238232007E+02  0.88029618668E+02  0.10773631922E+03  0.00000000000E+00 0.  1.
         11    1    1    2    0    0 -0.30049136783E+02  0.12572785528E+02  0.13184013258E+03  0.13580444071E+03  0.00000000000E+00 0. -1.
</event>
<event>
 7    1  0.2522928E-009  0.2977202E+03  0.7561462E-02  0.1086386E+00
          1   -1    0    0  501    0  0.00000000000E+00  0.00000000000E+00  0.11107314614E+04  0.11107314614E+04  0.00000000000E+00 0. -1.
         -1   -1    0    0    0  501 -0.00000000000E+00 -0.00000000000E+00 -0.10140561774E+03  0.10140561774E+03  0.00000000000E+00 0.  1.
         25    2    1    2    0    0 -0.11812836662E+03  0.25345144040E+03  0.24253976614E+03  0.39072396668E+03  0.12509091230E+03 0.  0.
          5    1    3    3  502    0 -0.50092626136E+01  0.14735162086E+03  0.14849836955E+03  0.20930081471E+03  0.41800000000E+01 0.  1.
         -5    1    3    3    0  502 -0.11311910400E+03  0.10609981954E+03  0.94041396590E+02  0.18142315197E+03  0.41800000000E+01 0.  1.
        -11    1    1    2    0    0  0.48142337414E+02 -0.19724574953E+03  0.48868334032E+03  0.52918331178E+03  0.00000000000E+00 0. -1.
         11    1    1    2    0    0  0.69986029201E+02 -0.56205690866E+02  0.27810273723E+03  0.29222980071E+03  0.00000000000E+00 0.  1.
</event>
<event>
 7    1  0.2522928E-009  0.6600581E+02  0.7561462E-02  0.1374227E+00
          2   -1    0    0  501    0  0.00000000000E+00  0.00000000000E+00  0.37905442422E+03  0.37905442422E+03  0.00000000000E+00 0. -1.
         -2   -1    0    0    0  501 -0.00000000000E+00 -0.00000000000E+00 -0.35701622426E+02  0.35701622426E+02  0.00000000000E+00 0.  1.
         25    2    1    2    0    0  0.16095022662E+02  0.40432062230E+02  0.20000770476E+03  0.23988350605E+03  0.12508882085E+03 0.  0.
          5    1    3    3  502    0 -0.10696522063E+02  0.19616846311E+02 -0.11608694052E+02  0.25523918607E+02  0.41800000000E+01 0.  1.
         -5    1    3    3    0  502  0.26791544725E+02  0.20815215919E+02  0.21161639881E+03  0.21435958744E+03  0.41800000000E+01 0.  1.
        -11    1    1    2    0    0  0.23182279415E+02 -0.20980460529E+02  0.75304370201E+01  0.32160616981E+02  0.00000000000E+00 0.  1.
         11    1    1    2    0    0 -0.39277302077E+02 -0.19451601701E+02  0.13581466001E+03  0.14271192362E+03  0.00000000000E+00 0. -1.
</event>
<event>
 7    1  0.2522928E-009  0.1665839E+03  0.7561462E-02  0.1181458E+00
          1   -1    0    0  501    0  0.00000000000E+00  0.00000000000E+00  0.78879176160E+03  0.78879176160E+03  0.00000000000E+00 0. -1.
         -1   -1    0    0    0  501 -0.00000000000E+00 -0.00000000000E+00 -0.45288881000E+02  0.45288881000E+02  0.00000000000E+00 0.  1.
         25    2    1    2    0    0 -0.70485934515E+02 -0.11938792734E+03  0.54087953042E+03  0.57220618095E+03  0.12508997932E+03 0.  0.
          5    1    3    3  502    0 -0.10000361759E+03 -0.12081068306E+03  0.45402614544E+03  0.48036773186E+03  0.41800000000E+01 0.  1.
         -5    1    3    3    0  502  0.29517683072E+02  0.14227557151E+01  0.86853384983E+02  0.91838449087E+02  0.41800000000E+01 0.  1.
        -11    1    1    2    0    0  0.61393670464E+02  0.58267768955E+02  0.52678695793E+02  0.99696342272E+02  0.00000000000E+00 0.  1.
         11    1    1    2    0    0  0.90922640509E+01  0.61120158386E+02  0.14994465439E+03  0.16217811938E+03  0.00000000000E+00 0. -1.
</event>
<event>
 7    1  0.2522928E-009  0.2560426E+03  0.7561462E-02  0.1109544E+00
         -2   -1    0    0    0  501 -0.00000000000E+00  0.00000000000E+00  0.22264855901E+03  0.22264855901E+03  0.00000000000E+00 0.  1.
          2   -1    0    0  501    0  0.00000000000E+00 -0.00000000000E+00 -0.32516011222E+03  0.32516011222E+03  0.00000000000E+00 0. -1.
         25    2    1    2    0    0  0.18422050069E+03 -0.16239218908E+03 -0.49246933469E+02  0.27996926321E+03  0.12509641057E+03 0.  0.
          5    1    3    3  502    0  0.15756215031E+03 -0.11415451978E+03  0.15032909184E+02  0.19519361248E+03  0.41800000000E+01 0. -1.
         -5    1    3    3    0  502  0.26658350382E+02 -0.48237669303E+02 -0.64279842653E+02  0.84775650728E+02  0.41800000000E+01 0. -1.
        -11    1    1    2    0    0 -0.76774275074E+02  0.12515922006E+02 -0.10071071636E+02  0.78437007214E+02  0.00000000000E+00 0.  1.
         11    1    1    2    0    0 -0.10744622562E+03  0.14987626707E+03 -0.43193548103E+02  0.18940240080E+03  0.00000000000E+00 0. -1.
</event>
<event>
 7    1  0.2522928E-009  0.1697802E+03  0.7561462E-02  0.1178077E+00
         -2   -1    0    0    0  501 -0.00000000000E+00  0.00000000000E+00  0.25796042638E+02  0.25796042638E+02  0.00000000000E+00 0.  1.
          2   -1    0    0  501    0  0.00000000000E+00 -0.00000000000E+00 -0.14194754138E+04  0.14194754138E+04  0.00000000000E+00 0. -1.
         25    2    1    2    0    0 -0.11299929663E+03  0.80652816892E+02 -0.10225833900E+04  0.10395188220E+04  0.12509545956E+03 0.  0.
          5    1    3    3  502    0 -0.38292631113E+01  0.65417837853E+02 -0.22638025930E+03  0.23571094791E+03  0.41800000000E+01 0. -1.
         -5    1    3    3    0  502 -0.10917003352E+03  0.15234979039E+02 -0.79620313066E+03  0.80380787411E+03  0.41800000000E+01 0. -1.
        -11    1    1    2    0    0  0.63174455923E+02  0.61820205997E+01 -0.15954485008E+03  0.17170844023E+03  0.00000000000E+00 0.  1.
         11    1    1    2    0    0  0.49824840704E+02 -0.86834837492E+02 -0.21155113113E+03  0.23404419419E+03  0.00000000000E+00 0. -1.
</event>
<event>
 7    1  0.2522928E-009  0.9716535E+02  0.7561462E-02  0.1286372E+00
         -1   -1    0    0    0  501 -0.00000000000E+00  0.00000000000E+00  0.42704814946E+03  0.42704814946E+03  0.00000000000E+00 0.  1.
          1   -1    0    0  501    0  0.00000000000E+00 -0.00000000000E+00 -0.36775926173E+02  0.36775926173E+02  0.00000000000E+00 0. -1.
         25    2    1    2    0    0  0.32650190809E+02 -0.49819817887E+02  0.24340651279E+03  0.28007813501E+03  0.12509589132E+03 0.  0.
          5    1    3    3  502    0 -0.22780829479E+02 -0.37522128757E+02  0.18058057978E+02  0.47649157349E+02  0.41800000000E+01 0.  1.
         -5    1    3    3    0  502  0.55431020288E+02 -0.12297689130E+02  0.22534845482E+03  0.23242897766E+03  0.41800000000E+01 0.  1.
        -11    1    1    2    0    0 -0.29824665604E+02 -0.11465849570E+02  0.10427481174E+03  0.10906059210E+03  0.00000000000E+00 0.  1.
         11    1    1    2    0    0 -0.28255252048E+01  0.61285667457E+02  0.42590898756E+02  0.74685348531E+02  0.00000000000E+00 0. -1.
</event>
<event>
 7    1  0.2522928E-009  0.1112397E+03  0.7561462E-02  0.1258291E+00
          1   -1    0    0  501    0  0.00000000000E+00  0.00000000000E+00  0.20550089694E+02  0.20550089694E+02  0.00000000000E+00 0. -1.
         -1   -1    0    0    0  501 -0.00000000000E+00 -0.00000000000E+00 -0.80866883497E+03  0.80866883497E+03  0.00000000000E+00 0.  1.
         25    2    1    2    0    0 -0.21104073130E+02 -0.67055706283E+02 -0.38347083144E+03  0.40943647698E+03  0.12508597231E+03 0.  0.
          5    1    3    3  502    0 -0.11093907862E+02  0.26530538833E+02 -0.23591833751E+02  0.37429818356E+02  0.41800000000E+01 0. -1.
         -5    1    3    3    0  502 -0.10010165268E+02 -0.93586245117E+02 -0.35987899769E+03  0.37200665863E+03  0.41800000000E+01 0. -1.
        -11    1    1    2    0    0  0.47016394063E+02  0.39800361844E+02 -0.33512847253E+03  0.34074286964E+03  0.00000000000E+00 0.  1.
         11    1    1    2    0    0 -0.25912320934E+02  0.27255344439E+02 -0.69519441303E+02  0.79039578034E+02  0.00000000000E+00 0. -1.
</event>
<event>
 7    1  0.2522928E-009  0.9854481E+02  0.7561462E-02  0.1283386E+00
         -2   -1    0    0    0  501 -0.00000000000E+00  0.00000000000E+00  0.50702926769E+02  0.50702926769E+02  0.00000000000E+00 0.  1.
          2   -1    0    0  501    0  0.00000000000E+00 -0.00000000000E+00 -0.29073968382E+03  0.29073968382E+03  0.00000000000E+00 0. -1.
         25    2    1    2    0    0  0.11947027230E+02 -0.52746585008E+02 -0.11521216959E+03  0.17845468190E+03  0.12508915133E+03 0.  0.
          5    1    3    3  502    0  0.17473472135E+01 -0.81987785697E+02 -0.12143505749E+03  0.14659125422E+03  0.41800000000E+01 0. -1.
         -5    1    3    3    0  502  0.10199680016E+02  0.29241200689E+02  0.62228878953E+01  0.31863427686E+02  0.41800000000E+01 0. -1.
        -11    1    1    2    0    0  0.65316579517E+01 -0.13475472414E+02  0.52440328625E+01  0.15866656644E+02  0.00000000000E+00 0.  1.
         11    1    1    2    0    0 -0.18478685182E+02  0.66222057422E+02 -0.13006862033E+03  0.14712127205E+03  0.00000000000E+00 0. -1.
</event>
<event>
 7    1  0.2522928E-009  0.2120984E+03  0.7561462E-02  0.1139915E+00
          2   -1    0    0  501    0  0.00000000000E+00  0.00000000000E+00  0.43904610890E+03  0.43904610890E+03  0.00000000000E+00 0. -1.
         -2   -1    0    0    0  501 -0.00000000000E+00 -0.00000000000E+00 -0.16400345365E+03  0.16400345365E+03  0.00000000000E+00 0.  1.
         25    2    1    2    0    0 -0.12407628001E+03 -0.13502412999E+03 -0.41680669058E+02  0.22585623849E+03  0.12508926153E+03 0.  0.
          5    1    3    3  502    0 -0.64654922898E+02 -0.14520545213E+03 -0.45253826399E+02  0.16531867283E+03  0.41800000000E+01 0.  1.
         -5    1    3    3    0  502 -0.59421357114E+02  0.10181322146E+02  0.35731573416E+01  0.60537565654E+02  0.41800000000E+01 0.  1.
        -11    1    1    2    0    0  0.99718068133E+02  0.41316305230E+02  0.16156799441E+03  0.19430632261E+03  0.00000000000E+00 0. -1.
         11    1    1    2    0    0  0.24358211878E+02  0.93707824755E+02  0.15515532990E+03  0.18288700146E+03  0.00000000000E+00 0.  1.
</event>
<event>
 7    1  0.3859534E-009  0.1541813E+03  0.7561462E-02  0.1195427E+00
         -1   -1    0    0    0  501 -0.00000000000E+00  0.00000000000E+00  0.23078634856E+02  0.23078634856E+02  0.00000000000E+00 0.  1.
          1   -1    0    0  501    0  0.00000000000E+00 -0.00000000000E+00 -0.14685429739E+04  0.14685429739E+04  0.00000000000E+00 0. -1.
         25    2    1    2    0    0 -0.14670640035E+03 -0.21209872694E+02 -0.78715259403E+03  0.81069643856E+03  0.12508749982E+03 0.  0.
          5    1    3    3  502    0 -0.67483490360E+02 -0.17440240716E+02 -0.63715332464E+03  0.64096802960E+03  0.41800000000E+01 0.  1.
         -5    1    3    3    0  502 -0.79222909995E+02 -0.37696319779E+01 -0.14999926938E+03  0.16972840896E+03  0.41800000000E+01 0.  1.
        -11    1    1    2    0    0  0.79041104258E+02 -0.17784121613E+02 -0.19633780615E+03  0.21239657546E+03  0.00000000000E+00 0. -1.
         11    1    1    2    0    0  0.67665296097E+02  0.38993994307E+02 -0.46197393886E+03  0.46852859472E+03  0.00000000000E+00 0.  1.
</event>
<event>
 7    1  0.2522928E-009  0.1100962E+03  0.7561462E-02  0.1260392E+00
         -4   -1    0    0    0  501 -0.00000000000E+00  0.00000000000E+00  0.62788495720E+02  0.62788495720E+02  0.00000000000E+00 0.  1.
          4   -1    0    0  501    0  0.00000000000E+00 -0.00000000000E+00 -0.26757418566E+03  0.26757418566E+03  0.00000000000E+00 0. -1.
         25    2    1    2    0    0  0.17121059724E+02  0.36671584976E+02 -0.18933964605E+03  0.23051013083E+03  0.12508989974E+03 0.  0.
          5    1    3    3  502    0 -0.49939148265E+02 -0.58086762306E+01 -0.91109488615E+02  0.10414446968E+03  0.41800000000E+01 0. -1.
         -5    1    3    3    0  502  0.67060207989E+02  0.42480261207E+02 -0.98230157435E+02  0.12636566115E+03  0.41800000000E+01 0. -1.
        -11    1    1    2    0    0 -0.19274369216E+02 -0.61950607463E+02  0.79200999366E+01  0.65361357519E+02  0.00000000000E+00 0. -1.
         11    1    1    2    0    0  0.21533094917E+01  0.25279022487E+02 -0.23366143831E+02  0.34491193038E+02  0.00000000000E+00 0.  1.
</event>
<event>
 7    1  0.2522928E-009  0.1039437E+03  0.7561462E-02  0.1272215E+00
         -2   -1    0    0    0  501 -0.00000000000E+00  0.00000000000E+00  0.29017231594E+03  0.29017231594E+03  0.00000000000E+00 0.  1.
          2   -1    0    0  501    0  0.00000000000E+00 -0.00000000000E+00 -0.55092086991E+02  0.55092086991E+02  0.00000000000E+00 0. -1.
         25    2    1    2    0    0 -0.62473718642E+02 -0.12029484410E+02  0.15388173183E+03  0.20826381859E+03  0.12508619719E+03 0.  0.
          5    1    3    3  502    0 -0.11005471399E+02  0.51647243926E+02  0.89588239666E+02  0.10407729480E+03  0.41800000000E+01 0.  1.
         -5    1    3    3    0  502 -0.51468247243E+02 -0.63676728335E+02  0.64293492159E+02  0.10418652379E+03  0.41800000000E+01 0.  1.
        -11    1    1    2    0    0  0.32228784886E+02  0.24228533993E+02  0.93752607511E+02  0.10205521961E+03  0.00000000000E+00 0.  1.
         11    1    1    2    0    0  0.30244933756E+02 -0.12199049584E+02 -0.12554110387E+02  0.34945364732E+02  0.00000000000E+00 0. -1.
</event>
<event>
 7    1  0.2522928E-009  0.9113394E+02  0.7561462E-02  0.1300129E+00
          4   -1    0    0  501    0  0.00000000000E+00  0.00000000000E+00  0.17273501014E+03  0.17273501014E+03  0.00000000000E+00 0. -1.
         -4   -1    0    0    0  501 -0.00000000000E+00 -0.00000000000E+00 -0.11594731401E+03  0.11594731401E+03  0.00000000000E+00 0.  1.
         25    2    1    2    0    0 -0.89164123595E+01  0.27995053877E+02 -0.53767340437E+02  0.13929226918E+03  0.12509270124E+03 0.  0.
          5    1    3    3  502    0  0.27277644737E+02 -0.10700163005E+02  0.28670105829E+02  0.41206926105E+02  0.41800000000E+01 0.  1.
         -5    1    3    3    0  502 -0.36194057097E+02  0.38695216882E+02 -0.82437446266E+02  0.98085343072E+02  0.41800000000E+01 0.  1.
        -11    1    1    2    0    0 -0.33808396611E+02 -0.42585200531E+02  0.50087319211E+02  0.73927305723E+02  0.00000000000E+00 0.  1.
         11    1    1    2    0    0  0.42724808971E+02  0.14590146654E+02  0.60467717355E+02  0.75462749241E+02  0.00000000000E+00 0. -1.
</event>
<event>
 7    1  0.2522928E-009  0.8693806E+02  0.7561462E-02  0.1310441E+00
         -2   -1    0    0    0  501 -0.00000000000E+00  0.00000000000E+00  0.21615517522E+03  0.21615517522E+03  0.00000000000E+00 0.  1.
          2   -1    0    0  501    0  0.00000000000E+00 -0.00000000000E+00 -0.84078083123E+02  0.84078083123E+02  0.00000000000E+00 0. -1.
         25    2    1    2    0    0  0.75289847882E+02 -0.70826394029E+01  0.98853056521E+02  0.17643605230E+03  0.12505610258E+03 0.  0.
          5    1    3    3  502    0  0.41964915765E+02  0.68358979115E+01  0.12470861927E+03  0.13182372994E+03  0.41800000000E+01 0.  1.
         -5    1    3    3    0  502  0.33324932118E+02 -0.13918537314E+02 -0.25855562745E+02  0.44612322361E+02  0.41800000000E+01 0.  1.
        -11    1    1    2    0    0 -0.47067151327E+02  0.32190707028E+02 -0.18320100990E+02  0.59893108563E+02  0.00000000000E+00 0. -1.
         11    1    1    2    0    0 -0.28222696555E+02 -0.25108067625E+02  0.51544136568E+02  0.63904097484E+02  0.00000000000E+00 0.  1.
</event>
<event>
 7    1  0.2522928E-009  0.8258196E+02  0.7561462E-02  0.1321880E+00
          1   -1    0    0  501    0  0.00000000000E+00  0.00000000000E+00  0.30937746265E+03  0.30937746265E+03  0.00000000000E+00 0. -1.
         -1   -1    0    0    0  501 -0.00000000000E+00 -0.00000000000E+00 -0.61758573654E+02  0.61758573654E+02  0.00000000000E+00 0.  1.
         25    2    1    2    0    0  0.21653937984E+02 -0.67613754299E+02  0.14377251998E+03  0.20336789174E+03  0.12508976412E+03 0.  0.
          5    1    3    3  502    0 -0.15088591352E+02 -0.28448054536E+02 -0.14954570764E+02  0.35750090666E+02  0.41800000000E+01 0.  1.
         -5    1    3    3    0  502  0.36742529336E+02 -0.39165699763E+02  0.15872709074E+03  0.16761780107E+03  0.41800000000E+01 0.  1.
        -11    1    1    2    0    0 -0.11057851398E+02  0.67324851194E+02  0.12595679284E+03  0.14324812504E+03  0.00000000000E+00 0. -1.
         11    1    1    2    0    0 -0.10596086586E+02  0.28890310485E+00 -0.22110423822E+02  0.24520019525E+02  0.00000000000E+00 0.  1.
</event>
<event>
 7    1  0.2522928E-009  0.1540566E+03  0.7561462E-02  0.1195575E+00
          1   -1    0    0  501    0  0.00000000000E+00  0.00000000000E+00  0.19764789582E+03  0.19764789582E+03  0.00000000000E+00 0. -1.
         -1   -1    0    0    0  501 -0.00000000000E+00 -0.00000000000E+00 -0.14247645194E+03  0.14247645194E+03  0.00000000000E+00 0.  1.
         25    2    1    2    0    0 -0.47835054838E+02  0.10224898580E+03 -0.31545032115E+02  0.17142376373E+03  0.12509184687E+03 0.  0.
          5    1    3    3  502    0  0.77377554612E+01 -0.25095660581E+02  0.63619855392E+01  0.27342499878E+02  0.41800000000E+01 0.  1.
         -5    1    3    3    0  502 -0.55572810299E+02  0.12734464638E+03 -0.37907017654E+02  0.14408126385E+03  0.41800000000E+01 0.  1.
        -11    1    1    2    0    0 -0.22713576107E+02 -0.49386876752E+02  0.47604367770E+02  0.72257497644E+02  0.00000000000E+00 0.  1.
         11    1    1    2    0    0  0.70548630945E+02 -0.52862109048E+02  0.39112108221E+02  0.96443086381E+02  0.00000000000E+00 0. -1.
</event>
<event>
 7    1  0.2522928E-009  0.1209944E+03  0.7561462E-02  0.1241466E+00
          1   -1    0    0  501    0  0.00000000000E+00  0.00000000000E+00  0.29681929405E+03  0.29681929405E+03  0.00000000000E+00 0. -1.
         -1   -1    0    0    0  501 -0.00000000000E+00 -0.00000000000E+00 -0.65298495607E+02  0.65298495607E+02  0.00000000000E+00 0.  1.
         25    2    1    2    0    0  0.33217590491E+02 -0.81654437240E+02  0.12681649064E+03  0.19875058104E+03  0.12509402754E+03 0.  0.
          5    1    3    3  502    0 -0.22157765184E+02 -0.81029682803E+02  0.11414620685E+03  0.14178718204E+03  0.41800000000E+01 0. -1.
         -5    1    3    3    0  502  0.55375355675E+02 -0.62475443729E+00  0.12670283792E+02  0.56963398999E+02  0.41800000000E+01 0. -1.
        -11    1    1    2    0    0  0.11448283906E+02  0.38764841422E+02  0.91529892348E+02  0.10005747013E+03  0.00000000000E+00 0. -1.
         11    1    1    2    0    0 -0.44665874396E+02  0.42889595818E+02  0.13174415452E+02  0.63309738489E+02  0.00000000000E+00 0.  1.
</event>
<event>
 7    1  0.2522928E-009  0.1061657E+03  0.7561462E-02  0.1267840E+00
         -2   -1    0    0    0  501 -0.00000000000E+00  0.00000000000E+00  0.46523268066E+03  0.46523268066E+03  0.00000000000E+00 0. -1.
          2   -1    0    0  501    0  0.00000000000E+00 -0.00000000000E+00 -0.34885807726E+02  0.34885807726E+02  0.00000000000E+00 0.  1.
         25    2    1    2    0    0  0.39142309756E+02  0.49368657127E+01  0.13345687551E+03  0.18712214219E+03  0.12508982941E+03 0.  0.
          5    1    3    3  502    0  0.43795689217E+02 -0.46516030806E+02  0.28536140448E+02  0.70096984440E+02  0.41800000000E+01 0. -1.
         -5    1    3    3    0  502 -0.46533794611E+01  0.51452896519E+02  0.10492073506E+03  0.11702515775E+03  0.41800000000E+01 0. -1.
        -11    1    1    2    0    0  0.24039953197E+02 -0.20284506461E+02  0.13325251775E+03  0.13691462318E+03  0.00000000000E+00 0.  1.
         11    1    1    2    0    0 -0.63182262953E+02  0.15347640749E+02  0.16363747967E+03  0.17608172302E+03  0.00000000000E+00 0. -1.
</event>
<event>
 7    1  0.2522928E-009  0.1695311E+03  0.7561462E-02  0.1178338E+00
         -1   -1    0    0    0  501 -0.00000000000E+00  0.00000000000E+00  0.12880192463E+03  0.12880192463E+03  0.00000000000E+00 0.  1.
          1   -1    0    0  501    0  0.00000000000E+00 -0.00000000000E+00 -0.26429721120E+03  0.26429721120E+03  0.00000000000E+00 0. -1.
         25    2    1    2    0    0  0.11185484415E+03  0.97054389226E+02 -0.90906196321E+02  0.21410844857E+03  0.12508969019E+03 0.  0.
          5    1    3    3  502    0  0.46930694368E+02  0.10507351191E+03 -0.18832016277E+02  0.11668354733E+03  0.41800000000E+01 0. -1.
         -5    1    3    3    0  502  0.64924149785E+02 -0.80191226884E+01 -0.72074180043E+02  0.97424901247E+02  0.41800000000E+01 0. -1.
        -11    1    1    2    0    0 -0.24382357110E+02 -0.57306102568E+02  0.17383325305E+02  0.64658090974E+02  0.00000000000E+00 0.  1.
         11    1    1    2    0    0 -0.87472487042E+02 -0.39748286658E+02 -0.61972415554E+02  0.11433259628E+03  0.00000000000E+00 0. -1.
</event>
<event>
 7    1  0.2522928E-009  0.1320980E+03  0.7561462E-02  0.1224376E+00
         -2   -1    0    0    0  501 -0.00000000000E+00  0.00000000000E+00  0.40130094922E+02  0.40130094922E+02  0.00000000000E+00 0.  1.
          2   -1    0    0  501    0  0.00000000000E+00 -0.00000000000E+00 -0.69096685562E+03  0.69096685562E+03  0.00000000000E+00 0. -1.
         25    2    1    2    0    0  0.85738202576E+01 -0.12312581138E+03 -0.41664369554E+03  0.45218677455E+03  0.12508970469E+03 0.  0.
          5    1    3    3  502    0 -0.84587718333E+01 -0.11538035602E+03 -0.41724315274E+03  0.43300519429E+03  0.41800000000E+01 0.  1.
         -5    1    3    3    0  502  0.17032592091E+02 -0.77454553614E+01  0.59945719881E+00  0.19181580254E+02  0.41800000000E+01 0.  1.
        -11    1    1    2    0    0 -0.22787653399E+02  0.52753815196E+02 -0.35263895857E+02  0.67422433330E+02  0.00000000000E+00 0.  1.
         11    1    1    2    0    0  0.14213833141E+02  0.70371996184E+02 -0.19892916929E+03  0.21148774266E+03  0.00000000000E+00 0. -1.
</event>
<event>
 7    1  0.2522928E-009  0.1124031E+03  0.7561462E-02  0.1256183E+00
         -2   -1    0    0    0  501 -0.00000000000E+00  0.00000000000E+00  0.80211568967E+02  0.80211568967E+02  0.00000000000E+00 0.  1.
          2   -1    0    0  501    0  0.00000000000E+00 -0.00000000000E+00 -0.25169423887E+03  0.25169423887E+03  0.00000000000E+00 0. -1.
         25    2    1    2    0    0  0.38194248634E+01  0.90856357503E+02 -0.93941548504E+02  0.18095263427E+03  0.12509746443E+03 0.  0.
          5    1    3    3  502    0  0.43232827014E+02  0.11134514592E+02  0.80641714305E+01  0.45558292414E+02  0.41800000000E+01 0. -1.
         -5    1    3    3    0  502 -0.39413402150E+02  0.79721842911E+02 -0.10200571993E+03  0.13539434185E+03  0.41800000000E+01 0. -1.
        -11    1    1    2    0    0 -0.24674647949E+01 -0.57451569483E+02  0.89763581204E+01  0.58200912568E+02  0.00000000000E+00 0.  1.
         11    1    1    2    0    0 -0.13519600685E+01 -0.33404788020E+02 -0.86517479516E+02  0.92752260999E+02  0.00000000000E+00 0. -1.
</event>
<event>
 7    1  0.2522928E-009  0.1481934E+03  0.7561462E-02  0.1202711E+00
         -1   -1    0    0    0  501 -0.00000000000E+00  0.00000000000E+00  0.21049102263E+03  0.21049102263E+03  0.00000000000E+00 0.  1.
          1   -1    0    0  501    0  0.00000000000E+00 -0.00000000000E+00 -0.13163375153E+03  0.13163375153E+03  0.00000000000E+00 0. -1.
         25    2    1    2    0    0  0.11094979881E+03 -0.47322793382E+02  0.20009079323E+01  0.17378444417E+03  0.12509086607E+03 0.  0.
          5    1    3    3  502    0  0.72676455455E+02  0.25934422700E+02  0.34814262575E+02  0.84758284179E+02  0.41800000000E+01 0.  1.
         -5    1    3    3    0  502  0.38273343354E+02 -0.73257216082E+02 -0.32813354643E+02  0.89026159990E+02  0.41800000000E+01 0.  1.
        -11    1    1    2    0    0 -0.66803251816E+02 -0.60605938884E+01  0.30931994307E+01  0.67148887810E+02  0.00000000000E+00 0. -1.
         11    1    1    2    0    0 -0.44146546994E+02  0.53383387271E+02  0.73763163734E+02  0.10119144219E+03  0.00000000000E+00 0.  1.
</event>
<event>
 7    1  0.2522928E-009  0.1619657E+03  0.7561462E-02  0.1186495E+00
          1   -1    0    0  501    0  0.00000000000E+00  0.00000000000E+00  0.38042016563E+03  0.38042016563E+03  0.00000000000E+00 0. -1.
         -1   -1    0    0    0  501 -0.00000000000E+00 -0.00000000000E+00 -0.87568411985E+02  0.87568411985E+02  0.00000000000E+00 0.  1.
         25    2    1    2    0    0  0.14472397219E+03 -0.41778482489E+02  0.16116760517E+03  0.25359782944E+03  0.12508554040E+03 0.  0.
          5    1    3    3  502    0  0.81467149627E+02 -0.46327715258E+02  0.16053519138E+02  0.95175320047E+02  0.41800000000E+01 0. -1.
         -5    1    3    3    0  502  0.63256822564E+02  0.45492327691E+01  0.14511408603E+03  0.15842250940E+03  0.41800000000E+01 0. -1.
        -11    1    1    2    0    0 -0.41228442752E+02 -0.20217340515E+02  0.20350270111E+02  0.50226077319E+02  0.00000000000E+00 0.  1.
         11    1    1    2    0    0 -0.10349552944E+03  0.61995823004E+02  0.11133387837E+03  0.16416467085E+03  0.00000000000E+00 0. -1.
</event>
<event>
 7    1  0.2522928E-009  0.8753535E+02  0.7561462E-02  0.1308932E+00
         -2   -1    0    0    0  501 -0.00000000000E+00  0.00000000000E+00  0.34137573331E+03  0.34137573331E+03  0.00000000000E+00 0.  1.
          2   -1    0    0  501    0  0.00000000000E+00 -0.00000000000E+00 -0.47288994177E+02  0.47288994177E+02  0.00000000000E+00 0. -1.
         25    2    1    2    0    0 -0.33681401011E+02  0.98350430258E+01  0.78329637907E+02  0.15171982602E+03  0.12510878701E+03 0.  0.
          5    1    3    3  502    0 -0.59998568380E+02  0.11561366701E+02  0.10004424310E+03  0.11730224373E+03  0.41800000000E+01 0. -1.
         -5    1    3    3    0  502  0.26317167370E+02 -0.17263236750E+01 -0.21714605192E+02  0.34417582286E+02  0.41800000000E+01 0. -1.
        -11    1    1    2    0    0  0.30693446766E+02  0.32488127132E+02  0.16420131286E+03  0.17017531321E+03  0.00000000000E+00 0.  1.
         11    1    1    2    0    0  0.29879542446E+01 -0.42323170158E+02  0.51555788363E+02  0.66769588261E+02  0.00000000000E+00 0. -1.
</event>
<event>
 6    1  0.2522928E-009  0.7280899E+02  0.7561462E-02  0.1350793E+00
         -4   -1    0    0    0  501 -0.00000000000E+00  0.00000000000E+00  0.10992460816E+04  0.10992460816E+04  0.00000000000E+00 0.  1.
          4   -1    0    0  501    0  0.00000000000E+00 -0.00000000000E+00 -0.12151529929E+02  0.12151529929E+02  0.00000000000E+00 0. -1.
          5    1    1    2  502    0  0.26025221060E+02 -0.41005692462E+01  0.21230951872E+02  0.34093291375E+02  0.41800000000E+01 0.  1.
         -5    1    1    2    0  502  0.58759853907E+01  0.19774537003E+02  0.61054748584E+03  0.61091019339E+03  0.41800000000E+01 0.  1.
        -11    1    1    2    0    0 -0.13275501149E+01 -0.51089650696E+02  0.29484448154E+03  0.29924101172E+03  0.00000000000E+00 0. -1.
         11    1    1    2    0    0 -0.30573656336E+02  0.35415682940E+02  0.16047163238E+03  0.16715311501E+03  0.00000000000E+00 0.  1.
</event>
<event>
 6    1  0.2522928E-009  0.8368943E+02  0.7561462E-02  0.1318896E+00
          1   -1    0    0  501    0  0.00000000000E+00  0.00000000000E+00  0.92641766147E+03  0.92641766147E+03  0.00000000000E+00 0. -1.
         -1   -1    0    0    0  501 -0.00000000000E+00 -0.00000000000E+00 -0.13484421155E+02  0.13484421155E+02  0.00000000000E+00 0.  1.
          5    1    1    2  502    0 -0.13488471305E+02 -0.34090510425E+02  0.33239886304E+02  0.49663509750E+02  0.41800000000E+01 0.  1.
         -5    1    1    2    0  502  0.24744950980E+01  0.38263285568E+02  0.38919318612E+03  0.39109974516E+03  0.41800000000E+01 0.  1.
        -11    1    1    2    0    0  0.44163898572E+02  0.22310374105E+02  0.29100454036E+03  0.29518103807E+03  0.00000000000E+00 0. -1.
         11    1    1    2    0    0 -0.33149922365E+02 -0.26483149248E+02  0.19949562754E+03  0.20395778964E+03  0.00000000000E+00 0.  1.
</event>
<event>
 7    1  0.2542416E-009  0.1545800E+03  0.7561462E-02  0.1194955E+00
         -1   -1    0    0    0  501 -0.00000000000E+00  0.00000000000E+00  0.57352813434E+02  0.57352813434E+02  0.00000000000E+00 0.  1.
          1   -1    0    0  501    0  0.00000000000E+00 -0.00000000000E+00 -0.60826519284E+03  0.60826519284E+03  0.00000000000E+00 0. -1.
         25    2    1    2    0    0 -0.79758882934E+02  0.98046691811E+02 -0.14009520742E+03  0.22638249114E+03  0.12509089484E+03 0.  0.
          5    1    3    3  502    0  0.30837576469E+02  0.30113868309E+02 -0.59336266193E+02  0.73457920422E+02  0.41800000000E+01 0. -1.
         -5    1    3    3    0  502 -0.11059645940E+03  0.67932823501E+02 -0.80758941224E+02  0.15292457072E+03  0.41800000000E+01 0. -1.
        -11    1    1    2    0    0  0.14908220831E+02 -0.57751157075E+02 -0.29180391480E+03  0.29783716337E+03  0.00000000000E+00 0. -1.
         11    1    1    2    0    0  0.64850662104E+02 -0.40295534735E+02 -0.11901325719E+03  0.14139835177E+03  0.00000000000E+00 0.  1.
</event>
<event>
 7    1  0.2522928E-009  0.1084392E+03  0.7561462E-02  0.1263488E+00
         -1   -1    0    0    0  501 -0.00000000000E+00  0.00000000000E+00  0.54311673428E+02  0.54311673428E+02  0.00000000000E+00 0.  1.
          1   -1    0    0  501    0  0.00000000000E+00 -0.00000000000E+00 -0.22296197382E+03  0.22296197382E+03  0.00000000000E+00 0. -1.
         25    2    1    2    0    0  0.29129806450E+01  0.20550661355E+02 -0.11377562451E+03  0.17036305875E+03  0.12509142223E+03 0.  0.
          5    1    3    3  502    0 -0.56408987066E+02  0.33272677363E+02 -0.52602696136E+02  0.84104464337E+02  0.41800000000E+01 0.  1.
         -5    1    3    3    0  502  0.59321967711E+02 -0.12722016008E+02 -0.61172928374E+02  0.86258594414E+02  0.41800000000E+01 0.  1.
        -11    1    1    2    0    0  0.21164476232E+02  0.28675849803E+02 -0.12976695727E+02  0.37929329655E+02  0.00000000000E+00 0.  1.
         11    1    1    2    0    0 -0.24077456877E+02 -0.49226511158E+02 -0.41897980156E+02  0.68981258843E+02  0.00000000000E+00 0. -1.
</event>
<event>
 7    1  0.2522928E-009  0.1394196E+03  0.7561462E-02  0.1214112E+00
         -2   -1    0    0    0  501 -0.00000000000E+00  0.00000000000E+00  0.26775223891E+02  0.26775223891E+02  0.00000000000E+00 0.  1.
          2   -1    0    0  501    0  0.00000000000E+00 -0.00000000000E+00 -0.91233106119E+03  0.91233106119E+03  0.00000000000E+00 0. -1.
         25    2    1    2    0    0  0.10532099399E+03 -0.22988994681E+02 -0.38215636403E+03  0.41630822083E+03  0.12509213609E+03 0.  0.
          5    1    3    3  502    0 -0.60719383377E+01 -0.49546395715E+02 -0.13079150790E+03  0.14005571999E+03  0.41800000000E+01 0. -1.
         -5    1    3    3    0  502  0.11139293233E+03  0.26557401034E+02 -0.25136485613E+03  0.27625250084E+03  0.41800000000E+01 0. -1.
        -11    1    1    2    0    0 -0.14473959758E+02 -0.99036323152E+01 -0.10335465299E+02  0.20356799529E+02  0.00000000000E+00 0.  1.
         11    1    1    2    0    0 -0.90847034235E+02  0.32892626996E+02 -0.49306400797E+03  0.50244126472E+03  0.00000000000E+00 0. -1.
</event>
<event>
 7    1  0.2522928E-009  0.1540066E+03  0.7561462E-02  0.1195634E+00
         -2   -1    0    0    0  501 -0.00000000000E+00  0.00000000000E+00  0.10172065124E+03  0.10172065124E+03  0.00000000000E+00 0.  1.
          2   -1    0    0  501    0  0.00000000000E+00 -0.00000000000E+00 -0.45928977695E+03  0.45928977695E+03  0.00000000000E+00 0. -1.
         25    2    1    2    0    0 -0.97169342020E+02 -0.78415016155E+02 -0.55528156654E+01  0.17683549664E+03  0.12509661596E+03 0.  0.
          5    1    3    3  502    0 -0.11291074498E+03 -0.44353312543E+02  0.29936572406E+02  0.12501889230E+03  0.41800000000E+01 0. -1.
         -5    1    3    3    0  502  0.15741402955E+02 -0.34061703611E+02 -0.35489388071E+02  0.51816604342E+02  0.41800000000E+01 0. -1.
        -11    1    1    2    0    0  0.32993242049E+01  0.50969476560E+02 -0.78061426957E+02  0.93286437705E+02  0.00000000000E+00 0.  1.
         11    1    1    2    0    0  0.93870017816E+02  0.27445539594E+02 -0.27395488309E+03  0.29088849385E+03  0.00000000000E+00 0. -1.
</event>
<event>
 7    1  0.2522928E-009  0.1189212E+03  0.7561462E-02  0.1244887E+00
         -2   -1    0    0    0  501 -0.00000000000E+00  0.00000000000E+00  0.62342509562E+02  0.62342509562E+02  0.00000000000E+00 0.  1.
          2   -1    0    0  501    0  0.00000000000E+00 -0.00000000000E+00 -0.35582287612E+03  0.35582287612E+03  0.00000000000E+00 0. -1.
         25    2    1    2    0    0  0.84943686299E+02  0.10085142375E+02 -0.23312012089E+03  0.27804658314E+03  0.12509105363E+03 0.  0.
          5    1    3    3  502    0  0.15854817090E+00 -0.47966546409E+02 -0.85719253755E+02  0.98316212173E+02  0.41800000000E+01 0.  1.
         -5    1    3    3    0  502  0.84785138128E+02  0.58051688783E+02 -0.14740086713E+03  0.17973037097E+03  0.41800000000E+01 0.  1.
        -11    1    1    2    0    0 -0.44590278512E+02  0.22808086528E+01  0.20328409901E+02  0.49058529075E+02  0.00000000000E+00 0.  1.
         11    1    1    2    0    0 -0.40353407788E+02 -0.12365951027E+02 -0.80688655570E+02  0.91060273460E+02  0.00000000000E+00 0. -1.
</event>
<event>
 7    1  0.2522928E-009  0.1538095E+03  0.7561462E-02  0.1195868E+00
          2   -1    0    0  501    0  0.00000000000E+00  0.00000000000E+00  0.22990643587E+03  0.22990643587E+03  0.00000000000E+00 0.  1.
         -2   -1    0    0    0  501 -0.00000000000E+00 -0.00000000000E+00 -0.10496591889E+03  0.10496591889E+03  0.00000000000E+00 0. -1.
         25    2    1    2    0    0 -0.10589305897E+03 -0.24324916180E+02  0.46826968833E+02  0.17217971323E+03  0.12509215464E+03 0.  0.
          5    1    3    3  502    0  0.96982914938E+01 -0.46298308413E+02  0.19362540692E+02  0.51283238996E+02  0.41800000000E+01 0. -1.
         -5    1    3    3    0  502 -0.11559135047E+03  0.21973392233E+02  0.27464428141E+02  0.12089647424E+03  0.41800000000E+01 0. -1.
        -11    1    1    2    0    0  0.12051288168E+03  0.84410743588E+01  0.62251598581E+02  0.13590389219E+03  0.00000000000E+00 0. -1.
         11    1    1    2    0    0 -0.14619822704E+02  0.15883841821E+02  0.15861949563E+02  0.26788749333E+02  0.00000000000E+00 0.  1.
</event>
<event>
 6    1  0.2522928E-009  0.2285499E+03  0.7561462E-02  0.1127665E+00
         -2   -1    0    0    0  501 -0.00000000000E+00  0.00000000000E+00  0.81206148112E+02  0.81206148112E+02  0.00000000000E+00 0.  1.
          2   -1    0    0  501    0  0.00000000000E+00 -0.00000000000E+00 -0.85749214685E+03  0.85749214685E+03  0.00000000000E+00 0. -1.
          5    1    1    2  502    0 -0.84294323525E+02 -0.16511125089E+03 -0.23966612666E+03  0.30302571313E+03  0.41800000000E+01 0. -1.
         -5    1    1    2    0  502  0.19035943845E+01 -0.40182467406E+02  0.75249323036E+01  0.41138198364E+02  0.41800000000E+01 0. -1.
        -11    1    1    2    0    0  0.93953730647E+02  0.17211932790E+03 -0.39106330384E+03  0.43747328393E+03  0.00000000000E+00 0.  1.
         11    1    1    2    0    0 -0.11563001506E+02  0.33174390394E+02 -0.15308150054E+03  0.15706109954E+03  0.00000000000E+00 0. -1.
</event>
<event>
 7    1  0.2975384E-009  0.1545244E+03  0.7561462E-02  0.1195021E+00
          2   -1    0    0  501    0  0.00000000000E+00  0.00000000000E+00  0.18234202416E+03  0.18234202416E+03  0.00000000000E+00 0. -1.
         -2   -1    0    0    0  501 -0.00000000000E+00 -0.00000000000E+00 -0.16244906633E+03  0.16244906633E+03  0.00000000000E+00 0.  1.
         25    2    1    2    0    0 -0.83179279987E+02  0.10387493235E+03  0.18362210734E+02  0.18355777805E+03  0.12508993928E+03 0.  0.
          5    1    3    3  502    0 -0.10177481789E+03  0.60298067546E+02  0.47761423432E+02  0.12764245561E+03  0.41800000000E+01 0.  1.
         -5    1    3    3    0  502  0.18595537904E+02  0.43576864806E+02 -0.29399212698E+02  0.55915322439E+02  0.41800000000E+01 0.  1.
        -11    1    1    2    0    0  0.59101973433E+02 -0.31774813052E+02 -0.36337210857E+02  0.76309074828E+02  0.00000000000E+00 0.  1.
         11    1    1    2    0    0  0.24077306554E+02 -0.72100119300E+02  0.37867957953E+02  0.84924237609E+02  0.00000000000E+00 0. -1.
</event>
<event>
 7    1  0.4210908E-009  0.1145417E+03  0.7561462E-02  0.1252383E+00
          2   -1    0    0  501    0  0.00000000000E+00  0.00000000000E+00  0.11802921734E+03  0.11802921734E+03  0.00000000000E+00 0. -1.
         -2   -1    0    0    0  501 -0.00000000000E+00 -0.00000000000E+00 -0.17603676474E+03  0.17603676474E+03  0.00000000000E+00 0.  1.
         25    2    1    2    0    0  0.85707191589E+02  0.34610225063E+02 -0.13198524439E+02  0.15608787855E+03  0.12508251042E+03 0.  0.
          5    1    3    3  502    0  0.92355795190E+02  0.11890289129E+02 -0.54736813619E+02  0.10809515737E+03  0.41800000000E+01 0. -1.
         -5    1    3    3    0  502 -0.66486036011E+01  0.22719935934E+02  0.41538289180E+02  0.47992721184E+02  0.41800000000E+01 0. -1.
        -11    1    1    2    0    0 -0.42112370285E+02 -0.50208561633E+02  0.99340443452E+01  0.66279986643E+02  0.00000000000E+00 0. -1.
         11    1    1    2    0    0 -0.43594821304E+02  0.15598336570E+02 -0.54743067301E+02  0.71698116891E+02  0.00000000000E+00 0.  1.
</event>
<event>
 7    1  0.2522928E-009  0.1551288E+03  0.7561462E-02  0.1194309E+00
         -2   -1    0    0    0  501 -0.00000000000E+00  0.00000000000E+00  0.91643059082E+03  0.91643059082E+03  0.00000000000E+00 0.  1.
          2   -1    0    0  501    0  0.00000000000E+00 -0.00000000000E+00 -0.42660217120E+02  0.42660217120E+02  0.00000000000E+00 0. -1.
         25    2    1    2    0    0  0.89734481467E+02 -0.11525116993E+03  0.27095122064E+03  0.33226112875E+03  0.12509110431E+03 0.  0.
          5    1    3    3  502    0  0.19239953811E+02 -0.73566147120E+02  0.37622274602E+02  0.84941519712E+02  0.41800000000E+01 0. -1.
         -5    1    3    3    0  502  0.70494527656E+02 -0.41685022812E+02  0.23332894603E+03  0.24731960904E+03  0.41800000000E+01 0. -1.
        -11    1    1    2    0    0 -0.49337941457E+01  0.34997069286E+02  0.46589902143E+02  0.58478681286E+02  0.00000000000E+00 0. -1.
         11    1    1    2    0    0 -0.84800687321E+02  0.80254100645E+02  0.55622925092E+03  0.56835099791E+03  0.00000000000E+00 0.  1.
</event>
<event>
 7    1  0.2601522E-009  0.1552230E+03  0.7561462E-02  0.1194198E+00
         -1   -1    0    0    0  501 -0.00000000000E+00  0.00000000000E+00  0.19836536986E+02  0.19836536986E+02  0.00000000000E+00 0.  1.
          1   -1    0    0  501    0  0.00000000000E+00 -0.00000000000E+00 -0.15320469090E+04  0.15320469090E+04  0.00000000000E+00 0. -1.
         25    2    1    2    0    0  0.12251226324E+03  0.58623133795E+02 -0.75392318418E+03  0.77620424733E+03  0.12508772708E+03 0.  0.
          5    1    3    3  502    0  0.12901261037E+03  0.68067679336E+02 -0.47260497525E+03  0.49462146904E+03  0.41800000000E+01 0.  1.
         -5    1    3    3    0  502 -0.65003471259E+01 -0.94445455409E+01 -0.28131820893E+03  0.28158277829E+03  0.41800000000E+01 0.  1.
        -11    1    1    2    0    0 -0.12590823425E+03 -0.38148840282E+02 -0.72189425620E+03  0.73378439244E+03  0.00000000000E+00 0. -1.
         11    1    1    2    0    0  0.33959710061E+01 -0.20474293513E+02 -0.36392931597E+02  0.41894806171E+02  0.00000000000E+00 0.  1.
</event>
<event>
 7    1  0.2522928E-009  0.2227631E+03  0.7561462E-02  0.1131840E+00
          3   -1    0    0  501    0  0.00000000000E+00  0.00000000000E+00  0.46063002103E+03  0.46063002103E+03  0.00000000000E+00 0. -1.
         -3   -1    0    0    0  501 -0.00000000000E+00 -0.00000000000E+00 -0.13436284374E+03  0.13436284374E+03  0.00000000000E+00 0.  1.
         25    2    1    2    0    0 -0.20044832150E+03  0.76556544233E+01  0.28471811967E+03  0.37006905887E+03  0.12509421264E+03 0.  0.
          5    1    3    3  502    0  0.97652304946E+01  0.94453263450E+01  0.62685206671E+02  0.64276601122E+02  0.41800000000E+01 0.  1.
         -5    1    3    3    0  502 -0.21021355199E+03 -0.17896719217E+01  0.22203291299E+03  0.30579245775E+03  0.41800000000E+01 0.  1.
        -11    1    1    2    0    0  0.19556407203E+03  0.16636974489E+02  0.37300606403E+02  0.19978345884E+03  0.00000000000E+00 0. -1.
         11    1    1    2    0    0  0.48842494688E+01 -0.24292628912E+02  0.42484512161E+01  0.25140347055E+02  0.00000000000E+00 0.  1.
</event>
<event>
 7    1  0.2522928E-009  0.1240012E+03  0.7561462E-02  0.1236638E+00
         -1   -1    0    0    0  501 -0.00000000000E+00  0.00000000000E+00  0.11827214863E+02  0.11827214863E+02  0.00000000000E+00 0.  1.
          1   -1    0    0  501    0  0.00000000000E+00 -0.00000000000E+00 -0.16636935160E+04  0.16636935160E+04  0.00000000000E+00 0. -1.
         25    2    1    2    0    0  0.15423270700E+02  0.64013661587E+02 -0.12777734718E+04  0.12855688465E+04  0.12508632079E+03 0.  0.
          5    1    3    3  502    0  0.35672746570E+02  0.94699423051E+02 -0.10418455074E+04  0.10467569247E+04  0.41800000000E+01 0.  1.
         -5    1    3    3    0  502 -0.20249475870E+02 -0.30685761464E+02 -0.23592796433E+03  0.23881192178E+03  0.41800000000E+01 0.  1.
        -11    1    1    2    0    0 -0.51667110150E+02 -0.46304234439E+02 -0.22106890279E+03  0.23170030682E+03  0.00000000000E+00 0.  1.
         11    1    1    2    0    0  0.36243839450E+02 -0.17709427148E+02 -0.15302392661E+03  0.15825157763E+03  0.00000000000E+00 0. -1.
</event>
<event>
 7    1  0.2522928E-009  0.1988214E+03  0.7561462E-02  0.1150737E+00
          2   -1    0    0  501    0  0.00000000000E+00  0.00000000000E+00  0.30478984653E+03  0.30478984653E+03  0.00000000000E+00 0.  1.
         -2   -1    0    0    0  501 -0.00000000000E+00 -0.00000000000E+00 -0.18034019236E+03  0.18034019236E+03  0.00000000000E+00 0. -1.
         25    2    1    2    0    0 -0.14254252197E+03  0.13500454310E+03 -0.52373567194E+01  0.23285198005E+03  0.12509203603E+03 0.  0.
          5    1    3    3  502    0 -0.42422350229E+02  0.16122600956E+02  0.50182461915E+02  0.67788980996E+02  0.41800000000E+01 0. -1.
         -5    1    3    3    0  502 -0.10012017175E+03  0.11888194214E+03 -0.55419818635E+02  0.16506299905E+03  0.41800000000E+01 0. -1.
        -11    1    1    2    0    0  0.11806552640E+03 -0.10635797353E+03  0.54176550193E+02  0.16788861083E+03  0.00000000000E+00 0.  1.
         11    1    1    2    0    0  0.24476995576E+02 -0.28646569573E+02  0.75510460696E+02  0.84389448009E+02  0.00000000000E+00 0. -1.
</event>
<event>
 7    1  0.2522928E-009  0.1432704E+03  0.7561462E-02  0.1208995E+00
         -1   -1    0    0    0  501 -0.00000000000E+00  0.00000000000E+00  0.60506417324E+02  0.60506417324E+02  0.00000000000E+00 0.  1.
          1   -1    0    0  501    0  0.00000000000E+00 -0.00000000000E+00 -0.12573583064E+04  0.12573583064E+04  0.00000000000E+00 0. -1.
         25    2    1    2    0    0  0.82041606705E+02 -0.62496296836E+02 -0.11620046333E+04  0.11732596726E+04  0.12508748684E+03 0.  0.
          5    1    3    3  502    0  0.96040621536E+02 -0.88277478937E+01 -0.52268164643E+03  0.53152168914E+03  0.41800000000E+01 0. -1.
         -5    1    3    3    0  502 -0.13999014832E+02 -0.53668548942E+02 -0.63932298684E+03  0.64173798350E+03  0.41800000000E+01 0. -1.
        -11    1    1    2    0    0 -0.73776902001E+02  0.24987985243E+01  0.17543847576E+01  0.73840050980E+02  0.00000000000E+00 0.  1.
         11    1    1    2    0    0 -0.82647047040E+01  0.59997498312E+02 -0.36601640566E+02  0.70765000104E+02  0.00000000000E+00 0. -1.
</event>
<event>
 7    1  0.2522928E-009  0.1487970E+03  0.7561462E-02  0.1201959E+00
         -1   -1    0    0    0  501 -0.00000000000E+00  0.00000000000E+00  0.26696984325E+02  0.26696984325E+02  0.00000000000E+00 0.  1.
          1   -1    0    0  501    0  0.00000000000E+00 -0.00000000000E+00 -0.10820748044E+04  0.10820748044E+04  0.00000000000E+00 0. -1.
         25    2    1    2    0    0 -0.10226830971E+03  0.34794474924E+02 -0.80018176429E+03  0.81707250502E+03  0.12508860818E+03 0.  0.
          5    1    3    3  502    0 -0.29312625739E+02  0.75674548959E+02 -0.41803959552E+03  0.42586434837E+03  0.41800000000E+01 0. -1.
         -5    1    3    3    0  502 -0.72955683971E+02 -0.40880074035E+02 -0.38214216877E+03  0.39120815665E+03  0.41800000000E+01 0. -1.
        -11    1    1    2    0    0  0.92284883329E+00  0.18208214016E+02 -0.92101783065E+01  0.20425917166E+02  0.00000000000E+00 0.  1.
         11    1    1    2    0    0  0.10134546088E+03 -0.53002688940E+02 -0.24598587745E+03  0.27127336651E+03  0.00000000000E+00 0. -1.
</event>
<event>
 7    1  0.2522928E-009  0.1208731E+03  0.7561462E-02  0.1241664E+00
          1   -1    0    0  501    0  0.00000000000E+00  0.00000000000E+00  0.11488809407E+03  0.11488809407E+03  0.00000000000E+00 0. -1.
         -1   -1    0    0    0  501 -0.00000000000E+00 -0.00000000000E+00 -0.19651462603E+03  0.19651462603E+03  0.00000000000E+00 0.  1.
         25    2    1    2    0    0 -0.69117487402E+02 -0.59698228842E+02 -0.95343786609E+02  0.18187553248E+03  0.12508863290E+03 0.  0.
          5    1    3    3  502    0 -0.84736588195E+01 -0.82348019665E+02 -0.80038164527E+02  0.11522404010E+03  0.41800000000E+01 0.  1.
         -5    1    3    3    0  502 -0.60643828582E+02  0.22649790823E+02 -0.15305622082E+02  0.66651492382E+02  0.41800000000E+01 0.  1.
        -11    1    1    2    0    0  0.96854029671E+01  0.20837051571E+02 -0.36095039982E+02  0.42788335562E+02  0.00000000000E+00 0.  1.
         11    1    1    2    0    0  0.59432084435E+02  0.38861177271E+02  0.49812294635E+02  0.86738852055E+02  0.00000000000E+00 0. -1.
</event>
<event>
 7    1  0.2522928E-009  0.1093338E+03  0.7561462E-02  0.1261809E+00
          1   -1    0    0  501    0  0.00000000000E+00  0.00000000000E+00  0.25121940844E+03  0.25121940844E+03  0.00000000000E+00 0. -1.
         -1   -1    0    0    0  501 -0.00000000000E+00 -0.00000000000E+00 -0.70650763041E+02  0.70650763041E+02  0.00000000000E+00 0.  1.
         25    2    1    2    0    0  0.63098970918E+02  0.41012815049E+02  0.10891537925E+03  0.18213610057E+03  0.12508984037E+03 0.  0.
          5    1    3    3  502    0 -0.35500742040E+02  0.14826774635E+02  0.53303692970E+02  0.65870266553E+02  0.41800000000E+01 0.  1.
         -5    1    3    3    0  502  0.98599712958E+02  0.26186040414E+02  0.55611686282E+02  0.11626583401E+03  0.41800000000E+01 0.  1.
        -11    1    1    2    0    0 -0.54974461377E+02 -0.26039228090E+02 -0.51660129313E+01  0.61048509341E+02  0.00000000000E+00 0.  1.
         11    1    1    2    0    0 -0.81245095411E+01 -0.14973586960E+02  0.76819279077E+02  0.78685561570E+02  0.00000000000E+00 0. -1.
</event>
<event>
 7    1  0.2522928E-009  0.9091596E+02  0.7561462E-02  0.1300649E+00
          1   -1    0    0  501    0  0.00000000000E+00  0.00000000000E+00  0.10399569709E+04  0.10399569709E+04  0.00000000000E+00 0. -1.
         -1   -1    0    0    0  501 -0.00000000000E+00 -0.00000000000E+00 -0.19792917231E+02  0.19792917231E+02  0.00000000000E+00 0.  1.
         25    2    1    2    0    0 -0.29222447231E+02  0.48989030316E+02  0.82238745693E+03  0.83379987067E+03  0.12508884242E+03 0.  0.
          5    1    3    3  502    0 -0.25034441546E+02  0.69950559633E+02  0.79650044018E+03  0.79996889168E+03  0.41800000000E+01 0. -1.
         -5    1    3    3    0  502 -0.41880056844E+01 -0.20961529317E+02  0.25887016755E+02  0.33830978989E+02  0.41800000000E+01 0. -1.
        -11    1    1    2    0    0  0.42703144569E+02 -0.92750685731E+01  0.17028604499E+03  0.17580364777E+03  0.00000000000E+00 0. -1.
         11    1    1    2    0    0 -0.13480697339E+02 -0.39713961743E+02  0.27490551767E+02  0.50146369704E+02  0.00000000000E+00 0.  1.
</event>
<event>
 7    1  0.2522928E-009  0.9946103E+02  0.7561462E-02  0.1281433E+00
          2   -1    0    0  501    0  0.00000000000E+00  0.00000000000E+00  0.56766826173E+03  0.56766826173E+03  0.00000000000E+00 0.  1.
         -2   -1    0    0    0  501 -0.00000000000E+00 -0.00000000000E+00 -0.28120932826E+02  0.28120932826E+02  0.00000000000E+00 0. -1.
         25    2    1    2    0    0 -0.44567391215E+02  0.35281715367E+02  0.34774592935E+03  0.37390579000E+03  0.12508899479E+03 0.  0.
          5    1    3    3  502    0 -0.24023088832E+02 -0.19918379335E+02  0.28866313050E+03  0.29037514691E+03  0.41800000000E+01 0.  1.
         -5    1    3    3    0  502 -0.20544302384E+02  0.55200094702E+02  0.59082798848E+02  0.83530643091E+02  0.41800000000E+01 0.  1.
        -11    1    1    2    0    0  0.71880019094E+02 -0.12792679114E+02  0.15203471922E+03  0.16865629438E+03  0.00000000000E+00 0.  1.
         11    1    1    2    0    0 -0.27312627878E+02 -0.22489036253E+02  0.39766680330E+02  0.53227110176E+02  0.00000000000E+00 0. -1.
</event>
<event>
 7    1  0.2522928E-009  0.1180153E+03  0.7561462E-02  0.1246408E+00
         -1   -1    0    0    0  501 -0.00000000000E+00  0.00000000000E+00  0.11689625578E+03  0.11689625578E+03  0.00000000000E+00 0.  1.
          1   -1    0    0  501    0  0.00000000000E+00 -0.00000000000E+00 -0.16053146235E+03  0.16053146235E+03  0.00000000000E+00 0. -1.
         25    2    1    2    0    0  0.76587817536E+02 -0.31359334844E+02 -0.21830280803E+02  0.15156693340E+03  0.12508745926E+03 0.  0.
          5    1    3    3  502    0  0.74038368090E+02 -0.69325146148E+02 -0.40103924476E+02  0.10914876544E+03  0.41800000000E+01 0. -1.
         -5    1    3    3    0  502  0.25494494460E+01  0.37965811304E+02  0.18273643673E+02  0.42418167965E+02  0.41800000000E+01 0. -1.
        -11    1    1    2    0    0 -0.45900903466E+02 -0.77228928632E+01 -0.50339104010E+02  0.68560640354E+02  0.00000000000E+00 0. -1.
         11    1    1    2    0    0 -0.30686914070E+02  0.39082227707E+02  0.28534178243E+02  0.57300144378E+02  0.00000000000E+00 0.  1.
</event>
<event>
 7    1  0.2522928E-009  0.9577879E+02  0.7561462E-02  0.1289432E+00
         -2   -1    0    0    0  501 -0.00000000000E+00  0.00000000000E+00  0.27715710227E+03  0.27715710227E+03  0.00000000000E+00 0. -1.
          2   -1    0    0  501    0  0.00000000000E+00 -0.00000000000E+00 -0.46129135517E+02  0.46129135517E+02  0.00000000000E+00 0.  1.
         25    2    1    2    0    0 -0.14645712763E+02 -0.13187955590E+02  0.17524849031E+03  0.21620713744E+03  0.12508026962E+03 0.  0.
          5    1    3    3  502    0  0.22886123912E+02  0.45426665580E+02  0.10743816900E+03  0.11894447937E+03  0.41800000000E+01 0.  1.
         -5    1    3    3    0  502 -0.37531836675E+02 -0.58614621170E+02  0.67810321304E+02  0.97262658068E+02  0.41800000000E+01 0.  1.
        -11    1    1    2    0    0 -0.22372628369E+02  0.23418388052E+02 -0.73256401833E+01  0.33205728470E+02  0.00000000000E+00 0.  1.
         11    1    1    2    0    0  0.37018341132E+02 -0.10230432462E+02  0.63105116630E+02  0.73873371883E+02  0.00000000000E+00 0. -1.
</event>
<event>
 7    1  0.2522928E-009  0.9641460E+02  0.7561462E-02  0.1288021E+00
         -2   -1    0    0    0  501 -0.00000000000E+00  0.00000000000E+00  0.45014382223E+02  0.45014382223E+02  0.00000000000E+00 0.  1.
          2   -1    0    0  501    0  0.00000000000E+00 -0.00000000000E+00 -0.38359142169E+03  0.38359142169E+03  0.00000000000E+00 0. -1.
         25    2    1    2    0    0  0.27696804838E+02 -0.64716719255E+02 -0.14775759259E+03  0.20599579231E+03  0.12508634431E+03 0.  0.
          5    1    3    3  502    0  0.47107796759E+02 -0.40916998290E+02 -0.16067565646E+03  0.17241660084E+03  0.41800000000E+01 0. -1.
         -5    1    3    3    0  502 -0.19410991921E+02 -0.23799720965E+02  0.12918063878E+02  0.33579191469E+02  0.41800000000E+01 0. -1.
        -11    1    1    2    0    0 -0.22455194411E+02 -0.98688942257E+01 -0.91909064208E+01  0.26193579177E+02  0.00000000000E+00 0.  1.
         11    1    1    2    0    0 -0.52416104269E+01  0.74585613480E+02 -0.18162854046E+03  0.19641643242E+03  0.00000000000E+00 0. -1.
</event>
<event>
 7    1  0.2522928E-009  0.8474502E+02  0.7561462E-02  0.1316101E+00
          1   -1    0    0  501    0  0.00000000000E+00  0.00000000000E+00  0.54544928780E+02  0.54544928780E+02  0.00000000000E+00 0. -1.
         -1   -1    0    0    0  501 -0.00000000000E+00 -0.00000000000E+00 -0.35213318384E+03  0.35213318384E+03  0.00000000000E+00 0.  1.
         25    2    1    2    0    0  0.21589012036E+02 -0.13807708785E+02 -0.27307184939E+03  0.30145230473E+03  0.12509403996E+03 0.  0.
          5    1    3    3  502    0  0.33941680518E+02  0.47511287121E+02 -0.17964002748E+03  0.18893748160E+03  0.41800000000E+01 0. -1.
         -5    1    3    3    0  502 -0.12352668482E+02 -0.61318995906E+02 -0.93431821909E+02  0.11251482312E+03  0.41800000000E+01 0. -1.
        -11    1    1    2    0    0  0.49675904502E+01  0.20318932176E+02  0.34407508694E+02  0.40266768112E+02  0.00000000000E+00 0. -1.
         11    1    1    2    0    0 -0.26556602486E+02 -0.65112233908E+01 -0.58923914357E+02  0.64959039777E+02  0.00000000000E+00 0.  1.
</event>
<event>
 7    1  0.2522928E-009  0.1559321E+03  0.7561462E-02  0.1193367E+00
          1   -1    0    0  501    0  0.00000000000E+00  0.00000000000E+00  0.76591232755E+03  0.76591232755E+03  0.00000000000E+00 0. -1.
         -1   -1    0    0    0  501 -0.00000000000E+00 -0.00000000000E+00 -0.50361358092E+02  0.50361358092E+02  0.00000000000E+00 0.  1.
         25    2    1    2    0    0 -0.13249082372E+03  0.41912248882E+02  0.55358125902E+03  0.58430314376E+03  0.12508996161E+03 0.  0.
          5    1    3    3  502    0 -0.39540373911E+02 -0.18692467641E+02  0.34699249582E+03  0.34976293982E+03  0.41800000000E+01 0. -1.
         -5    1    3    3    0  502 -0.92950449812E+02  0.60604716522E+02  0.20658876320E+03  0.23454020394E+03  0.41800000000E+01 0. -1.
        -11    1    1    2    0    0  0.10646931951E+03 -0.62719621035E+02  0.15447903117E+03  0.19782122720E+03  0.00000000000E+00 0.  1.
         11    1    1    2    0    0  0.26021504209E+02  0.20807372154E+02  0.74906792706E+01  0.34149314681E+02  0.00000000000E+00 0. -1.
</event>
<event>
 7    1  0.2522928E-009  0.1033539E+03  0.7561462E-02  0.1273397E+00
          2   -1    0    0  501    0  0.00000000000E+00  0.00000000000E+00  0.10969803496E+03  0.10969803496E+03  0.00000000000E+00 0.  1.
         -2   -1    0    0    0  501 -0.00000000000E+00 -0.00000000000E+00 -0.18358970501E+03  0.18358970501E+03  0.00000000000E+00 0. -1.
         25    2    1    2    0    0  0.42511722026E+02 -0.37132210324E+02 -0.11254490159E+03  0.17748308692E+03  0.12509134148E+03 0.  0.
          5    1    3    3  502    0  0.18179374002E+02 -0.80026217732E+02 -0.93441089390E+02  0.12443228982E+03  0.41800000000E+01 0.  1.
         -5    1    3    3    0  502  0.24332348023E+02  0.42894007408E+02 -0.19103812203E+02  0.53050797096E+02  0.41800000000E+01 0.  1.
        -11    1    1    2    0    0 -0.47667958748E+02  0.11683702957E+02  0.63236740786E+02  0.80047664495E+02  0.00000000000E+00 0.  1.
         11    1    1    2    0    0  0.51562367220E+01  0.25448507367E+02 -0.24583509242E+02  0.35756988562E+02  0.00000000000E+00 0. -1.
</event>
<event>
 7    1  0.2522928E-009  0.1268757E+03  0.7561462E-02  0.1232167E+00
          1   -1    0    0  501    0  0.00000000000E+00  0.00000000000E+00  0.40838608562E+03  0.40838608562E+03  0.00000000000E+00 0. -1.
         -1   -1    0    0    0  501 -0.00000000000E+00 -0.00000000000E+00 -0.77950779158E+02  0.77950779158E+02  0.00000000000E+00 0.  1.
         25    2    1    2    0    0  0.74669180358E+02 -0.89502555702E+02  0.67986294844E+02  0.18399915763E+03  0.12508940703E+03 0.  0.
          5    1    3    3  502    0  0.63621173872E+01 -0.96757432042E+00 -0.32626996482E+02  0.33517249844E+02  0.41800000000E+01 0. -1.
         -5    1    3    3    0  502  0.68307062971E+02 -0.88534981382E+02  0.10061329133E+03  0.15048190779E+03  0.41800000000E+01 0. -1.
        -11    1    1    2    0    0 -0.58732358295E+02  0.18751267432E+02  0.55156027699E+02  0.82724164141E+02  0.00000000000E+00 0.  1.
         11    1    1    2    0    0 -0.15936822063E+02  0.70751288270E+02  0.20729298391E+03  0.21961354300E+03  0.00000000000E+00 0. -1.
</event>
<event>
 7    1  0.2522928E-009  0.8604412E+02  0.7561462E-02  0.1312724E+00
          2   -1    0    0  501    0  0.00000000000E+00  0.00000000000E+00  0.69337242546E+03  0.69337242546E+03  0.00000000000E+00 0.  1.
         -2   -1    0    0    0  501 -0.00000000000E+00 -0.00000000000E+00 -0.22789599758E+02  0.22789599758E+02  0.00000000000E+00 0. -1.
         25    2    1    2    0    0 -0.31376493859E+02  0.36959265040E+02  0.44599811519E+03  0.46573861589E+03  0.12509063887E+03 0.  0.
          5    1    3    3  502    0 -0.36107208151E+02  0.43490406005E+02  0.45154965601E+03  0.45509307854E+03  0.41800000000E+01 0. -1.
         -5    1    3    3    0  502  0.47307142919E+01 -0.65311409648E+01 -0.55515408133E+01  0.10645537347E+02  0.41800000000E+01 0. -1.
        -11    1    1    2    0    0 -0.58306488672E+01  0.29547774219E+02  0.99443711197E+02  0.10390437490E+03  0.00000000000E+00 0. -1.
         11    1    1    2    0    0  0.37207142726E+02 -0.66507039259E+02  0.12514099932E+03  0.14651903443E+03  0.00000000000E+00 0.  1.
</event>
<event>
 7    1  0.2522928E-009  0.9754218E+02  0.7561462E-02  0.1285551E+00
          2   -1    0    0  501    0  0.00000000000E+00  0.00000000000E+00  0.58171749253E+03  0.58171749253E+03  0.00000000000E+00 0. -1.
         -2   -1    0    0    0  501 -0.00000000000E+00 -0.00000000000E+00 -0.25572951409E+02  0.25572951409E+02  0.00000000000E+00 0.  1.
         25    2    1    2    0    0  0.53923646739E+02  0.14220494555E+02  0.30038485068E+03  0.33013372948E+03  0.12508892311E+03 0.  0.
          5    1    3    3  502    0  0.70946640534E+02 -0.20142851282E+01  0.74473114314E+02  0.10296213043E+03  0.41800000000E+01 0.  1.
         -5    1    3    3    0  502 -0.17022993795E+02  0.16234779683E+02  0.22591173636E+03  0.22717159905E+03  0.41800000000E+01 0.  1.
        -11    1    1    2    0    0  0.22532178444E+02 -0.14456195271E+01  0.24812005104E+02  0.33547346818E+02  0.00000000000E+00 0.  1.
         11    1    1    2    0    0 -0.76455825183E+02 -0.12774875028E+02  0.23094768534E+03  0.24360936764E+03  0.00000000000E+00 0. -1.
</event>
<event>
 7    1  0.2522928E-009  0.1383074E+03  0.7561462E-02  0.1215625E+00
         -3   -1    0    0    0  501 -0.00000000000E+00  0.00000000000E+00  0.97127284583E+02  0.97127284583E+02  0.00000000000E+00 0.  1.
          3   -1    0    0  501    0  0.00000000000E+00 -0.00000000000E+00 -0.23650820002E+03  0.23650820002E+03  0.00000000000E+00 0. -1.
         25    2    1    2    0    0 -0.50612725788E+02  0.82910756797E+02 -0.12173094063E+03  0.19975645336E+03  0.12509347365E+03 0.  0.
          5    1    3    3  502    0 -0.90592725336E+02  0.68947579942E+02 -0.74179699372E+02  0.13594451391E+03  0.41800000000E+01 0.  1.
         -5    1    3    3    0  502  0.39979999547E+02  0.13963176855E+02 -0.47551241255E+02  0.63811939452E+02  0.41800000000E+01 0.  1.
        -11    1    1    2    0    0  0.16543535234E+02  0.11248397311E+02  0.18668500585E+02  0.27362893016E+02  0.00000000000E+00 0.  1.
         11    1    1    2    0    0  0.34069190554E+02 -0.94159154107E+02 -0.36318475396E+02  0.10651613822E+03  0.00000000000E+00 0. -1.
</event>
<event>
 7    1  0.2522928E-009  0.1272975E+03  0.7561462E-02  0.1231522E+00
         -2   -1    0    0    0  501 -0.00000000000E+00  0.00000000000E+00  0.54491230844E+02  0.54491230844E+02  0.00000000000E+00 0.  1.
          2   -1    0    0  501    0  0.00000000000E+00 -0.00000000000E+00 -0.39780371082E+03  0.39780371082E+03  0.00000000000E+00 0. -1.
         25    2    1    2    0    0 -0.87385997943E+02  0.41433297940E+02 -0.21461292597E+03  0.26657079974E+03  0.12509297529E+03 0.  0.
          5    1    3    3  502    0 -0.10015014765E+03  0.71001064251E+02 -0.18805758011E+03  0.22462041099E+03  0.41800000000E+01 0. -1.
         -5    1    3    3    0  502  0.12764149703E+02 -0.29567766311E+02 -0.26555345858E+02  0.41950388745E+02  0.41800000000E+01 0. -1.
        -11    1    1    2    0    0  0.44867813061E+02 -0.88888437320E+01 -0.12377308371E+03  0.13195419070E+03  0.00000000000E+00 0. -1.
         11    1    1    2    0    0  0.42518184881E+02 -0.32544454208E+02 -0.49264702979E+01  0.53769951227E+02  0.00000000000E+00 0.  1.
</event>
<event>
 7    1  0.2522928E-009  0.9088475E+02  0.7561462E-02  0.1300723E+00
          1   -1    0    0  501    0  0.00000000000E+00  0.00000000000E+00  0.83996453773E+03  0.83996453773E+03  0.00000000000E+00 0. -1.
         -1   -1    0    0    0  501 -0.00000000000E+00 -0.00000000000E+00 -0.20944078882E+02  0.20944078882E+02  0.00000000000E+00 0.  1.
         25    2    1    2    0    0  0.60750975045E+02 -0.28095806284E+02  0.59525048771E+03  0.61192550777E+03  0.12509847580E+03 0.  0.
          5    1    3    3  502    0  0.22413223365E+02 -0.26480527482E+02  0.55521459519E+03  0.55631312229E+03  0.41800000000E+01 0.  1.
         -5    1    3    3    0  502  0.38337751681E+02 -0.16152788016E+01  0.40035892513E+02  0.55612385481E+02  0.41800000000E+01 0.  1.
        -11    1    1    2    0    0 -0.34634575843E+02  0.58600329178E+02  0.12440267881E+03  0.14180824701E+03  0.00000000000E+00 0.  1.
         11    1    1    2    0    0 -0.26116399202E+02 -0.30504522894E+02  0.99367292327E+02  0.10717486183E+03  0.00000000000E+00 0. -1.
</event>
<event>
 7    1  0.2522928E-009  0.1318037E+03  0.7561462E-02  0.1224804E+00
          1   -1    0    0  501    0  0.00000000000E+00  0.00000000000E+00  0.13875486335E+03  0.13875486335E+03  0.00000000000E+00 0. -1.
         -1   -1    0    0    0  501 -0.00000000000E+00 -0.00000000000E+00 -0.15804568804E+03  0.15804568804E+03  0.00000000000E+00 0.  1.
         25    2    1    2    0    0 -0.79346845945E+02 -0.61159243034E+02 -0.10065538523E+02  0.16057861572E+03  0.12509117392E+03 0.  0.
          5    1    3    3  502    0 -0.20625416086E+02  0.20517284890E+02 -0.45223521042E+02  0.53935202080E+02  0.41800000000E+01 0.  1.
         -5    1    3    3    0  502 -0.58721429859E+02 -0.81676527925E+02  0.35157982519E+02  0.10664341364E+03  0.41800000000E+01 0.  1.
        -11    1    1    2    0    0  0.22949320475E+02  0.72467808252E+02 -0.17786963211E+02  0.78068115152E+02  0.00000000000E+00 0.  1.
         11    1    1    2    0    0  0.56397525470E+02 -0.11308565218E+02  0.85616770510E+01  0.58153820514E+02  0.00000000000E+00 0. -1.
</event>
<event>
 7    1  0.2522928E-009  0.1119070E+03  0.7561462E-02  0.1257079E+00
         -1   -1    0    0    0  501 -0.00000000000E+00  0.00000000000E+00  0.15932700157E+03  0.15932700157E+03  0.00000000000E+00 0.  1.
          1   -1    0    0  501    0  0.00000000000E+00 -0.00000000000E+00 -0.11140906391E+03  0.11140906391E+03  0.00000000000E+00 0. -1.
         25    2    1    2    0    0 -0.16845288147E+02  0.75572965442E+02  0.24808795541E+02  0.14917842547E+03  0.12507473546E+03 0.  0.
          5    1    3    3  502    0 -0.10531778203E+02 -0.23686889926E+02 -0.26396995579E+02  0.37232524519E+02  0.41800000000E+01 0. -1.
         -5    1    3    3    0  502 -0.63135099437E+01  0.99259855368E+02  0.51205791120E+02  0.11194590095E+03  0.41800000000E+01 0. -1.
        -11    1    1    2    0    0 -0.22724977599E+02 -0.24812103223E+02 -0.24398222793E+02  0.41561260191E+02  0.00000000000E+00 0. -1.
         11    1    1    2    0    0  0.39570265746E+02 -0.50760862220E+02  0.47507364909E+02  0.79996379825E+02  0.00000000000E+00 0.  1.
</event>
<event>
 7    1  0.2522928E-009  0.1298768E+03  0.7561462E-02  0.1227639E+00
          1   -1    0    0  501    0  0.00000000000E+00  0.00000000000E+00  0.20262290368E+03  0.20262290368E+03  0.00000000000E+00 0.  1.
         -1   -1    0    0    0  501 -0.00000000000E+00 -0.00000000000E+00 -0.12942175004E+03  0.12942175004E+03  0.00000000000E+00 0. -1.
         25    2    1    2    0    0 -0.19926714737E+02  0.86988539456E+02  0.12006797036E+03  0.19501804062E+03  0.12510650944E+03 0.  0.
          5    1    3    3  502    0  0.19758883721E+02  0.96497607466E+02  0.42681369953E+02  0.10743078457E+03  0.41800000000E+01 0.  1.
         -5    1    3    3    0  502 -0.39685598458E+02 -0.95090680108E+01  0.77386600411E+02  0.87587256051E+02  0.41800000000E+01 0.  1.
        -11    1    1    2    0    0  0.50933376617E+02 -0.62541657842E+02 -0.70724049074E+01  0.80967195396E+02  0.00000000000E+00 0.  1.
         11    1    1    2    0    0 -0.31006661880E+02 -0.24446881614E+02 -0.39794411818E+02  0.56059417706E+02  0.00000000000E+00 0. -1.
</event>
<event>
 7    1  0.2522928E-009  0.1025048E+03  0.7561462E-02  0.1275115E+00
          2   -1    0    0  501    0  0.00000000000E+00  0.00000000000E+00  0.37123331375E+03  0.37123331375E+03  0.00000000000E+00 0.  1.
         -2   -1    0    0    0  501 -0.00000000000E+00 -0.00000000000E+00 -0.43715253240E+02  0.43715253240E+02  0.00000000000E+00 0. -1.
         25    2    1    2    0    0  0.51987931992E+02 -0.37915649864E+02  0.19229090289E+03  0.23825282100E+03  0.12509306057E+03 0.  0.
          5    1    3    3  502    0  0.23255212192E+02  0.46027386276E+02  0.75393769747E+02  0.91438602888E+02  0.41800000000E+01 0. -1.
         -5    1    3    3    0  502  0.28732719801E+02 -0.83943036140E+02  0.11689713314E+03  0.14681421811E+03  0.41800000000E+01 0. -1.
        -11    1    1    2    0    0 -0.30159884167E+02  0.19751159021E+02  0.14282066995E+03  0.14730061324E+03  0.00000000000E+00 0.  1.
         11    1    1    2    0    0 -0.21828047825E+02  0.18164490843E+02 -0.75935123346E+01  0.29395132744E+02  0.00000000000E+00 0. -1.
</event>
<event>
 7    1  0.2522928E-009  0.1169094E+03  0.7561462E-02  0.1248284E+00
          2   -1    0    0  501    0  0.00000000000E+00  0.00000000000E+00  0.27510438877E+04  0.27510438877E+04  0.00000000000E+00 0.  1.
         -2   -1    0    0    0  501 -0.00000000000E+00 -0.00000000000E+00 -0.85196076074E+01  0.85196076074E+01  0.00000000000E+00 0. -1.
         25    2    1    2    0    0  0.41539139788E+02 -0.29487307289E+02  0.23632363116E+04  0.23670926736E+04  0.12508740778E+03 0.  0.
          5    1    3    3  502    0 -0.11144594538E+02  0.43413392685E+02  0.77818446933E+03  0.77948538495E+03  0.41800000000E+01 0.  1.
         -5    1    3    3    0  502  0.52683734326E+02 -0.72900699974E+02  0.15850518423E+04  0.15876072887E+04  0.41800000000E+01 0.  1.
        -11    1    1    2    0    0  0.24465174029E+02 -0.39314875685E+01  0.64252085593E+02  0.68864590595E+02  0.00000000000E+00 0. -1.
         11    1    1    2    0    0 -0.66004313816E+02  0.33418794857E+02  0.31503588293E+03  0.32360623113E+03  0.00000000000E+00 0.  1.
</event>
<event>
 7    1  0.4140377E-009  0.1468384E+03  0.7561462E-02  0.1204413E+00
         -2   -1    0    0    0  501 -0.00000000000E+00  0.00000000000E+00  0.69805956741E+02  0.69805956741E+02  0.00000000000E+00 0.  1.
          2   -1    0    0  501    0  0.00000000000E+00 -0.00000000000E+00 -0.38167279413E+03  0.38167279413E+03  0.00000000000E+00 0. -1.
         25    2    1    2    0    0 -0.40623567549E+02 -0.11317077333E+03 -0.19068912630E+03  0.25781031280E+03  0.12508363730E+03 0.  0.
          5    1    3    3  502    0  0.15150129531E+02  0.21677397811E+02 -0.38770027894E+02  0.47117124950E+02  0.41800000000E+01 0. -1.
         -5    1    3    3    0  502 -0.55773697080E+02 -0.13484817114E+03 -0.15191909841E+03  0.21069318785E+03  0.41800000000E+01 0. -1.
        -11    1    1    2    0    0  0.11315302943E+02  0.50170621600E+02 -0.11243141730E+03  0.12363636580E+03  0.00000000000E+00 0.  1.
         11    1    1    2    0    0  0.29308264606E+02  0.63000151729E+02 -0.87462937928E+01  0.70032072275E+02  0.00000000000E+00 0. -1.
</event>
<event>
 6    1  0.3504033E-009  0.2004125E+03  0.7561462E-02  0.1149391E+00
          2   -1    0    0  501    0  0.00000000000E+00  0.00000000000E+00  0.12655302141E+04  0.12655302141E+04  0.00000000000E+00 0. -1.
         -2   -1    0    0    0  501 -0.00000000000E+00 -0.00000000000E+00 -0.37882046703E+02  0.37882046703E+02  0.00000000000E+00 0.  1.
          5    1    1    2  502    0  0.59864020983E+02  0.11894992947E+03  0.58438347787E+03  0.59937826816E+03  0.41800000000E+01 0.  1.
         -5    1    1    2    0  502 -0.17991042865E+01  0.61495307796E+02  0.70117070996E+02  0.93374438162E+02  0.41800000000E+01 0.  1.
        -11    1    1    2    0    0 -0.19674558900E+02 -0.16226600199E+03  0.39430261154E+03  0.42683942313E+03  0.00000000000E+00 0.  1.
         11    1    1    2    0    0 -0.38390357797E+02 -0.18179235278E+02  0.17884500698E+03  0.18382013135E+03  0.00000000000E+00 0. -1.
</event>
<event>
 7    1  0.2522928E-009  0.9003977E+02  0.7561462E-02  0.1302755E+00
          1   -1    0    0  501    0  0.00000000000E+00  0.00000000000E+00  0.43748155092E+02  0.43748155092E+02  0.00000000000E+00 0. -1.
         -1   -1    0    0    0  501 -0.00000000000E+00 -0.00000000000E+00 -0.36370596467E+03  0.36370596467E+03  0.00000000000E+00 0.  1.
         25    2    1    2    0    0  0.75256023243E+01 -0.16845802812E+02 -0.27864490000E+03  0.30599106897E+03  0.12508852158E+03 0.  0.
          5    1    3    3  502    0 -0.46750625425E+02  0.26085014882E+02 -0.87518598490E+02  0.10267924065E+03  0.41800000000E+01 0.  1.
         -5    1    3    3    0  502  0.54276227749E+02 -0.42930817693E+02 -0.19112630151E+03  0.20331182832E+03  0.41800000000E+01 0.  1.
        -11    1    1    2    0    0 -0.23778881295E+00 -0.19743338622E+02 -0.57499464797E+02  0.60795101903E+02  0.00000000000E+00 0.  1.
         11    1    1    2    0    0 -0.72878135114E+01  0.36589141434E+02  0.16186555220E+02  0.40667948885E+02  0.00000000000E+00 0. -1.
</event>
<event>
 7    1  0.2522928E-009  0.1584734E+03  0.7561462E-02  0.1190431E+00
         -1   -1    0    0    0  501 -0.00000000000E+00  0.00000000000E+00  0.36751442161E+03  0.36751442161E+03  0.00000000000E+00 0. -1.
          1   -1    0    0  501    0  0.00000000000E+00 -0.00000000000E+00 -0.24890753210E+03  0.24890753210E+03  0.00000000000E+00 0.  1.
         25    2    1    2    0    0 -0.12333519758E+03 -0.27110940794E+02  0.31747246775E+03  0.36384677013E+03  0.12509648388E+03 0.  0.
          5    1    3    3  502    0 -0.98489007517E+02 -0.72440879497E+02  0.18715999908E+03  0.22359361190E+03  0.41800000000E+01 0.  1.
         -5    1    3    3    0  502 -0.24846190068E+02  0.45329938704E+02  0.13031246867E+03  0.14025315823E+03  0.41800000000E+01 0.  1.
        -11    1    1    2    0    0  0.54746289136E+02 -0.21359903101E+02 -0.34891529710E+02  0.68343401146E+02  0.00000000000E+00 0. -1.
         11    1    1    2    0    0  0.68588908449E+02  0.48470843895E+02 -0.16397404853E+03  0.18423178244E+03  0.00000000000E+00 0.  1.
</event>
<event>
 7    1  0.2522928E-009  0.1462696E+03  0.7561462E-02  0.1205133E+00
          1   -1    0    0  501    0  0.00000000000E+00  0.00000000000E+00  0.26414703911E+02  0.26414703911E+02  0.00000000000E+00 0. -1.
         -1   -1    0    0    0  501 -0.00000000000E+00 -0.00000000000E+00 -0.94441052263E+03  0.94441052263E+03  0.00000000000E+00 0.  1.
         25    2    1    2    0    0  0.13470859731E+02 -0.96653091746E+02 -0.66102284107E+03  0.67979480596E+03  0.12508596078E+03 0.  0.
          5    1    3    3  502    0  0.24662417831E+02  0.24025945840E+02 -0.10090116603E+03  0.10669582294E+03  0.41800000000E+01 0.  1.
         -5    1    3    3    0  502 -0.11191558100E+02 -0.12067903759E+03 -0.56012167504E+03  0.57309898301E+03  0.41800000000E+01 0.  1.
        -11    1    1    2    0    0  0.26639067026E+01 -0.19316881805E+02 -0.34660179129E+02  0.39768911713E+02  0.00000000000E+00 0. -1.
         11    1    1    2    0    0 -0.16134766433E+02  0.11596997355E+03 -0.22231279852E+03  0.25126150887E+03  0.00000000000E+00 0.  1.
</event>
<event>
 7    1  0.2522928E-009  0.9727538E+02  0.7561462E-02  0.1286132E+00
          2   -1    0    0  501    0  0.00000000000E+00  0.00000000000E+00  0.34948613725E+03  0.34948613725E+03  0.00000000000E+00 0. -1.
         -2   -1    0    0    0  501 -0.00000000000E+00 -0.00000000000E+00 -0.50985517266E+02  0.50985517266E+02  0.00000000000E+00 0.  1.
         25    2    1    2    0    0  0.31863216003E+02  0.47349991225E+02  0.24484300100E+03  0.28080750134E+03  0.12508985358E+03 0.  0.
          5    1    3    3  502    0  0.48900221716E+02 -0.29358005700E+02  0.82297848596E+02  0.10021742596E+03  0.41800000000E+01 0.  1.
         -5    1    3    3    0  502 -0.17037005713E+02  0.76707996925E+02  0.16254515241E+03  0.18059007538E+03  0.41800000000E+01 0.  1.
        -11    1    1    2    0    0 -0.64569907668E+01 -0.21416686528E+02  0.74511372016E+02  0.77796605011E+02  0.00000000000E+00 0. -1.
         11    1    1    2    0    0 -0.25406225236E+02 -0.25933304697E+02 -0.20853753036E+02  0.41867548160E+02  0.00000000000E+00 0.  1.
</event>
<event>
 7    1  0.2843569E-009  0.1017327E+03  0.7561462E-02  0.1276694E+00
          1   -1    0    0  501    0  0.00000000000E+00  0.00000000000E+00  0.79324631120E+03  0.79324631120E+03  0.00000000000E+00 0. -1.
         -1   -1    0    0    0  501 -0.00000000000E+00 -0.00000000000E+00 -0.25488311202E+02  0.25488311202E+02  0.00000000000E+00 0.  1.
         25    2    1    2    0    0  0.35022280971E+02 -0.48399659771E+02  0.61623980078E+03  0.63163897809E+03  0.12508884582E+03 0.  0.
          5    1    3    3  502    0  0.42673734576E+01 -0.88025721729E+02  0.40126417726E+03  0.41084930390E+03  0.41800000000E+01 0.  1.
         -5    1    3    3    0  502  0.30754907514E+02  0.39626061958E+02  0.21497562352E+03  0.22078967420E+03  0.41800000000E+01 0.  1.
        -11    1    1    2    0    0 -0.12693768823E+02  0.12772605825E+01 -0.10732327454E+02  0.16671712993E+02  0.00000000000E+00 0.  1.
         11    1    1    2    0    0 -0.22328512149E+02  0.47122399188E+02  0.16225052666E+03  0.17042393131E+03  0.00000000000E+00 0. -1.
</event>
<event>
 7    1  0.2522928E-009  0.2518468E+03  0.7561462E-02  0.1112143E+00
         -2   -1    0    0    0  501 -0.00000000000E+00  0.00000000000E+00  0.58025220908E+02  0.58025220908E+02  0.00000000000E+00 0.  1.
          2   -1    0    0  501    0  0.00000000000E+00 -0.00000000000E+00 -0.11336579572E+04  0.11336579572E+04  0.00000000000E+00 0. -1.
         25    2    1    2    0    0  0.78946733092E+02  0.21628698687E+03 -0.61364718000E+03  0.66724995892E+03  0.12508796423E+03 0.  0.
          5    1    3    3  502    0  0.98226664908E+02  0.21950520970E+03 -0.54414353588E+03  0.59492913429E+03  0.41800000000E+01 0.  1.
         -5    1    3    3    0  502 -0.19279931816E+02 -0.32182228265E+01 -0.69503644125E+02  0.72320824633E+02  0.41800000000E+01 0.  1.
        -11    1    1    2    0    0 -0.28802887391E+02 -0.17742469833E+03 -0.38334089260E+03  0.42339032799E+03  0.00000000000E+00 0.  1.
         11    1    1    2    0    0 -0.50143845701E+02 -0.38862288544E+02 -0.78644663653E+02  0.10104289116E+03  0.00000000000E+00 0. -1.
</event>
<event>
 7    1  0.2522928E-009  0.9525206E+02  0.7561462E-02  0.1290609E+00
         -2   -1    0    0    0  501 -0.00000000000E+00  0.00000000000E+00  0.79987770178E+02  0.79987770178E+02  0.00000000000E+00 0. -1.
          2   -1    0    0  501    0  0.00000000000E+00 -0.00000000000E+00 -0.23073553664E+03  0.23073553664E+03  0.00000000000E+00 0.  1.
         25    2    1    2    0    0  0.65652562623E+02 -0.43573535667E+02 -0.11112880514E+03  0.18494960639E+03  0.12509130099E+03 0.  0.
          5    1    3    3  502    0  0.73067181469E+02 -0.58857511901E+02 -0.25174346365E+02  0.97232915363E+02  0.41800000000E+01 0.  1.
         -5    1    3    3    0  502 -0.74146188461E+01  0.15283976235E+02 -0.85954458771E+02  0.87716691027E+02  0.41800000000E+01 0.  1.
        -11    1    1    2    0    0 -0.39560817447E+02  0.30216475907E+02  0.24344109465E+02  0.55414162079E+02  0.00000000000E+00 0. -1.
         11    1    1    2    0    0 -0.26091745177E+02  0.13357059760E+02 -0.63963070794E+02  0.70359538353E+02  0.00000000000E+00 0.  1.
</event>
<event>
 7    1  0.2522928E-009  0.1400915E+03  0.7561462E-02  0.1213206E+00
          1   -1    0    0  501    0  0.00000000000E+00  0.00000000000E+00  0.34574250438E+03  0.34574250438E+03  0.00000000000E+00 0. -1.
         -1   -1    0    0    0  501 -0.00000000000E+00 -0.00000000000E+00 -0.60404178250E+02  0.60404178250E+02  0.00000000000E+00 0.  1.
         25    2    1    2    0    0  0.78294719335E+02  0.42813657014E+02  0.11494298678E+03  0.19189202506E+03  0.12509031445E+03 0.  0.
          5    1    3    3  502    0  0.53265398561E+02 -0.39679918375E+02  0.59800565740E+02  0.89472222891E+02  0.41800000000E+01 0. -1.
         -5    1    3    3    0  502  0.25029320774E+02  0.82493575389E+02  0.55142421043E+02  0.10241980217E+03  0.41800000000E+01 0. -1.
        -11    1    1    2    0    0  0.56574628029E+01  0.21077561976E+02  0.15196030585E+02  0.26593041379E+02  0.00000000000E+00 0.  1.
         11    1    1    2    0    0 -0.83952182138E+02 -0.63891218990E+02  0.15519930877E+03  0.18766161619E+03  0.00000000000E+00 0. -1.
</event>
<event>
 7    1  0.2522928E-009  0.1200514E+03  0.7561462E-02  0.1243012E+00
         -1   -1    0    0    0  501 -0.00000000000E+00  0.00000000000E+00  0.76074730636E+03  0.76074730636E+03  0.00000000000E+00 0.  1.
          1   -1    0    0  501    0  0.00000000000E+00 -0.00000000000E+00 -0.35894625396E+02  0.35894625396E+02  0.00000000000E+00 0. -1.
         25    2    1    2    0    0 -0.62699956073E+02  0.91762488136E+02  0.50022798480E+03  0.52747316203E+03  0.12509301005E+03 0.  0.
          5    1    3    3  502    0  0.39805140769E+00  0.36932133644E+02  0.37507722932E+03  0.37691450130E+03  0.41800000000E+01 0. -1.
         -5    1    3    3    0  502 -0.63098007480E+02  0.54830354492E+02  0.12515075548E+03  0.15055866073E+03  0.41800000000E+01 0. -1.
        -11    1    1    2    0    0  0.40077713353E+02 -0.87463647397E+02  0.22647940085E+03  0.24606712851E+03  0.00000000000E+00 0.  1.
         11    1    1    2    0    0  0.22622242720E+02 -0.42988407384E+01 -0.18547046887E+01  0.23101641216E+02  0.00000000000E+00 0. -1.
</event>
<event>
 7    1  0.2522928E-009  0.1114772E+03  0.7561462E-02  0.1257859E+00
          1   -1    0    0  501    0  0.00000000000E+00  0.00000000000E+00  0.87629806410E+03  0.87629806410E+03  0.00000000000E+00 0. -1.
         -1   -1    0    0    0  501 -0.00000000000E+00 -0.00000000000E+00 -0.20077816952E+02  0.20077816952E+02  0.00000000000E+00 0.  1.
         25    2    1    2    0    0 -0.59977656616E+02  0.18097104409E+02  0.62306531744E+03  0.63857831022E+03  0.12508814494E+03 0.  0.
          5    1    3    3  502    0 -0.92350209245E+01  0.65226305027E+02  0.38467520575E+03  0.39029763361E+03  0.41800000000E+01 0. -1.
         -5    1    3    3    0  502 -0.50742635692E+02 -0.47129200618E+02  0.23839011169E+03  0.24828067661E+03  0.41800000000E+01 0.  1.
        -11    1    1    2    0    0  0.30118918745E+02 -0.40332605342E+02  0.20508605896E+03  0.21117329353E+03  0.00000000000E+00 0. -1.
         11    1    1    2    0    0  0.29858737872E+02  0.22235500933E+02  0.28068870743E+02  0.46624277301E+02  0.00000000000E+00 0.  1.
</event>
<event>
 7    1  0.2522928E-009  0.9693386E+02  0.7561462E-02  0.1286879E+00
         -2   -1    0    0    0  501 -0.00000000000E+00  0.00000000000E+00  0.14173944607E+03  0.14173944607E+03  0.00000000000E+00 0.  1.
          2   -1    0    0  501    0  0.00000000000E+00 -0.00000000000E+00 -0.13109533597E+03  0.13109533597E+03  0.00000000000E+00 0. -1.
         25    2    1    2    0    0 -0.65071567300E+01 -0.53356638736E+02  0.68719756290E+02  0.15250622596E+03  0.12508585078E+03 0.  0.
          5    1    3    3  502    0 -0.33980003366E+02  0.27118922304E+02  0.47972986255E+02  0.64876470203E+02  0.41800000000E+01 0. -1.
         -5    1    3    3    0  502  0.27472846636E+02 -0.80475561040E+02  0.20746770034E+02  0.87629755756E+02  0.41800000000E+01 0. -1.
        -11    1    1    2    0    0  0.21097006413E+02  0.22063768046E+02  0.18941711707E+02  0.35926062718E+02  0.00000000000E+00 0.  1.
         11    1    1    2    0    0 -0.14589849683E+02  0.31292870690E+02 -0.77017357891E+02  0.84402493365E+02  0.00000000000E+00 0. -1.
</event>
<event>
 7    1  0.2522928E-009  0.1017780E+03  0.7561462E-02  0.1276601E+00
          2   -1    0    0  501    0  0.00000000000E+00  0.00000000000E+00  0.77064669407E+03  0.77064669407E+03  0.00000000000E+00 0.  1.
         -2   -1    0    0    0  501 -0.00000000000E+00 -0.00000000000E+00 -0.65700324075E+02  0.65700324075E+02  0.00000000000E+00 0. -1.
         25    2    1    2    0    0  0.37527286764E+02  0.97176632329E+01  0.72251184887E+03  0.73428438307E+03  0.12508978067E+03 0.  0.
          5    1    3    3  502    0 -0.35991414735E+02 -0.12493112850E+02  0.43424119660E+03  0.43592929361E+03  0.41800000000E+01 0. -1.
         -5    1    3    3    0  502  0.73518701499E+02  0.22210776082E+02  0.28827065228E+03  0.29835508946E+03  0.41800000000E+01 0. -1.
        -11    1    1    2    0    0 -0.36831216837E+02  0.30665399704E+02  0.14958551195E+02  0.50206210040E+02  0.00000000000E+00 0.  1.
         11    1    1    2    0    0 -0.69606992694E+00 -0.40383062937E+02 -0.32524030071E+02  0.51856425037E+02  0.00000000000E+00 0. -1.
</event>
<event>
 7    1  0.2522928E-009  0.1099991E+03  0.7561462E-02  0.1260572E+00
          3   -1    0    0  501    0  0.00000000000E+00  0.00000000000E+00  0.11109821153E+03  0.11109821153E+03  0.00000000000E+00 0. -1.
         -3   -1    0    0    0  501 -0.00000000000E+00 -0.00000000000E+00 -0.11833136809E+03  0.11833136809E+03  0.00000000000E+00 0.  1.
         25    2    1    2    0    0 -0.17081993754E+02 -0.32278837833E+02 -0.73832993712E+01  0.13051570790E+03  0.12508444754E+03 0.  0.
          5    1    3    3  502    0  0.52676609717E+02 -0.23314068568E+02 -0.14932970421E+02  0.59655988887E+02  0.41800000000E+01 0.  1.
         -5    1    3    3    0  502 -0.69758603471E+02 -0.89647692649E+01  0.75496710497E+01  0.70859719017E+02  0.41800000000E+01 0.  1.
        -11    1    1    2    0    0  0.17625119328E+02  0.60777327381E+02  0.17357841347E+02  0.65618770265E+02  0.00000000000E+00 0. -1.
         11    1    1    2    0    0 -0.54312557336E+00 -0.28498489548E+02 -0.17207698533E+02  0.33295101452E+02  0.00000000000E+00 0.  1.
</event>
<event>
 7    1  0.2522928E-009  0.6524565E+02  0.7561462E-02  0.1377050E+00
          1   -1    0    0  501    0  0.00000000000E+00  0.00000000000E+00  0.29463093415E+03  0.29463093415E+03  0.00000000000E+00 0. -1.
         -1   -1    0    0    0  501 -0.00000000000E+00 -0.00000000000E+00 -0.87909689479E+02  0.87909689479E+02  0.00000000000E+00 0.  1.
         25    2    1    2    0    0  0.30873295300E+02  0.80526398889E+01 -0.24805560570E+02  0.13145474318E+03  0.12508808216E+03 0.  0.
          5    1    3    3  502    0  0.40304832459E+02  0.30716433266E+02  0.38271179976E+02  0.63640666314E+02  0.41800000000E+01 0. -1.
         -5    1    3    3    0  502 -0.94315371588E+01 -0.22663793378E+02 -0.63076740546E+02  0.67814076868E+02  0.41800000000E+01 0. -1.
        -11    1    1    2    0    0 -0.38868450517E+02 -0.17277320053E+02  0.23465920771E+03  0.23848313566E+03  0.00000000000E+00 0. -1.
         11    1    1    2    0    0  0.79951552170E+01  0.92246801642E+01 -0.31324024593E+01  0.12602744790E+02  0.00000000000E+00 0.  1.
</event>
<event>
 7    1  0.2522928E-009  0.5207647E+02  0.7561462E-02  0.1434453E+00
          1   -1    0    0  501    0  0.00000000000E+00  0.00000000000E+00  0.27874985660E+03  0.27874985660E+03  0.00000000000E+00 0. -1.
         -1   -1    0    0    0  501 -0.00000000000E+00 -0.00000000000E+00 -0.54901694851E+02  0.54901694851E+02  0.00000000000E+00 0.  1.
         25    2    1    2    0    0 -0.16654059278E+02 -0.45638904037E+02  0.10335519160E+03  0.16938651933E+03  0.12509688264E+03 0.  0.
          5    1    3    3  502    0 -0.41443540124E+01 -0.61703618934E+01 -0.29217206182E+02  0.30436270684E+02  0.41800000000E+01 0. -1.
         -5    1    3    3    0  502 -0.12509705266E+02 -0.39468542143E+02  0.13257239778E+03  0.13895024865E+03  0.41800000000E+01 0. -1.
        -11    1    1    2    0    0  0.30376355623E+00  0.33856460079E+02  0.13516214354E+03  0.13933828335E+03  0.00000000000E+00 0. -1.
         11    1    1    2    0    0  0.16350295722E+02  0.11782443958E+02 -0.14669173397E+02  0.24926748765E+02  0.00000000000E+00 0.  1.
</event>
<event>
 7    1  0.2522928E-009  0.1100635E+03  0.7561462E-02  0.1260452E+00
         -2   -1    0    0    0  501 -0.00000000000E+00  0.00000000000E+00  0.17533958269E+02  0.17533958269E+02  0.00000000000E+00 0.  1.
          2   -1    0    0  501    0  0.00000000000E+00 -0.00000000000E+00 -0.80912161650E+03  0.80912161650E+03  0.00000000000E+00 0. -1.
         25    2    1    2    0    0  0.15820786937E+02  0.20232818918E+02 -0.59794892811E+03  0.61142972346E+03  0.12507486496E+03 0.  0.
          5    1    3    3  502    0 -0.48756645116E+02 -0.17880270171E+02 -0.27144503362E+03  0.27639969823E+03  0.41800000000E+01 0.  1.
         -5    1    3    3    0  502  0.64577432053E+02  0.38113089089E+02 -0.32650389449E+03  0.33503002523E+03  0.41800000000E+01 0.  1.
        -11    1    1    2    0    0 -0.87127153693E+00 -0.55038131388E+02 -0.12988611527E+03  0.14106862855E+03  0.00000000000E+00 0.  1.
         11    1    1    2    0    0 -0.14949515400E+02  0.34805312470E+02 -0.63752614858E+02  0.74157222764E+02  0.00000000000E+00 0. -1.
</event>
<event>
 7    1  0.2522928E-009  0.9450393E+02  0.7561462E-02  0.1292297E+00
          3   -1    0    0  501    0  0.00000000000E+00  0.00000000000E+00  0.10449329992E+03  0.10449329992E+03  0.00000000000E+00 0. -1.
         -3   -1    0    0    0  501 -0.00000000000E+00 -0.00000000000E+00 -0.14962535330E+03  0.14962535330E+03  0.00000000000E+00 0.  1.
         25    2    1    2    0    0  0.19757300369E+01  0.27406718417E+02  0.28664671229E+02  0.13124219590E+03  0.12509124224E+03 0.  0.
          5    1    3    3  502    0  0.53991036126E+02  0.25197730034E+02 -0.16746790824E+02  0.62031322602E+02  0.41800000000E+01 0.  1.
         -5    1    3    3    0  502 -0.52015306089E+02  0.22089883832E+01  0.45411462054E+02  0.69210873301E+02  0.41800000000E+01 0.  1.
        -11    1    1    2    0    0  0.21780001830E+02 -0.43299315602E+02 -0.54251067138E+01  0.48771210710E+02  0.00000000000E+00 0. -1.
         11    1    1    2    0    0 -0.23755731867E+02  0.15892597185E+02 -0.68371617896E+02  0.74105246613E+02  0.00000000000E+00 0.  1.
</event>
<event>
 7    1  0.2522928E-009  0.1332102E+03  0.7561462E-02  0.1222769E+00
          2   -1    0    0  501    0  0.00000000000E+00  0.00000000000E+00  0.42952704466E+03  0.42952704466E+03  0.00000000000E+00 0. -1.
         -2   -1    0    0    0  501 -0.00000000000E+00 -0.00000000000E+00 -0.64716305682E+02  0.64716305682E+02  0.00000000000E+00 0.  1.
         25    2    1    2    0    0 -0.81933761169E+02  0.73098860095E+02  0.75051386278E+02  0.18258553185E+03  0.12509269080E+03 0.  0.
          5    1    3    3  502    0 -0.41711386005E+01 -0.27976958176E+02  0.41945762749E+02  0.50764436357E+02  0.41800000000E+01 0. -1.
         -5    1    3    3    0  502 -0.77762622568E+02  0.10107581827E+03  0.33105623529E+02  0.13182109549E+03  0.41800000000E+01 0. -1.
        -11    1    1    2    0    0  0.75324755865E+02 -0.63188797831E+02  0.22112869651E+03  0.24200112280E+03  0.00000000000E+00 0. -1.
         11    1    1    2    0    0  0.66090053040E+01 -0.99100622641E+01  0.68630656191E+02  0.69656695690E+02  0.00000000000E+00 0.  1.
</event>
<event>
 7    1  0.2522928E-009  0.6825210E+02  0.7561462E-02  0.1366140E+00
         -1   -1    0    0    0  501 -0.00000000000E+00  0.00000000000E+00  0.10244793973E+03  0.10244793973E+03  0.00000000000E+00 0.  1.
          1   -1    0    0  501    0  0.00000000000E+00 -0.00000000000E+00 -0.11605279583E+03  0.11605279583E+03  0.00000000000E+00 0. -1.
         25    2    1    2    0    0  0.10501343334E+02  0.62818873123E+01 -0.54253858182E+00  0.12568344355E+03  0.12508514426E+03 0.  0.
          5    1    3    3  502    0  0.16382203996E+02 -0.14763833598E+02 -0.59005349859E+02  0.63130429290E+02  0.41800000000E+01 0.  1.
         -5    1    3    3    0  502 -0.58808606628E+01  0.21045720910E+02  0.58462811277E+02  0.62553014262E+02  0.41800000000E+01 0.  1.
        -11    1    1    2    0    0 -0.25563468177E+02 -0.44172106686E+02 -0.92244254270E+01  0.51862857025E+02  0.00000000000E+00 0. -1.
         11    1    1    2    0    0  0.15062124843E+02  0.37890219374E+02 -0.38378920847E+01  0.40954434981E+02  0.00000000000E+00 0.  1.
</event>
<event>
 7    1  0.2522928E-009  0.1282276E+03  0.7561462E-02  0.1230110E+00
         -2   -1    0    0    0  501 -0.00000000000E+00  0.00000000000E+00  0.48438773868E+03  0.48438773868E+03  0.00000000000E+00 0.  1.
          2   -1    0    0  501    0  0.00000000000E+00 -0.00000000000E+00 -0.58256850313E+02  0.58256850313E+02  0.00000000000E+00 0. -1.
         25    2    1    2    0    0 -0.59710841044E+02  0.74187312783E+02  0.89925753101E+02  0.18111926418E+03  0.12509358444E+03 0.  0.
          5    1    3    3  502    0 -0.78889235402E+02  0.77473482158E+02  0.25307867676E+02  0.11350600190E+03  0.41800000000E+01 0.  1.
         -5    1    3    3    0  502  0.19178394358E+02 -0.32861693748E+01  0.64617885425E+02  0.67613262280E+02  0.41800000000E+01 0.  1.
        -11    1    1    2    0    0 -0.18345622129E+02 -0.18760970792E+00  0.10417098028E+03  0.10577424158E+03  0.00000000000E+00 0.  1.
         11    1    1    2    0    0  0.78056463174E+02 -0.73999703075E+02  0.23203415498E+03  0.25575108324E+03  0.00000000000E+00 0. -1.
</event>
<event>
 7    1  0.2522928E-009  0.1041816E+03  0.7561462E-02  0.1271740E+00
          2   -1    0    0  501    0  0.00000000000E+00  0.00000000000E+00  0.11939699480E+04  0.11939699480E+04  0.00000000000E+00 0. -1.
         -2   -1    0    0    0  501 -0.00000000000E+00 -0.00000000000E+00 -0.24621750004E+02  0.24621750004E+02  0.00000000000E+00 0.  1.
         25    2    1    2    0    0  0.68771678912E+02 -0.26005514739E+01  0.10233352284E+04  0.10332472720E+04  0.12509447890E+03 0.  0.
          5    1    3    3  502    0  0.10375391871E+03  0.29204641509E+01  0.65453031567E+03  0.66272227312E+03  0.41800000000E+01 0.  1.
         -5    1    3    3    0  502 -0.34982239801E+02 -0.55210156248E+01  0.36880491273E+03  0.37052499884E+03  0.41800000000E+01 0.  1.
        -11    1    1    2    0    0 -0.35199631069E+02  0.10573270537E+01 -0.30460522818E+00  0.35216824846E+02  0.00000000000E+00 0.  1.
         11    1    1    2    0    0 -0.33572047844E+02  0.15432244201E+01  0.14631757487E+03  0.15012760124E+03  0.00000000000E+00 0. -1.
</event>
<event>
 7    1  0.2522928E-009  0.1683207E+03  0.7561462E-02  0.1179611E+00
          2   -1    0    0  501    0  0.00000000000E+00  0.00000000000E+00  0.17080000826E+03  0.17080000826E+03  0.00000000000E+00 0. -1.
         -2   -1    0    0    0  501 -0.00000000000E+00 -0.00000000000E+00 -0.19257406316E+03  0.19257406316E+03  0.00000000000E+00 0.  1.
         25    2    1    2    0    0  0.12756851089E+03  0.55944448393E+02  0.29951610466E+02  0.18960030095E+03  0.12509064262E+03 0.  0.
          5    1    3    3  502    0  0.83311285481E+02 -0.20034013398E+02 -0.20412406843E+02  0.88183165822E+02  0.41800000000E+01 0.  1.
         -5    1    3    3    0  502  0.44257225413E+02  0.75978461791E+02  0.50364017309E+02  0.10141713512E+03  0.41800000000E+01 0.  1.
        -11    1    1    2    0    0 -0.40417599511E+02  0.21900948602E+02  0.29851673530E-01  0.45969933555E+02  0.00000000000E+00 0.  1.
         11    1    1    2    0    0 -0.87150911383E+02 -0.77845396994E+02 -0.51755517030E+02  0.12780383692E+03  0.00000000000E+00 0. -1.
</event>
<event>
 7    1  0.2522928E-009  0.8670912E+02  0.7561462E-02  0.1311023E+00
          1   -1    0    0  501    0  0.00000000000E+00  0.00000000000E+00  0.31407554196E+02  0.31407554196E+02  0.00000000000E+00 0. -1.
         -1   -1    0    0    0  501 -0.00000000000E+00 -0.00000000000E+00 -0.56429303987E+03  0.56429303987E+03  0.00000000000E+00 0.  1.
         25    2    1    2    0    0 -0.53390606393E+02  0.14733686382E+00 -0.41469408736E+03  0.43642784623E+03  0.12508996890E+03 0.  0.
          5    1    3    3  502    0 -0.35010025824E+02  0.18955654491E+02 -0.40664344004E+03  0.40860907781E+03  0.41800000000E+01 0. -1.
         -5    1    3    3    0  502 -0.18380580569E+02 -0.18808317627E+02 -0.80506473180E+01  0.27818768417E+02  0.41800000000E+01 0. -1.
        -11    1    1    2    0    0  0.66815891645E+02  0.30388604842E+02 -0.80510686143E+02  0.10894861754E+03  0.00000000000E+00 0.  1.
         11    1    1    2    0    0 -0.13425285252E+02 -0.30535941706E+02 -0.37680712171E+02  0.50324130292E+02  0.00000000000E+00 0. -1.
</event>
<event>
 7    1  0.2522928E-009  0.1028375E+03  0.7561462E-02  0.1274440E+00
          2   -1    0    0  501    0  0.00000000000E+00  0.00000000000E+00  0.24240362570E+03  0.24240362570E+03  0.00000000000E+00 0.  1.
         -2   -1    0    0    0  501 -0.00000000000E+00 -0.00000000000E+00 -0.57189919676E+02  0.57189919676E+02  0.00000000000E+00 0. -1.
         25    2    1    2    0    0 -0.22699165698E+02 -0.24403436881E+02  0.10656901643E+03  0.16768740369E+03  0.12510527663E+03 0.  0.
          5    1    3    3  502    0 -0.63559042875E+02  0.83585236458E+01  0.21580114432E+02  0.67770130497E+02  0.41800000000E+01 0. -1.
         -5    1    3    3    0  502  0.40859877177E+02 -0.32761960527E+02  0.84988901995E+02  0.99917273196E+02  0.41800000000E+01 0. -1.
        -11    1    1    2    0    0 -0.26895786234E+02 -0.98246554018E+01 -0.47428453737E+01  0.29024158095E+02  0.00000000000E+00 0. -1.
         11    1    1    2    0    0  0.49594951932E+02  0.34228092283E+02  0.83387534970E+02  0.10288198359E+03  0.00000000000E+00 0.  1.
</event>
<event>
 7    1  0.2522928E-009  0.1237592E+03  0.7561462E-02  0.1237021E+00
          1   -1    0    0  501    0  0.00000000000E+00  0.00000000000E+00  0.23050447461E+03  0.23050447461E+03  0.00000000000E+00 0. -1.
         -1   -1    0    0    0  501 -0.00000000000E+00 -0.00000000000E+00 -0.95552295838E+02  0.95552295838E+02  0.00000000000E+00 0.  1.
         25    2    1    2    0    0  0.10079195532E+03  0.12904581616E+02  0.68451671303E+02  0.17509604304E+03  0.12508975379E+03 0.  0.
          5    1    3    3  502    0  0.11651395720E+03  0.31917696090E+02  0.22762679848E+02  0.12300346962E+03  0.41800000000E+01 0. -1.
         -5    1    3    3    0  502 -0.15722001882E+02 -0.19013114474E+02  0.45688991455E+02  0.52092573419E+02  0.41800000000E+01 0. -1.
        -11    1    1    2    0    0 -0.41031693123E+02 -0.49534026845E+01 -0.19688543351E+02  0.45779632786E+02  0.00000000000E+00 0.  1.
         11    1    1    2    0    0 -0.59760262193E+02 -0.79511789312E+01  0.86189050816E+02  0.10518109462E+03  0.00000000000E+00 0. -1.
</event>
<event>
 7    1  0.2522928E-009  0.7427191E+02  0.7561462E-02  0.1346141E+00
          2   -1    0    0  501    0  0.00000000000E+00  0.00000000000E+00  0.49318501112E+03  0.49318501112E+03  0.00000000000E+00 0. -1.
         -2   -1    0    0    0  501 -0.00000000000E+00 -0.00000000000E+00 -0.28128455914E+02  0.28128455914E+02  0.00000000000E+00 0.  1.
         25    2    1    2    0    0 -0.16341440242E+02 -0.52921198021E+01  0.34699872279E+03  0.36925439158E+03  0.12508254426E+03 0.  0.
          5    1    3    3  502    0 -0.12668407899E+02 -0.33642164595E+02  0.33661373415E+03  0.33855363270E+03  0.41800000000E+01 0.  1.
         -5    1    3    3    0  502 -0.36730323429E+01  0.28350044793E+02  0.10384988641E+02  0.30700758874E+02  0.41800000000E+01 0.  1.
        -11    1    1    2    0    0  0.47302032717E+01  0.43383447140E+02  0.98413598419E+02  0.10765562996E+03  0.00000000000E+00 0.  1.
         11    1    1    2    0    0  0.11611236971E+02 -0.38091327338E+02  0.19644233991E+02  0.44403445491E+02  0.00000000000E+00 0. -1.
</event>
<event>
 7    1  0.2522928E-009  0.1119549E+03  0.7561462E-02  0.1256992E+00
          4   -1    0    0  501    0  0.00000000000E+00  0.00000000000E+00  0.10194170918E+04  0.10194170918E+04  0.00000000000E+00 0. -1.
         -4   -1    0    0    0  501 -0.00000000000E+00 -0.00000000000E+00 -0.16114836324E+02  0.16114836324E+02  0.00000000000E+00 0.  1.
         25    2    1    2    0    0 -0.49835919523E+02  0.10721207892E+02  0.75083856639E+03  0.76289318083E+03  0.12509552108E+03 0.  0.
          5    1    3    3  502    0 -0.51824658960E+02 -0.42886242313E+02  0.57686409963E+03  0.58078798791E+03  0.41800000000E+01 0.  1.
         -5    1    3    3    0  502  0.19887394377E+01  0.53607450205E+02  0.17397446676E+03  0.18210519292E+03  0.41800000000E+01 0.  1.
        -11    1    1    2    0    0  0.17360238921E+02  0.39358384666E+02  0.11466543527E+03  0.12246886292E+03  0.00000000000E+00 0.  1.
         11    1    1    2    0    0  0.32475680602E+02 -0.50079592558E+02  0.13779825383E+03  0.15016988440E+03  0.00000000000E+00 0. -1.
</event>
<event>
 7    1  0.2522928E-009  0.1135024E+03  0.7561462E-02  0.1254218E+00
         -2   -1    0    0    0  501 -0.00000000000E+00  0.00000000000E+00  0.36153346997E+02  0.36153346997E+02  0.00000000000E+00 0.  1.
          2   -1    0    0  501    0  0.00000000000E+00 -0.00000000000E+00 -0.62055746249E+03  0.62055746249E+03  0.00000000000E+00 0. -1.
         25    2    1    2    0    0  0.44814277717E+02  0.69534775466E+02 -0.18095777106E+03  0.23502661295E+03  0.12509352262E+03 0.  0.
          5    1    3    3  502    0  0.62640638827E+02  0.17681410990E+02 -0.16552433394E+03  0.17791081882E+03  0.41800000000E+01 0. -1.
         -5    1    3    3    0  502 -0.17826361110E+02  0.51853364476E+02 -0.15433437127E+02  0.57115794133E+02  0.41800000000E+01 0. -1.
        -11    1    1    2    0    0  0.14890368881E+02 -0.34476133812E+02 -0.56133426812E+02  0.67537311863E+02  0.00000000000E+00 0.  1.
         11    1    1    2    0    0 -0.59704646597E+02 -0.35058641654E+02 -0.34731291762E+03  0.35414688467E+03  0.00000000000E+00 0. -1.
</event>
<event>
 7    1  0.2522928E-009  0.1144491E+03  0.7561462E-02  0.1252546E+00
         -1   -1    0    0    0  501 -0.00000000000E+00  0.00000000000E+00  0.39622218863E+03  0.39622218863E+03  0.00000000000E+00 0.  1.
          1   -1    0    0  501    0  0.00000000000E+00 -0.00000000000E+00 -0.39418928934E+02  0.39418928934E+02  0.00000000000E+00 0. -1.
         25    2    1    2    0    0 -0.21284626134E+02  0.59529950362E+02  0.19565458759E+03  0.24067625597E+03  0.12508993661E+03 0.  0.
          5    1    3    3  502    0  0.24992813242E+01  0.89553232848E+02  0.17574528875E+03  0.19730663151E+03  0.41800000000E+01 0. -1.
         -5    1    3    3    0  502 -0.23783907459E+02 -0.30023282487E+02  0.19909298842E+02  0.43369624458E+02  0.41800000000E+01 0. -1.
        -11    1    1    2    0    0  0.42905631804E+02 -0.64748416452E+01  0.10967368177E+03  0.11794546743E+03  0.00000000000E+00 0.  1.
         11    1    1    2    0    0 -0.21621005669E+02 -0.53055108717E+02  0.51474990331E+02  0.77019394159E+02  0.00000000000E+00 0. -1.
</event>
<event>
 7    1  0.2522928E-009  0.9394715E+02  0.7561462E-02  0.1293565E+00
          1   -1    0    0  501    0  0.00000000000E+00  0.00000000000E+00  0.33436932977E+02  0.33436932977E+02  0.00000000000E+00 0. -1.
         -1   -1    0    0    0  501 -0.00000000000E+00 -0.00000000000E+00 -0.81480178394E+03  0.81480178394E+03  0.00000000000E+00 0.  1.
         25    2    1    2    0    0  0.67858885501E+01 -0.26076125295E+02 -0.73063274546E+03  0.74175328691E+03  0.12509083621E+03 0.  0.
          5    1    3    3  502    0  0.49223740173E+02 -0.30073880289E+02 -0.17163763795E+03  0.18111975605E+03  0.41800000000E+01 0.  1.
         -5    1    3    3    0  502 -0.42437851623E+02  0.39977549944E+01 -0.55899510752E+03  0.56063353086E+03  0.41800000000E+01 0.  1.
        -11    1    1    2    0    0 -0.44845544150E+02  0.10199890719E+02 -0.72512639248E+01  0.46559010184E+02  0.00000000000E+00 0.  1.
         11    1    1    2    0    0  0.38059655600E+02  0.15876234576E+02 -0.43480841573E+02  0.59926419821E+02  0.00000000000E+00 0. -1.
</event>
<event>
 7    1  0.3611735E-009  0.1441199E+03  0.7561462E-02  0.1207890E+00
          2   -1    0    0  501    0  0.00000000000E+00  0.00000000000E+00  0.13740907487E+04  0.13740907487E+04  0.00000000000E+00 0. -1.
         -2   -1    0    0    0  501 -0.00000000000E+00 -0.00000000000E+00 -0.16963406669E+02  0.16963406669E+02  0.00000000000E+00 0.  1.
         25    2    1    2    0    0  0.69442125238E+02 -0.75136041856E+02  0.87677840155E+03  0.89154678284E+03  0.12509063526E+03 0.  0.
          5    1    3    3  502    0 -0.26498964011E+02 -0.44487550222E+02  0.17444364020E+03  0.18201481595E+03  0.41800000000E+01 0.  1.
         -5    1    3    3    0  502  0.95941089248E+02 -0.30648491634E+02  0.70233476134E+03  0.70953196689E+03  0.41800000000E+01 0.  1.
        -11    1    1    2    0    0 -0.61746530955E+02  0.18269479411E+01  0.18243411092E+03  0.19260886961E+03  0.00000000000E+00 0.  1.
         11    1    1    2    0    0 -0.76955942828E+01  0.73309093915E+02  0.29791482956E+03  0.30689850292E+03  0.00000000000E+00 0. -1.
</event>
<event>
 7    1  0.2522928E-009  0.1538869E+03  0.7561462E-02  0.1195777E+00
         -2   -1    0    0    0  501 -0.00000000000E+00  0.00000000000E+00  0.15963822327E+02  0.15963822327E+02  0.00000000000E+00 0.  1.
          2   -1    0    0  501    0  0.00000000000E+00 -0.00000000000E+00 -0.30415970063E+04  0.30415970063E+04  0.00000000000E+00 0. -1.
         25    2    1    2    0    0  0.12480790178E+03 -0.37632452030E+02 -0.25426565986E+04  0.25490669217E+04  0.12508548706E+03 0.  0.
          5    1    3    3  502    0  0.11320837982E+03  0.57434478802E+01 -0.11273684556E+04  0.11330605595E+04  0.41800000000E+01 0.  1.
         -5    1    3    3    0  502  0.11599521966E+02 -0.43375899910E+02 -0.14152881430E+04  0.14160063622E+04  0.41800000000E+01 0.  1.
        -11    1    1    2    0    0 -0.11276854275E+02  0.33823205684E+02 -0.53822762429E+02  0.64560564129E+02  0.00000000000E+00 0. -1.
         11    1    1    2    0    0 -0.11353104751E+03  0.38092463463E+01 -0.42915382291E+03  0.44393334278E+03  0.00000000000E+00 0.  1.
</event>
<event>
 7    1  0.2522928E-009  0.1265744E+03  0.7561462E-02  0.1232629E+00
          2   -1    0    0  501    0  0.00000000000E+00  0.00000000000E+00  0.14329839068E+03  0.14329839068E+03  0.00000000000E+00 0. -1.
         -2   -1    0    0    0  501 -0.00000000000E+00 -0.00000000000E+00 -0.16155169009E+03  0.16155169009E+03  0.00000000000E+00 0.  1.
         25    2    1    2    0    0 -0.23814064652E+02  0.69095123640E+02 -0.85665941615E+02  0.16830493418E+03  0.12508657613E+03 0.  0.
          5    1    3    3  502    0 -0.53668033487E+02  0.85499735819E+02 -0.87890854216E+02  0.13391317074E+03  0.41800000000E+01 0.  1.
         -5    1    3    3    0  502  0.29853968835E+02 -0.16404612179E+02  0.22249126005E+01  0.34391763433E+02  0.41800000000E+01 0.  1.
        -11    1    1    2    0    0  0.25455847256E+02  0.17686894202E+02  0.10389097729E+02  0.32691891008E+02  0.00000000000E+00 0. -1.
         11    1    1    2    0    0 -0.16417826047E+01 -0.86782017841E+02  0.57023544482E+02  0.10385325559E+03  0.00000000000E+00 0.  1.
</event>
<event>
 7    1  0.2522928E-009  0.1128394E+03  0.7561462E-02  0.1255400E+00
         -2   -1    0    0    0  501 -0.00000000000E+00  0.00000000000E+00  0.27826900005E+02  0.27826900005E+02  0.00000000000E+00 0.  1.
          2   -1    0    0  501    0  0.00000000000E+00 -0.00000000000E+00 -0.53455334982E+03  0.53455334982E+03  0.00000000000E+00 0. -1.
         25    2    1    2    0    0 -0.44833463681E+02 -0.13895170504E+02 -0.35711179930E+03  0.38128623201E+03  0.12508892152E+03 0.  0.
          5    1    3    3  502    0  0.38477793197E+02  0.17394676371E+02 -0.85768781510E+02  0.95691544125E+02  0.41800000000E+01 0.  1.
         -5    1    3    3    0  502 -0.83311256878E+02 -0.31289846875E+02 -0.27134301780E+03  0.28559468788E+03  0.41800000000E+01 0.  1.
        -11    1    1    2    0    0  0.12876660658E+02 -0.34124318532E+02 -0.94584471297E+02  0.10137307195E+03  0.00000000000E+00 0. -1.
         11    1    1    2    0    0  0.31956803022E+02  0.48019489035E+02 -0.55030179214E+02  0.79720945873E+02  0.00000000000E+00 0.  1.
</event>
<event>
 7    1  0.2522928E-009  0.1543513E+03  0.7561462E-02  0.1195226E+00
          2   -1    0    0  501    0  0.00000000000E+00  0.00000000000E+00  0.86947929655E+03  0.86947929655E+03  0.00000000000E+00 0. -1.
         -2   -1    0    0    0  501 -0.00000000000E+00 -0.00000000000E+00 -0.79955134506E+02  0.79955134506E+02  0.00000000000E+00 0.  1.
         25    2    1    2    0    0 -0.62316416814E+02  0.11114245507E+03  0.76923972553E+03  0.78969230979E+03  0.12509279627E+03 0.  0.
          5    1    3    3  502    0 -0.68091884010E+02  0.40495805400E+02  0.18691346601E+03  0.20305302534E+03  0.41800000000E+01 0.  1.
         -5    1    3    3    0  502  0.57754671959E+01  0.70646649673E+02  0.58232625952E+03  0.58663928445E+03  0.41800000000E+01 0.  1.
        -11    1    1    2    0    0  0.80848714961E+02 -0.51381080686E+02  0.14838849232E+02  0.96936688668E+02  0.00000000000E+00 0.  1.
         11    1    1    2    0    0 -0.18532298147E+02 -0.59761374388E+02  0.54455872795E+01  0.62805432601E+02  0.00000000000E+00 0. -1.
</event>
<event>
 7    1  0.2522928E-009  0.1723087E+03  0.7561462E-02  0.1175461E+00
          1   -1    0    0  501    0  0.00000000000E+00  0.00000000000E+00  0.84059583651E+03  0.84059583651E+03  0.00000000000E+00 0. -1.
         -1   -1    0    0    0  501 -0.00000000000E+00 -0.00000000000E+00 -0.37776433679E+02  0.37776433679E+02  0.00000000000E+00 0.  1.
         25    2    1    2    0    0  0.12392131627E+03 -0.60609830182E+02  0.48578126372E+03  0.52025086006E+03  0.12508987595E+03 0.  0.
          5    1    3    3  502    0  0.13254534377E+03 -0.84046641508E+02  0.44848188231E+03  0.47516899864E+03  0.41800000000E+01 0. -1.
         -5    1    3    3    0  502 -0.86240274990E+01  0.23436811326E+02  0.37299381411E+02  0.45081861420E+02  0.41800000000E+01 0. -1.
        -11    1    1    2    0    0 -0.11878659938E+03  0.18912451825E+02  0.26659939241E+03  0.29247764540E+03  0.00000000000E+00 0. -1.
         11    1    1    2    0    0 -0.51347168915E+01  0.41697378356E+02  0.50438746699E+02  0.65643764730E+02  0.00000000000E+00 0.  1.
</event>
<event>
 7    1  0.2522928E-009  0.1210024E+03  0.7561462E-02  0.1241453E+00
          2   -1    0    0  501    0  0.00000000000E+00  0.00000000000E+00  0.67814522384E+02  0.67814522384E+02  0.00000000000E+00 0. -1.
         -2   -1    0    0    0  501 -0.00000000000E+00 -0.00000000000E+00 -0.23939687604E+03  0.23939687604E+03  0.00000000000E+00 0.  1.
         25    2    1    2    0    0 -0.50023544450E+02  0.27112283225E+02 -0.13615404333E+03  0.19344817946E+03  0.12508734436E+03 0.  0.
          5    1    3    3  502    0 -0.86111629700E+02 -0.62912727873E+01 -0.71950065873E+02  0.11246811665E+03  0.41800000000E+01 0. -1.
         -5    1    3    3    0  502  0.36088085250E+02  0.33403556013E+02 -0.64203977458E+02  0.80980062810E+02  0.41800000000E+01 0. -1.
        -11    1    1    2    0    0  0.36745039317E+01 -0.52996339074E+02 -0.71149604764E+01  0.53597915976E+02  0.00000000000E+00 0.  1.
         11    1    1    2    0    0  0.46349040519E+02  0.25884055849E+02 -0.28313349844E+02  0.60165302987E+02  0.00000000000E+00 0. -1.
</event>
<event>
 7    1  0.2522928E-009  0.1884046E+03  0.7561462E-02  0.1159908E+00
         -1   -1    0    0    0  501 -0.00000000000E+00  0.00000000000E+00  0.18920449239E+03  0.18920449239E+03  0.00000000000E+00 0.  1.
          1   -1    0    0  501    0  0.00000000000E+00 -0.00000000000E+00 -0.24244224371E+03  0.24244224371E+03  0.00000000000E+00 0. -1.
         25    2    1    2    0    0  0.96441295444E+01 -0.18041427430E+03  0.14077084264E+02  0.22020221205E+03  0.12509408573E+03 0.  0.
          5    1    3    3  502    0 -0.27450165267E+02 -0.11547480473E+03  0.59256189385E+02  0.13272795666E+03  0.41800000000E+01 0.  1.
         -5    1    3    3    0  502  0.37094294811E+02 -0.64939469571E+02 -0.45179105120E+02  0.87474255385E+02  0.41800000000E+01 0.  1.
        -11    1    1    2    0    0  0.10658021631E+02  0.47328466646E+02  0.18357605094E+02  0.51870789901E+02  0.00000000000E+00 0.  1.
         11    1    1    2    0    0 -0.20302151176E+02  0.13308580765E+03 -0.85672440677E+02  0.15957373416E+03  0.00000000000E+00 0. -1.
</event>
<event>
 7    1  0.2522928E-009  0.1664580E+03  0.7561462E-02  0.1181593E+00
          1   -1    0    0  501    0  0.00000000000E+00  0.00000000000E+00  0.69460746341E+03  0.69460746341E+03  0.00000000000E+00 0. -1.
         -1   -1    0    0    0  501 -0.00000000000E+00 -0.00000000000E+00 -0.49990978038E+02  0.49990978038E+02  0.00000000000E+00 0.  1.
         25    2    1    2    0    0 -0.14145374859E+03 -0.40035854142E+02  0.27479090234E+03  0.33581199968E+03  0.12509047331E+03 0.  0.
          5    1    3    3  502    0 -0.42800097607E+01  0.14422677292E+02 -0.74378551699E+01  0.17295265056E+02  0.41800000000E+01 0.  1.
         -5    1    3    3    0  502 -0.13717373883E+03 -0.54458531434E+02  0.28222875751E+03  0.31851673462E+03  0.41800000000E+01 0.  1.
        -11    1    1    2    0    0 -0.11961150593E+01  0.26319167472E+02  0.29691751820E+02  0.39695458100E+02  0.00000000000E+00 0. -1.
         11    1    1    2    0    0  0.14264986365E+03  0.13716686670E+02  0.34013383121E+03  0.36909098367E+03  0.00000000000E+00 0.  1.
</event>
<event>
 7    1  0.2522928E-009  0.1205211E+03  0.7561462E-02  0.1242240E+00
          1   -1    0    0  501    0  0.00000000000E+00  0.00000000000E+00  0.94767415689E+02  0.94767415689E+02  0.00000000000E+00 0. -1.
         -1   -1    0    0    0  501 -0.00000000000E+00 -0.00000000000E+00 -0.21571691108E+03  0.21571691108E+03  0.00000000000E+00 0.  1.
         25    2    1    2    0    0 -0.86621717139E+02 -0.12054987608E+02 -0.32551414699E+02  0.15606152640E+03  0.12508781242E+03 0.  0.
          5    1    3    3  502    0 -0.13546780182E+02  0.50038364706E+02 -0.30006407474E+02  0.60043401680E+02  0.41800000000E+01 0.  1.
         -5    1    3    3    0  502 -0.73074936957E+02 -0.62093352314E+02 -0.25450072250E+01  0.96018124719E+02  0.41800000000E+01 0.  1.
        -11    1    1    2    0    0  0.67703312604E+02 -0.45798926403E+01 -0.10444586103E+03  0.12455381102E+03  0.00000000000E+00 0.  1.
         11    1    1    2    0    0  0.18918404535E+02  0.16634880248E+02  0.16047780336E+02  0.29868989349E+02  0.00000000000E+00 0. -1.
</event>
<event>
 7    1  0.2522928E-009  0.1088435E+03  0.7561462E-02  0.1262727E+00
          2   -1    0    0  501    0  0.00000000000E+00  0.00000000000E+00  0.70454852948E+03  0.70454852948E+03  0.00000000000E+00 0. -1.
         -2   -1    0    0    0  501 -0.00000000000E+00 -0.00000000000E+00 -0.32070184791E+02  0.32070184791E+02  0.00000000000E+00 0.  1.
         25    2    1    2    0    0 -0.10279697145E+03 -0.24713399608E+00  0.42112709453E+03  0.45117776913E+03  0.12508425638E+03 0.  0.
          5    1    3    3  502    0 -0.34102683737E+02 -0.81456396119E+01  0.13654151442E+02  0.37858324506E+02  0.41800000000E+01 0. -1.
         -5    1    3    3    0  502 -0.68694287713E+02  0.78985056158E+01  0.40747294309E+03  0.41331944463E+03  0.41800000000E+01 0. -1.
        -11    1    1    2    0    0  0.72520822190E+02 -0.21713393087E+02  0.80337953081E+02  0.11038536042E+03  0.00000000000E+00 0.  1.
         11    1    1    2    0    0  0.30276149261E+02  0.21960527083E+02  0.17101329707E+03  0.17505558471E+03  0.00000000000E+00 0. -1.
</event>
<event>
 7    1  0.2522928E-009  0.1063858E+03  0.7561462E-02  0.1267413E+00
         -2   -1    0    0    0  501 -0.00000000000E+00  0.00000000000E+00  0.62089907214E+02  0.62089907214E+02  0.00000000000E+00 0.  1.
          2   -1    0    0  501    0  0.00000000000E+00 -0.00000000000E+00 -0.26106867774E+03  0.26106867774E+03  0.00000000000E+00 0. -1.
         25    2    1    2    0    0 -0.43266767665E+02  0.45616714288E+02 -0.13701075748E+03  0.19588816326E+03  0.12508927625E+03 0.  0.
          5    1    3    3  502    0 -0.41681949164E+02 -0.37129308633E+02 -0.67788221814E+02  0.87912944794E+02  0.41800000000E+01 0.  1.
         -5    1    3    3    0  502 -0.15848185014E+01  0.82746022921E+02 -0.69222535668E+02  0.10797521847E+03  0.41800000000E+01 0.  1.
        -11    1    1    2    0    0  0.36195090061E+02 -0.52690887084E+02 -0.82537641207E+02  0.10439768361E+03  0.00000000000E+00 0. -1.
         11    1    1    2    0    0  0.70716776038E+01  0.70741727968E+01  0.20569628162E+02  0.22872738087E+02  0.00000000000E+00 0.  1.
</event>
<event>
 7    1  0.2522928E-009  0.1906825E+03  0.7561462E-02  0.1157847E+00
         -1   -1    0    0    0  501 -0.00000000000E+00  0.00000000000E+00  0.76215102795E+03  0.76215102795E+03  0.00000000000E+00 0.  1.
          1   -1    0    0  501    0  0.00000000000E+00 -0.00000000000E+00 -0.67920975005E+02  0.67920975005E+02  0.00000000000E+00 0. -1.
         25    2    1    2    0    0 -0.11620785366E+03  0.10641519705E+03  0.58127788374E+03  0.61510905586E+03  0.12508682210E+03 0.  0.
          5    1    3    3  502    0 -0.10469385855E+03  0.14301157990E+02  0.26059450299E+03  0.28123352312E+03  0.41800000000E+01 0.  1.
         -5    1    3    3    0  502 -0.11513995110E+02  0.92114039058E+02  0.32068338075E+03  0.33387553274E+03  0.41800000000E+01 0.  1.
        -11    1    1    2    0    0  0.66952731004E+02 -0.17045034312E+01  0.46339329660E+02  0.81442660775E+02  0.00000000000E+00 0.  1.
         11    1    1    2    0    0  0.49255122655E+02 -0.10471069362E+03  0.66612839542E+02  0.13352028631E+03  0.00000000000E+00 0. -1.
</event>
<event>
 7    1  0.2522928E-009  0.1115980E+03  0.7561462E-02  0.1257639E+00
          2   -1    0    0  501    0  0.00000000000E+00  0.00000000000E+00  0.48984495723E+03  0.48984495723E+03  0.00000000000E+00 0. -1.
         -2   -1    0    0    0  501 -0.00000000000E+00 -0.00000000000E+00 -0.33818406712E+02  0.33818406712E+02  0.00000000000E+00 0.  1.
         25    2    1    2    0    0  0.42314380378E+02 -0.44878188882E+02  0.30389133794E+03  0.33436871338E+03  0.12509169671E+03 0.  0.
          5    1    3    3  502    0 -0.11597692406E+02  0.27087403234E+02  0.18323749746E+02  0.34949479079E+02  0.41800000000E+01 0.  1.
         -5    1    3    3    0  502  0.53912072784E+02 -0.71965592116E+02  0.28556758820E+03  0.29941923430E+03  0.41800000000E+01 0.  1.
        -11    1    1    2    0    0 -0.63323371203E+02  0.51250222350E+02  0.81125487676E+02  0.11496860172E+03  0.00000000000E+00 0.  1.
         11    1    1    2    0    0  0.21008990825E+02 -0.63720334676E+01  0.71009724902E+02  0.74326048843E+02  0.00000000000E+00 0. -1.
</event>
<event>
 7    1  0.2522928E-009  0.1027548E+03  0.7561462E-02  0.1274607E+00
         -2   -1    0    0    0  501 -0.00000000000E+00  0.00000000000E+00  0.80220487776E+02  0.80220487776E+02  0.00000000000E+00 0.  1.
          2   -1    0    0  501    0  0.00000000000E+00 -0.00000000000E+00 -0.17498218657E+03  0.17498218657E+03  0.00000000000E+00 0. -1.
         25    2    1    2    0    0  0.38613213233E+02 -0.28408314424E+02 -0.67714124248E+02  0.15010470576E+03  0.12509279557E+03 0.  0.
          5    1    3    3  502    0  0.34910222288E+02 -0.73858580277E+02 -0.64553276987E+02  0.10420370181E+03  0.41800000000E+01 0. -1.
         -5    1    3    3    0  502  0.37029909456E+01  0.45450265853E+02 -0.31608472611E+01  0.45901003949E+02  0.41800000000E+01 0. -1.
        -11    1    1    2    0    0 -0.55412659522E+02  0.24925904102E+02 -0.48418017407E+02  0.77692779203E+02  0.00000000000E+00 0. -1.
         11    1    1    2    0    0  0.16799446288E+02  0.34824103220E+01  0.21370442861E+02  0.27405189387E+02  0.00000000000E+00 0.  1.
</event>
<event>
 7    1  0.2522928E-009  0.9765990E+02  0.7561462E-02  0.1285295E+00
          3   -1    0    0  501    0  0.00000000000E+00  0.00000000000E+00  0.11986113372E+03  0.11986113372E+03  0.00000000000E+00 0. -1.
         -3   -1    0    0    0  501 -0.00000000000E+00 -0.00000000000E+00 -0.14434104041E+03  0.14434104041E+03  0.00000000000E+00 0.  1.
         25    2    1    2    0    0  0.31172760357E+02  0.63008121760E+02 -0.53879882536E+02  0.15327051196E+03  0.12508814371E+03 0.  0.
          5    1    3    3  502    0  0.61418249154E+02  0.46067325442E+02  0.12851796020E+02  0.77955377386E+02  0.41800000000E+01 0.  1.
         -5    1    3    3    0  502 -0.30245488797E+02  0.16940796318E+02 -0.66731678557E+02  0.75315134571E+02  0.41800000000E+01 0.  1.
        -11    1    1    2    0    0 -0.94773773390E+01 -0.60992572289E+02  0.51136040962E+02  0.80154907778E+02  0.00000000000E+00 0.  1.
         11    1    1    2    0    0 -0.21695383018E+02 -0.20155494712E+01 -0.21736065115E+02  0.30776754387E+02  0.00000000000E+00 0. -1.
</event>
<event>
 7    1  0.2522928E-009  0.1298448E+03  0.7561462E-02  0.1227686E+00
          2   -1    0    0  501    0  0.00000000000E+00  0.00000000000E+00  0.10658710758E+03  0.10658710758E+03  0.00000000000E+00 0. -1.
         -2   -1    0    0    0  501 -0.00000000000E+00 -0.00000000000E+00 -0.26574193105E+03  0.26574193105E+03  0.00000000000E+00 0.  1.
         25    2    1    2    0    0  0.84659982871E+01  0.61840158609E+02  0.35007091946E+02  0.14411468763E+03  0.12509064058E+03 0.  0.
          5    1    3    3  502    0  0.40430256486E+02  0.88856469884E+02  0.23185825270E+02  0.10042476175E+03  0.41800000000E+01 0.  1.
         -5    1    3    3    0  502 -0.31964258199E+02 -0.27016311275E+02  0.11821266676E+02  0.43689925875E+02  0.41800000000E+01 0.  1.
        -11    1    1    2    0    0 -0.47581817166E+02 -0.10052074411E+01 -0.78590329417E+02  0.91877525242E+02  0.00000000000E+00 0.  1.
         11    1    1    2    0    0  0.39115818879E+02 -0.60834951168E+02 -0.11557158600E+03  0.13633682577E+03  0.00000000000E+00 0. -1.
</event>
<event>
 7    1  0.2522928E-009  0.1181220E+03  0.7561462E-02  0.1246228E+00
         -2   -1    0    0    0  501 -0.00000000000E+00  0.00000000000E+00  0.24243379446E+03  0.24243379446E+03  0.00000000000E+00 0.  1.
          2   -1    0    0  501    0  0.00000000000E+00 -0.00000000000E+00 -0.65843329456E+02  0.65843329456E+02  0.00000000000E+00 0. -1.
         25    2    1    2    0    0 -0.60769340084E+01 -0.62170091566E+02  0.12999597331E+03  0.19091731246E+03  0.12509363576E+03 0.  0.
          5    1    3    3  502    0  0.45740357400E+02 -0.66593033851E+02  0.49023226208E+02  0.94591551210E+02  0.41800000000E+01 0.  1.
         -5    1    3    3    0  502 -0.51817291408E+02  0.44229422851E+01  0.80972747098E+02  0.96325761248E+02  0.41800000000E+01 0.  1.
        -11    1    1    2    0    0 -0.36192073679E+02  0.13296580094E+02  0.15424386680E+01  0.38588137509E+02  0.00000000000E+00 0. -1.
         11    1    1    2    0    0  0.42269007688E+02  0.48873511472E+02  0.45052053033E+02  0.78771673951E+02  0.00000000000E+00 0.  1.
</event>
<event>
 7    1  0.2522928E-009  0.1222062E+03  0.7561462E-02  0.1239501E+00
          1   -1    0    0  501    0  0.00000000000E+00  0.00000000000E+00  0.68676578101E+02  0.68676578101E+02  0.00000000000E+00 0. -1.
         -1   -1    0    0    0  501 -0.00000000000E+00 -0.00000000000E+00 -0.26824727423E+03  0.26824727423E+03  0.00000000000E+00 0.  1.
         25    2    1    2    0    0  0.13377788011E+02 -0.71190939867E+02 -0.64745501368E+02  0.15838579773E+03  0.12508783252E+03 0.  0.
          5    1    3    3  502    0 -0.97128183850E+01 -0.10354067307E+03 -0.52604978688E+02  0.11661803464E+03  0.41800000000E+01 0. -1.
         -5    1    3    3    0  502  0.23090606396E+02  0.32349733206E+02 -0.12140522680E+02  0.41767763086E+02  0.41800000000E+01 0. -1.
        -11    1    1    2    0    0  0.27878166021E+02  0.18543265801E+02 -0.94919424284E+02  0.10065158694E+03  0.00000000000E+00 0.  1.
         11    1    1    2    0    0 -0.41255954032E+02  0.52647674066E+02 -0.39905770480E+02  0.77886467665E+02  0.00000000000E+00 0. -1.
</event>
<event>
 7    1  0.2522928E-009  0.5711755E+02  0.7561462E-02  0.1410342E+00
          2   -1    0    0  501    0  0.00000000000E+00  0.00000000000E+00  0.65979353231E+02  0.65979353231E+02  0.00000000000E+00 0.  1.
         -2   -1    0    0    0  501 -0.00000000000E+00 -0.00000000000E+00 -0.18457951842E+03  0.18457951842E+03  0.00000000000E+00 0. -1.
         25    2    1    2    0    0 -0.85565352375E+01  0.20259575533E+02 -0.75428634417E+02  0.14771731046E+03  0.12508900921E+03 0.  0.
          5    1    3    3  502    0  0.52358784685E+01 -0.10511027488E+01 -0.10687403096E+03  0.10708898231E+03  0.41800000000E+01 0.  1.
         -5    1    3    3    0  502 -0.13792413706E+02  0.21310678282E+02  0.31445396539E+02  0.40628328149E+02  0.41800000000E+01 0.  1.
        -11    1    1    2    0    0 -0.31344056246E+02  0.85775431272E+01 -0.42635845311E+02  0.53608202856E+02  0.00000000000E+00 0.  1.
         11    1    1    2    0    0  0.39900591484E+02 -0.28837118661E+02 -0.53568545837E+00  0.49233358329E+02  0.00000000000E+00 0. -1.
</event>
<event>
 7    1  0.2522928E-009  0.1420847E+03  0.7561462E-02  0.1210551E+00
          1   -1    0    0  501    0  0.00000000000E+00  0.00000000000E+00  0.53586109079E+03  0.53586109079E+03  0.00000000000E+00 0.  1.
         -1   -1    0    0    0  501 -0.00000000000E+00 -0.00000000000E+00 -0.61935168006E+02  0.61935168006E+02  0.00000000000E+00 0. -1.
         25    2    1    2    0    0 -0.11069040948E+03  0.57627622180E+02  0.37270856466E+03  0.41247218335E+03  0.12509323833E+03 0.  0.
          5    1    3    3  502    0  0.13719494495E+02  0.17016819380E+02  0.16801512558E+03  0.16948259939E+03  0.41800000000E+01 0. -1.
         -5    1    3    3    0  502 -0.12440990398E+03  0.40610802800E+02  0.20469343908E+03  0.24298958396E+03  0.41800000000E+01 0. -1.
        -11    1    1    2    0    0  0.68720752323E+02 -0.56545384517E+02  0.11094555603E+03  0.14222812209E+03  0.00000000000E+00 0.  1.
         11    1    1    2    0    0  0.41969657159E+02 -0.10822376627E+01 -0.97281979181E+01  0.43095953350E+02  0.00000000000E+00 0. -1.
</event>
<event>
 7    1  0.2616103E-009  0.1574429E+03  0.7561462E-02  0.1191614E+00
         -2   -1    0    0    0  501 -0.00000000000E+00  0.00000000000E+00  0.24275040394E+02  0.24275040394E+02  0.00000000000E+00 0.  1.
          2   -1    0    0  501    0  0.00000000000E+00 -0.00000000000E+00 -0.10387851009E+04  0.10387851009E+04  0.00000000000E+00 0. -1.
         25    2    1    2    0    0 -0.11277086268E+03 -0.27125262330E+02 -0.55431718452E+03  0.57997233232E+03  0.12508923964E+03 0.  0.
          5    1    3    3  502    0 -0.11668913777E+03  0.23932767063E+02 -0.38342070247E+03  0.40151966290E+03  0.41800000000E+01 0. -1.
         -5    1    3    3    0  502  0.39182750933E+01 -0.51058029393E+02 -0.17089648205E+03  0.17845266942E+03  0.41800000000E+01 0. -1.
        -11    1    1    2    0    0  0.61518671916E+02 -0.29256123309E+02 -0.17216252933E+03  0.18514968067E+03  0.00000000000E+00 0.  1.
         11    1    1    2    0    0  0.51252190763E+02  0.56381385639E+02 -0.28803034662E+03  0.29793812827E+03  0.00000000000E+00 0. -1.
</event>
<event>
 7    1  0.2522928E-009  0.1101780E+03  0.7561462E-02  0.1260241E+00
         -2   -1    0    0    0  501 -0.00000000000E+00  0.00000000000E+00  0.39799789433E+02  0.39799789433E+02  0.00000000000E+00 0.  1.
          2   -1    0    0  501    0  0.00000000000E+00 -0.00000000000E+00 -0.55284202630E+03  0.55284202630E+03  0.00000000000E+00 0. -1.
         25    2    1    2    0    0 -0.33003288313E+02 -0.81211134527E+02 -0.38418036797E+03  0.41343183884E+03  0.12508742871E+03 0.  0.
          5    1    3    3  502    0 -0.10885552277E+02 -0.86814326593E+02 -0.12179093190E+03  0.15001908559E+03  0.41800000000E+01 0.  1.
         -5    1    3    3    0  502 -0.22117736036E+02  0.56031920659E+01 -0.26238943607E+03  0.26341275324E+03  0.41800000000E+01 0.  1.
        -11    1    1    2    0    0 -0.63943059462E+01 -0.90500980905E+01  0.56976249657E+01  0.12460110522E+02  0.00000000000E+00 0.  1.
         11    1    1    2    0    0  0.39397594259E+02  0.90261232617E+02 -0.13455949386E+03  0.16674986637E+03  0.00000000000E+00 0. -1.
</event>
<event>
 7    1  0.2522928E-009  0.1426942E+03  0.7561462E-02  0.1209749E+00
          2   -1    0    0  501    0  0.00000000000E+00  0.00000000000E+00  0.55125609283E+03  0.55125609283E+03  0.00000000000E+00 0. -1.
         -2   -1    0    0    0  501 -0.00000000000E+00 -0.00000000000E+00 -0.49045886883E+02  0.49045886883E+02  0.00000000000E+00 0.  1.
         25    2    1    2    0    0  0.10534902865E+03 -0.49184554826E+02  0.34465571077E+03  0.38464507288E+03  0.12508690920E+03 0.  0.
          5    1    3    3  502    0  0.66803352732E+02  0.27337912592E+02  0.87210117291E+02  0.11328338960E+03  0.41800000000E+01 0. -1.
         -5    1    3    3    0  502  0.38545675917E+02 -0.76522467418E+02  0.25744559348E+03  0.27136168329E+03  0.41800000000E+01 0. -1.
        -11    1    1    2    0    0 -0.80613114213E+02  0.10371867866E+02  0.14770383975E+03  0.16858966191E+03  0.00000000000E+00 0. -1.
         11    1    1    2    0    0 -0.24735914436E+02  0.38812686960E+02  0.98506554224E+01  0.47067244919E+02  0.00000000000E+00 0.  1.
</event>
<event>
 7    1  0.2522928E-009  0.1413669E+03  0.7561462E-02  0.1211501E+00
         -2   -1    0    0    0  501 -0.00000000000E+00  0.00000000000E+00  0.17142231800E+03  0.17142231800E+03  0.00000000000E+00 0.  1.
          2   -1    0    0  501    0  0.00000000000E+00 -0.00000000000E+00 -0.14558164229E+03  0.14558164229E+03  0.00000000000E+00 0. -1.
         25    2    1    2    0    0  0.87770811552E+02  0.64081382914E+02 -0.21895842749E+02  0.16714610565E+03  0.12509298025E+03 0.  0.
          5    1    3    3  502    0  0.25569640718E+02  0.75139802029E+02  0.30329623321E+02  0.85071468932E+02  0.41800000000E+01 0. -1.
         -5    1    3    3    0  502  0.62201170835E+02 -0.11058419115E+02 -0.52225466070E+02  0.82074636720E+02  0.41800000000E+01 0. -1.
        -11    1    1    2    0    0  0.18311338400E+02 -0.88138718034E+01  0.16641528383E+02  0.26266517034E+02  0.00000000000E+00 0.  1.
         11    1    1    2    0    0 -0.10608214995E+03 -0.55267511111E+02  0.31094990082E+02  0.12359133761E+03  0.00000000000E+00 0. -1.
</event>
<event>
 7    1  0.2522928E-009  0.1413857E+03  0.7561462E-02  0.1211476E+00
          1   -1    0    0  501    0  0.00000000000E+00  0.00000000000E+00  0.95575138840E+03  0.95575138840E+03  0.00000000000E+00 0. -1.
         -1   -1    0    0    0  501 -0.00000000000E+00 -0.00000000000E+00 -0.36198969375E+02  0.36198969375E+02  0.00000000000E+00 0.  1.
         25    2    1    2    0    0 -0.21968571452E+02 -0.12877728866E+03  0.68043177064E+03  0.70405977553E+03  0.12508622949E+03 0.  0.
          5    1    3    3  502    0  0.48294351299E+00 -0.68426920311E+02  0.10746038030E+03  0.12746639711E+03  0.41800000000E+01 0.  1.
         -5    1    3    3    0  502 -0.22451514965E+02 -0.60350368349E+02  0.57297139035E+03  0.57659337842E+03  0.41800000000E+01 0.  1.
        -11    1    1    2    0    0  0.36052037389E+02  0.22532560073E+02  0.12170352918E+03  0.12891553311E+03  0.00000000000E+00 0. -1.
         11    1    1    2    0    0 -0.14083465937E+02  0.10624472859E+03  0.11741711920E+03  0.15897504913E+03  0.00000000000E+00 0.  1.
</event>
<event>
 7    1  0.2522928E-009  0.9455396E+02  0.7561462E-02  0.1292184E+00
         -2   -1    0    0    0  501 -0.00000000000E+00  0.00000000000E+00  0.44727939327E+03  0.44727939327E+03  0.00000000000E+00 0.  1.
          2   -1    0    0  501    0  0.00000000000E+00 -0.00000000000E+00 -0.28661103229E+02  0.28661103229E+02  0.00000000000E+00 0. -1.
         25    2    1    2    0    0 -0.26919888210E+02 -0.14181895232E+02  0.25282050334E+03  0.28371093538E+03  0.12509149215E+03 0.  0.
          5    1    3    3  502    0 -0.65461939089E+02  0.16539963985E+02  0.84334666619E+02  0.10811403365E+03  0.41800000000E+01 0.  1.
         -5    1    3    3    0  502  0.38542050879E+02 -0.30721859217E+02  0.16848583672E+03  0.17559690173E+03  0.41800000000E+01 0.  1.
        -11    1    1    2    0    0  0.28858585389E+02  0.38212674878E+02  0.16057296620E+03  0.16756104543E+03  0.00000000000E+00 0.  1.
         11    1    1    2    0    0 -0.19386971784E+01 -0.24030779646E+02  0.52248204953E+01  0.24668515690E+02  0.00000000000E+00 0. -1.
</event>
<event>
 7    1  0.2522928E-009  0.6113492E+02  0.7561462E-02  0.1393130E+00
          2   -1    0    0  501    0  0.00000000000E+00  0.00000000000E+00  0.39967254244E+03  0.39967254244E+03  0.00000000000E+00 0. -1.
         -2   -1    0    0    0  501 -0.00000000000E+00 -0.00000000000E+00 -0.35712669548E+02  0.35712669548E+02  0.00000000000E+00 0.  1.
         25    2    1    2    0    0 -0.30869882639E+02 -0.62735794459E+01  0.28206157944E+03  0.31015887197E+03  0.12508990291E+03 0.  0.
          5    1    3    3  502    0 -0.13153075324E+02  0.16141895046E+02 -0.48610823049E+01  0.21786846659E+02  0.41800000000E+01 0.  1.
         -5    1    3    3    0  502 -0.17716807316E+02 -0.22415474492E+02  0.28692266175E+03  0.28837202531E+03  0.41800000000E+01 0.  1.
        -11    1    1    2    0    0  0.55450225807E+01  0.34090322870E+02 -0.61354853679E+00  0.34543795834E+02  0.00000000000E+00 0.  1.
         11    1    1    2    0    0  0.25324860059E+02 -0.27816743424E+02  0.82511841984E+02  0.90682544182E+02  0.00000000000E+00 0. -1.
</event>
<event>
 7    1  0.2522928E-009  0.1101636E+03  0.7561462E-02  0.1260267E+00
         -1   -1    0    0    0  501 -0.00000000000E+00  0.00000000000E+00  0.10043993309E+03  0.10043993309E+03  0.00000000000E+00 0.  1.
          1   -1    0    0  501    0  0.00000000000E+00 -0.00000000000E+00 -0.18809782807E+03  0.18809782807E+03  0.00000000000E+00 0. -1.
         25    2    1    2    0    0  0.71368136790E+02 -0.15991225551E+02 -0.30518498543E+01  0.14493773441E+03  0.12509397597E+03 0.  0.
          5    1    3    3  502    0  0.61627545256E+02  0.25365850065E+02 -0.48539598237E+02  0.82552684274E+02  0.41800000000E+01 0. -1.
         -5    1    3    3    0  502  0.97405915337E+01 -0.41357075617E+02  0.45487748383E+02  0.62385050131E+02  0.41800000000E+01 0. -1.
        -11    1    1    2    0    0  0.13257774707E+02  0.22358575754E+02 -0.40059376082E+02  0.47753828245E+02  0.00000000000E+00 0. -1.
         11    1    1    2    0    0 -0.84625911496E+02 -0.63673502027E+01 -0.44546669051E+02  0.95846198510E+02  0.00000000000E+00 0.  1.
</event>
<event>
 7    1  0.2522928E-009  0.1790498E+03  0.7561462E-02  0.1168726E+00
         -2   -1    0    0    0  501 -0.00000000000E+00  0.00000000000E+00  0.65522023522E+02  0.65522023522E+02  0.00000000000E+00 0.  1.
          2   -1    0    0  501    0  0.00000000000E+00 -0.00000000000E+00 -0.72436167793E+03  0.72436167793E+03  0.00000000000E+00 0. -1.
         25    2    1    2    0    0 -0.22162156463E+02  0.15583669854E+03 -0.15538519120E+03  0.25410237334E+03  0.12508885124E+03 0.  0.
          5    1    3    3  502    0 -0.53085767622E+02  0.13445936643E+02 -0.49472014147E+02  0.73917822749E+02  0.41800000000E+01 0. -1.
         -5    1    3    3    0  502  0.30923611159E+02  0.14239076189E+03 -0.10591317705E+03  0.18018455060E+03  0.41800000000E+01 0. -1.
        -11    1    1    2    0    0  0.47589103712E+01 -0.36624673543E+02 -0.31031433608E+02  0.48238613287E+02  0.00000000000E+00 0. -1.
         11    1    1    2    0    0  0.17403246091E+02 -0.11921202499E+03 -0.47242302960E+03  0.48754271482E+03  0.00000000000E+00 0.  1.
</event>
<event>
 7    1  0.2522928E-009  0.6640575E+02  0.7561462E-02  0.1372760E+00
          1   -1    0    0  501    0  0.00000000000E+00  0.00000000000E+00  0.36074615877E+03  0.36074615877E+03  0.00000000000E+00 0. -1.
         -1   -1    0    0    0  501 -0.00000000000E+00 -0.00000000000E+00 -0.40437820792E+02  0.40437820792E+02  0.00000000000E+00 0.  1.
         25    2    1    2    0    0 -0.25261214037E+02  0.21654894221E+02  0.12593759355E+03  0.18059122078E+03  0.12508336490E+03 0.  0.
          5    1    3    3  502    0 -0.45943594963E+02  0.11935172093E+01  0.14043134885E+03  0.14781973664E+03  0.41800000000E+01 0. -1.
         -5    1    3    3    0  502  0.20682380925E+02  0.20461377011E+02 -0.14493755299E+02  0.32771484138E+02  0.41800000000E+01 0. -1.
        -11    1    1    2    0    0 -0.12803141482E+02  0.12206689071E+01 -0.68210018423E+01  0.14558040065E+02  0.00000000000E+00 0.  1.
         11    1    1    2    0    0  0.38064355520E+02 -0.22875563128E+02  0.20119174627E+03  0.20603471871E+03  0.00000000000E+00 0. -1.
</event>
<event>
 7    1  0.2522928E-009  0.1366827E+03  0.7561462E-02  0.1217864E+00
         -2   -1    0    0    0  501 -0.00000000000E+00  0.00000000000E+00  0.35476587485E+02  0.35476587485E+02  0.00000000000E+00 0. -1.
          2   -1    0    0  501    0  0.00000000000E+00 -0.00000000000E+00 -0.73734743816E+03  0.73734743816E+03  0.00000000000E+00 0.  1.
         25    2    1    2    0    0 -0.56245191626E+02  0.89661174244E+02 -0.50773604286E+03  0.53352360062E+03  0.12509554529E+03 0.  0.
          5    1    3    3  502    0 -0.24006574335E+01 -0.29229443852E+02 -0.14509942115E+03  0.14809266681E+03  0.41800000000E+01 0. -1.
         -5    1    3    3    0  502 -0.53844534192E+02  0.11889061810E+03 -0.36263662171E+03  0.38543093381E+03  0.41800000000E+01 0. -1.
        -11    1    1    2    0    0 -0.26800223664E+01 -0.27041979045E+02 -0.12792156210E+03  0.13077605745E+03  0.00000000000E+00 0.  1.
         11    1    1    2    0    0  0.58925213992E+02 -0.62619195199E+02 -0.66213245719E+02  0.10852436759E+03  0.00000000000E+00 0. -1.
</event>
<event>
 7    1  0.2522928E-009  0.1055580E+03  0.7561462E-02  0.1269024E+00
          1   -1    0    0  501    0  0.00000000000E+00  0.00000000000E+00  0.28599848505E+03  0.28599848505E+03  0.00000000000E+00 0. -1.
         -1   -1    0    0    0  501 -0.00000000000E+00 -0.00000000000E+00 -0.46126946520E+02  0.46126946520E+02  0.00000000000E+00 0.  1.
         25    2    1    2    0    0 -0.12975840449E+02 -0.22060848819E+02  0.92800224341E+02  0.15784310866E+03  0.12509001490E+03 0.  0.
          5    1    3    3  502    0  0.51073336533E+02 -0.15486566972E+02  0.12755279394E+02  0.55031709165E+02  0.41800000000E+01 0. -1.
         -5    1    3    3    0  502 -0.64049176982E+02 -0.65742818478E+01  0.80044944947E+02  0.10281139949E+03  0.41800000000E+01 0. -1.
        -11    1    1    2    0    0  0.43229091633E+02  0.39144311141E+02  0.83727210526E+02  0.10203566651E+03  0.00000000000E+00 0. -1.
         11    1    1    2    0    0 -0.30253251184E+02 -0.17083462321E+02  0.63344103661E+02  0.72246656398E+02  0.00000000000E+00 0.  1.
</event>
<event>
 7    1  0.2522928E-009  0.2013066E+03  0.7561462E-02  0.1148641E+00
          1   -1    0    0  501    0  0.00000000000E+00  0.00000000000E+00  0.64081209540E+03  0.64081209540E+03  0.00000000000E+00 0. -1.
         -1   -1    0    0    0  501 -0.00000000000E+00 -0.00000000000E+00 -0.75140570993E+02  0.75140570993E+02  0.00000000000E+00 0.  1.
         25    2    1    2    0    0 -0.78419923514E+02 -0.16525433008E+03  0.40458176187E+03  0.46129509894E+03  0.12509231891E+03 0.  0.
          5    1    3    3  502    0  0.24605858811E+02 -0.85015448942E+02  0.13145644456E+03  0.15852868530E+03  0.41800000000E+01 0.  1.
         -5    1    3    3    0  502 -0.10302578233E+03 -0.80238881134E+02  0.27312531731E+03  0.30276641364E+03  0.41800000000E+01 0.  1.
        -11    1    1    2    0    0  0.71797828019E+02  0.14116559326E+03  0.96630859021E+02  0.18552675209E+03  0.00000000000E+00 0.  1.
         11    1    1    2    0    0  0.66220954955E+01  0.24088736820E+02  0.64458903515E+02  0.69130815363E+02  0.00000000000E+00 0. -1.
</event>
<event>
 7    1  0.2522928E-009  0.9774204E+02  0.7561462E-02  0.1285117E+00
         -1   -1    0    0    0  501 -0.00000000000E+00  0.00000000000E+00  0.32082174668E+02  0.32082174668E+02  0.00000000000E+00 0.  1.
          1   -1    0    0  501    0  0.00000000000E+00 -0.00000000000E+00 -0.55847797474E+03  0.55847797474E+03  0.00000000000E+00 0. -1.
         25    2    1    2    0    0 -0.48373776858E+02 -0.62139157290E+02 -0.22687879377E+03  0.27078140566E+03  0.12508910998E+03 0.  0.
          5    1    3    3  502    0  0.21761470588E+01 -0.82819269074E+01  0.15039174392E+02  0.17803794419E+02  0.41800000000E+01 0. -1.
         -5    1    3    3    0  502 -0.50549923916E+02 -0.53857230383E+02 -0.24191796816E+03  0.25297761124E+03  0.41800000000E+01 0. -1.
        -11    1    1    2    0    0  0.22275252915E+02 -0.17397400658E+02 -0.79593530321E+02  0.84462929804E+02  0.00000000000E+00 0.  1.
         11    1    1    2    0    0  0.26098523943E+02  0.79536557949E+02 -0.21992347599E+03  0.23531581394E+03  0.00000000000E+00 0. -1.
</event>
<event>
 7    1  0.2522928E-009  0.1175139E+03  0.7561462E-02  0.1247256E+00
         -1   -1    0    0    0  501 -0.00000000000E+00  0.00000000000E+00  0.16613883227E+03  0.16613883227E+03  0.00000000000E+00 0.  1.
          1   -1    0    0  501    0  0.00000000000E+00 -0.00000000000E+00 -0.11716122485E+03  0.11716122485E+03  0.00000000000E+00 0. -1.
         25    2    1    2    0    0  0.83826181729E+02 -0.23092495175E+01  0.53383733227E+02  0.15979090209E+03  0.12510454845E+03 0.  0.
          5    1    3    3  502    0  0.20256718626E+02 -0.38970376084E+02  0.71566547107E+02  0.84072991658E+02  0.41800000000E+01 0. -1.
         -5    1    3    3    0  502  0.63569463102E+02  0.36661126566E+02 -0.18182813880E+02  0.75717910436E+02  0.41800000000E+01 0. -1.
        -11    1    1    2    0    0 -0.69338237019E+02  0.37871172679E+02 -0.20888828207E+02  0.81721233330E+02  0.00000000000E+00 0. -1.
         11    1    1    2    0    0 -0.14487944709E+02 -0.35561923161E+02  0.16482702408E+02  0.41787921694E+02  0.00000000000E+00 0.  1.
</event>
<event>
 7    1  0.2597599E-009  0.1249941E+03  0.7561462E-02  0.1235078E+00
         -1   -1    0    0    0  501 -0.00000000000E+00  0.00000000000E+00  0.63174052361E+02  0.63174052361E+02  0.00000000000E+00 0.  1.
          1   -1    0    0  501    0  0.00000000000E+00 -0.00000000000E+00 -0.30410749113E+03  0.30410749113E+03  0.00000000000E+00 0. -1.
         25    2    1    2    0    0 -0.17911918598E+02 -0.81623465689E+02 -0.10444721455E+03  0.18313896842E+03  0.12508970441E+03 0.  0.
          5    1    3    3  502    0 -0.26254556585E+02 -0.10951313161E+03 -0.10456027729E+03  0.15372947578E+03  0.41800000000E+01 0.  1.
         -5    1    3    3    0  502  0.83426379876E+01  0.27889665926E+02  0.11306274236E+00  0.29409492638E+02  0.41800000000E+01 0.  1.
        -11    1    1    2    0    0  0.39082493399E+02  0.76799402569E+02 -0.60952685799E+02  0.10555008021E+03  0.00000000000E+00 0.  1.
         11    1    1    2    0    0 -0.21170574801E+02  0.48240631194E+01 -0.75533538419E+02  0.78592494861E+02  0.00000000000E+00 0. -1.
</event>
<event>
 7    1  0.2522928E-009  0.9957992E+02  0.7561462E-02  0.1281182E+00
         -2   -1    0    0    0  501 -0.00000000000E+00  0.00000000000E+00  0.37167178109E+02  0.37167178109E+02  0.00000000000E+00 0. -1.
          2   -1    0    0  501    0  0.00000000000E+00 -0.00000000000E+00 -0.42944961125E+03  0.42944961125E+03  0.00000000000E+00 0.  1.
         25    2    1    2    0    0  0.53547333595E+02  0.33679530549E+02 -0.19497584461E+03  0.24013310662E+03  0.12508677468E+03 0.  0.
          5    1    3    3  502    0  0.74550601407E+02 -0.12935988635E+02 -0.16281388745E+03  0.17958554039E+03  0.41800000000E+01 0.  1.
         -5    1    3    3    0  502 -0.21003267812E+02  0.46615519184E+02 -0.32161957157E+02  0.60547566225E+02  0.41800000000E+01 0.  1.
        -11    1    1    2    0    0 -0.50494754313E+02 -0.14325804543E+02 -0.19993986850E+03  0.20671453724E+03  0.00000000000E+00 0.  1.
         11    1    1    2    0    0 -0.30525792829E+01 -0.19353726006E+02  0.26332799653E+01  0.19769145504E+02  0.00000000000E+00 0. -1.
</event>
<event>
 7    1  0.2522928E-009  0.2981389E+03  0.7561462E-02  0.1086175E+00
         -1   -1    0    0    0  501 -0.00000000000E+00  0.00000000000E+00  0.26627069122E+03  0.26627069122E+03  0.00000000000E+00 0.  1.
          1   -1    0    0  501    0  0.00000000000E+00 -0.00000000000E+00 -0.36567011825E+03  0.36567011825E+03  0.00000000000E+00 0. -1.
         25    2    1    2    0    0 -0.17434265456E+03 -0.23361414041E+03 -0.26849698813E+02  0.31833318548E+03  0.12507670788E+03 0.  0.
          5    1    3    3  502    0 -0.69175020651E+02 -0.92869570010E+02 -0.72585222191E+02  0.13673341726E+03  0.41800000000E+01 0.  1.
         -5    1    3    3    0  502 -0.10516763391E+03 -0.14074457040E+03  0.45735523378E+02  0.18159976822E+03  0.41800000000E+01 0.  1.
        -11    1    1    2    0    0  0.44892421306E+02  0.95689128602E+01 -0.17073658892E+02  0.48973497037E+02  0.00000000000E+00 0.  1.
         11    1    1    2    0    0  0.12945023325E+03  0.22404522755E+03 -0.55476069323E+02  0.26463412694E+03  0.00000000000E+00 0. -1.
</event>
<event>
 7    1  0.2522928E-009  0.5397643E+02  0.7561462E-02  0.1425002E+00
         -2   -1    0    0    0  501 -0.00000000000E+00  0.00000000000E+00  0.42223190203E+02  0.42223190203E+02  0.00000000000E+00 0.  1.
          2   -1    0    0  501    0  0.00000000000E+00 -0.00000000000E+00 -0.34516786294E+03  0.34516786294E+03  0.00000000000E+00 0. -1.
         25    2    1    2    0    0  0.11502959137E+02  0.30371987630E+02 -0.23921827212E+03  0.27189680994E+03  0.12509083834E+03 0.  0.
          5    1    3    3  502    0  0.85292016497E+01  0.31600592430E+02 -0.37911259259E+00  0.32999406798E+02  0.41800000000E+01 0. -1.
         -5    1    3    3    0  502  0.29737574870E+01 -0.12286047995E+01 -0.23883915953E+03  0.23889740314E+03  0.41800000000E+01 0. -1.
        -11    1    1    2    0    0 -0.36518554108E+02 -0.11309211523E+02  0.62851147347E+01  0.38742815162E+02  0.00000000000E+00 0.  1.
         11    1    1    2    0    0  0.25015594971E+02 -0.19062776107E+02 -0.70011515349E+02  0.76751428040E+02  0.00000000000E+00 0. -1.
</event>
<event>
 7    1  0.2522928E-009  0.1068989E+03  0.7561462E-02  0.1266423E+00
          1   -1    0    0  501    0  0.00000000000E+00  0.00000000000E+00  0.10551145670E+03  0.10551145670E+03  0.00000000000E+00 0. -1.
         -1   -1    0    0    0  501 -0.00000000000E+00 -0.00000000000E+00 -0.28191664086E+03  0.28191664086E+03  0.00000000000E+00 0.  1.
         25    2    1    2    0    0  0.17328119279E+02  0.30851224043E+01 -0.24100855090E+03  0.27210891051E+03  0.12509338860E+03 0.  0.
          5    1    3    3  502    0  0.22499799260E+02  0.62357153896E+02 -0.11828364322E+03  0.13565820382E+03  0.41800000000E+01 0. -1.
         -5    1    3    3    0  502 -0.51716799805E+01 -0.59272031492E+02 -0.12272490768E+03  0.13645070669E+03  0.41800000000E+01 0. -1.
        -11    1    1    2    0    0  0.26930384106E+02  0.23804687061E+02  0.48844992714E+01  0.36273503378E+02  0.00000000000E+00 0.  1.
         11    1    1    2    0    0 -0.44258503385E+02 -0.26889809465E+02  0.59718867479E+02  0.79045683677E+02  0.00000000000E+00 0. -1.
</event>
<event>
 7    1  0.2522928E-009  0.1049551E+03  0.7561462E-02  0.1270208E+00
          2   -1    0    0  501    0  0.00000000000E+00  0.00000000000E+00  0.27598608005E+03  0.27598608005E+03  0.00000000000E+00 0. -1.
         -2   -1    0    0    0  501 -0.00000000000E+00 -0.00000000000E+00 -0.49438319528E+02  0.49438319528E+02  0.00000000000E+00 0.  1.
         25    2    1    2    0    0 -0.33395216525E+02 -0.29059256098E+02  0.10803841571E+03  0.17110744882E+03  0.12508308807E+03 0.  0.
          5    1    3    3  502    0  0.36686579218E+02 -0.10390806864E+01 -0.26908687152E+01  0.37036440945E+02  0.41800000000E+01 0. -1.
         -5    1    3    3    0  502 -0.70081795743E+02 -0.28020175412E+02  0.11072928442E+03  0.13407100788E+03  0.41800000000E+01 0. -1.
        -11    1    1    2    0    0 -0.24152551575E+02  0.31603851172E+02  0.35731456638E+02  0.53468552907E+02  0.00000000000E+00 0. -1.
         11    1    1    2    0    0  0.57547768100E+02 -0.25445950739E+01  0.82777888174E+02  0.10084839785E+03  0.00000000000E+00 0.  1.
</event>
<event>
 7    1  0.2522928E-009  0.1079669E+03  0.7561462E-02  0.1264382E+00
         -2   -1    0    0    0  501 -0.00000000000E+00  0.00000000000E+00  0.22757138275E+02  0.22757138275E+02  0.00000000000E+00 0.  1.
          2   -1    0    0  501    0  0.00000000000E+00 -0.00000000000E+00 -0.59171775152E+03  0.59171775152E+03  0.00000000000E+00 0. -1.
         25    2    1    2    0    0 -0.28357946930E+02  0.30494935499E+02 -0.33656619537E+03  0.36146652768E+03  0.12508849876E+03 0.  0.
          5    1    3    3  502    0  0.31630548573E+02 -0.29863582175E+02 -0.80491704446E+02  0.91589912261E+02  0.41800000000E+01 0. -1.
         -5    1    3    3    0  502 -0.59988495504E+02  0.60358517674E+02 -0.25607449093E+03  0.26987661542E+03  0.41800000000E+01 0. -1.
        -11    1    1    2    0    0 -0.26406863788E+02 -0.13700054946E+02 -0.28417381076E+02  0.41140752398E+02  0.00000000000E+00 0.  1.
         11    1    1    2    0    0  0.54764810718E+02 -0.16794880553E+02 -0.20397703680E+03  0.21186760972E+03  0.00000000000E+00 0. -1.
</event>
<event>
 7    1  0.2522928E-009  0.1412591E+03  0.7561462E-02  0.1211645E+00
          1   -1    0    0  501    0  0.00000000000E+00  0.00000000000E+00  0.74600807012E+03  0.74600807012E+03  0.00000000000E+00 0.  1.
         -1   -1    0    0    0  501 -0.00000000000E+00 -0.00000000000E+00 -0.31061364734E+02  0.31061364734E+02  0.00000000000E+00 0. -1.
         25    2    1    2    0    0 -0.91832250816E+02  0.73767392781E+02  0.48900357991E+03  0.51830820830E+03  0.12507640505E+03 0.  0.
          5    1    3    3  502    0  0.20466246867E+02 -0.34935987064E+01  0.17086578407E+03  0.17217334596E+03  0.41800000000E+01 0.  1.
         -5    1    3    3    0  502 -0.11229849768E+03  0.77260991488E+02  0.31813779584E+03  0.34613486234E+03  0.41800000000E+01 0.  1.
        -11    1    1    2    0    0  0.49946577413E+02 -0.13798323992E+02  0.11127498650E+03  0.12274842957E+03  0.00000000000E+00 0. -1.
         11    1    1    2    0    0  0.41885673403E+02 -0.59969068789E+02  0.11466813897E+03  0.13601279698E+03  0.00000000000E+00 0.  1.
</event>
<event>
 7    1  0.2818689E-009  0.7476144E+02  0.7561462E-02  0.1344611E+00
         -2   -1    0    0    0  501 -0.00000000000E+00  0.00000000000E+00  0.53664030206E+02  0.53664030206E+02  0.00000000000E+00 0.  1.
          2   -1    0    0  501    0  0.00000000000E+00 -0.00000000000E+00 -0.29616974733E+03  0.29616974733E+03  0.00000000000E+00 0. -1.
         25    2    1    2    0    0 -0.11462300475E+02  0.48446229208E+02 -0.19241761730E+03  0.23484734120E+03  0.12510121009E+03 0.  0.
          5    1    3    3  502    0  0.22229609703E+02  0.49375873177E+01  0.98692213778E+01  0.25167622984E+02  0.41800000000E+01 0.  1.
         -5    1    3    3    0  502 -0.33691910177E+02  0.43508641891E+02 -0.20228683868E+03  0.20967971822E+03  0.41800000000E+01 0.  1.
        -11    1    1    2    0    0  0.29278696112E+02 -0.43948991636E+02 -0.70134234751E+02  0.87792749108E+02  0.00000000000E+00 0. -1.
         11    1    1    2    0    0 -0.17816395637E+02 -0.44972375725E+01  0.20046134927E+02  0.27193687223E+02  0.00000000000E+00 0.  1.
</event>
<event>
 7    1  0.2522928E-009  0.1102873E+03  0.7561462E-02  0.1260039E+00
          2   -1    0    0  501    0  0.00000000000E+00  0.00000000000E+00  0.29030480083E+03  0.29030480083E+03  0.00000000000E+00 0. -1.
         -2   -1    0    0    0  501 -0.00000000000E+00 -0.00000000000E+00 -0.55309350215E+02  0.55309350215E+02  0.00000000000E+00 0.  1.
         25    2    1    2    0    0  0.44818333627E+02  0.34941951030E+02  0.88578016318E+02  0.16348323959E+03  0.12510428322E+03 0.  0.
          5    1    3    3  502    0  0.84672861332E+02  0.44132522758E+02  0.69414376904E+02  0.11812282223E+03  0.41800000000E+01 0.  1.
         -5    1    3    3    0  502 -0.39854527705E+02 -0.91905717280E+01  0.19163639414E+02  0.45360417357E+02  0.41800000000E+01 0.  1.
        -11    1    1    2    0    0 -0.26045549335E+02  0.15330577531E+02  0.11719040664E+03  0.12102474398E+03  0.00000000000E+00 0. -1.
         11    1    1    2    0    0 -0.18772784292E+02 -0.50272528560E+02  0.29227027663E+02  0.61106167478E+02  0.00000000000E+00 0.  1.
</event>
<event>
 7    1  0.2522928E-009  0.1120135E+03  0.7561462E-02  0.1256886E+00
         -1   -1    0    0    0  501 -0.00000000000E+00  0.00000000000E+00  0.25959663395E+03  0.25959663395E+03  0.00000000000E+00 0.  1.
          1   -1    0    0  501    0  0.00000000000E+00 -0.00000000000E+00 -0.13706676319E+03  0.13706676319E+03  0.00000000000E+00 0. -1.
         25    2    1    2    0    0 -0.54291178655E+02  0.40584210686E+02  0.20973992939E+03  0.25344261869E+03  0.12509081801E+03 0.  0.
          5    1    3    3  502    0 -0.90798870509E+02  0.95519978678E+01  0.15992081255E+03  0.18419504400E+03  0.41800000000E+01 0. -1.
         -5    1    3    3    0  502  0.36507691854E+02  0.31032212818E+02  0.49819116845E+02  0.69247574688E+02  0.41800000000E+01 0. -1.
        -11    1    1    2    0    0  0.13249071910E+02  0.11968585220E+02  0.13536870754E+02  0.22406066332E+02  0.00000000000E+00 0.  1.
         11    1    1    2    0    0  0.41042106745E+02 -0.52552795906E+02 -0.10074692939E+03  0.12081471212E+03  0.00000000000E+00 0. -1.
</event>
<event>
 7    1  0.2522928E-009  0.9500737E+02  0.7561462E-02  0.1291159E+00
         -1   -1    0    0    0  501 -0.00000000000E+00  0.00000000000E+00  0.76092410589E+02  0.76092410589E+02  0.00000000000E+00 0.  1.
          1   -1    0    0  501    0  0.00000000000E+00 -0.00000000000E+00 -0.26195374097E+03  0.26195374097E+03  0.00000000000E+00 0. -1.
         25    2    1    2    0    0  0.62461838087E+02  0.61874460801E+02 -0.85818086272E+02  0.17533360267E+03  0.12508876120E+03 0.  0.
          5    1    3    3  502    0  0.86389382761E+01 -0.18368488379E+01  0.30566022202E+02  0.32089864154E+02  0.41800000000E+01 0. -1.
         -5    1    3    3    0  502  0.53822899811E+02  0.63711309639E+02 -0.11638410847E+03  0.14324373852E+03  0.41800000000E+01 0. -1.
        -11    1    1    2    0    0 -0.28591253821E+02 -0.29141722810E+01 -0.89377656594E+02  0.93884597743E+02  0.00000000000E+00 0. -1.
         11    1    1    2    0    0 -0.33870584266E+02 -0.58960288520E+02 -0.10665587512E+02  0.68827951138E+02  0.00000000000E+00 0.  1.
</event>
<event>
 7    1  0.2522928E-009  0.3065760E+03  0.7561462E-02  0.1081999E+00
          1   -1    0    0  501    0  0.00000000000E+00  0.00000000000E+00  0.40118801100E+03  0.40118801100E+03  0.00000000000E+00 0. -1.
         -1   -1    0    0    0  501 -0.00000000000E+00 -0.00000000000E+00 -0.24772225503E+03  0.24772225503E+03  0.00000000000E+00 0.  1.
         25    2    1    2    0    0 -0.15094460299E+03  0.25102551591E+03  0.38358442613E+02  0.32080711153E+03  0.12509096642E+03 0.  0.
          5    1    3    3  502    0 -0.21926457882E+02  0.15664085060E+03  0.11337094306E+02  0.15862889944E+03  0.41800000000E+01 0. -1.
         -5    1    3    3    0  502 -0.12901814510E+03  0.94384665315E+02  0.27021348307E+02  0.16217821209E+03  0.41800000000E+01 0. -1.
        -11    1    1    2    0    0  0.10794319574E+03 -0.20712765601E+03  0.50548976496E+02  0.23897447231E+03  0.00000000000E+00 0.  1.
         11    1    1    2    0    0  0.43001407244E+02 -0.43897859901E+02  0.64558336868E+02  0.89128682185E+02  0.00000000000E+00 0. -1.
</event>
<event>
 7    1  0.2522928E-009  0.1722116E+03  0.7561462E-02  0.1175561E+00
          1   -1    0    0  501    0  0.00000000000E+00  0.00000000000E+00  0.51605818842E+03  0.51605818842E+03  0.00000000000E+00 0. -1.
         -1   -1    0    0    0  501 -0.00000000000E+00 -0.00000000000E+00 -0.67824526292E+02  0.67824526292E+02  0.00000000000E+00 0.  1.
         25    2    1    2    0    0  0.20660026291E+02  0.13141239464E+03  0.12203233748E+03  0.21962659117E+03  0.12509154251E+03 0.  0.
          5    1    3    3  502    0 -0.52478509867E+02  0.65571901402E+02  0.54752049342E+02  0.10034404595E+03  0.41800000000E+01 0. -1.
         -5    1    3    3    0  502  0.73138536158E+02  0.65840493237E+02  0.67280288140E+02  0.11928254522E+03  0.41800000000E+01 0. -1.
        -11    1    1    2    0    0  0.35833707975E+02 -0.68320008128E+02  0.14521597570E+03  0.16443648542E+03  0.00000000000E+00 0. -1.
         11    1    1    2    0    0 -0.56493734266E+02 -0.63092386511E+02  0.18098534895E+03  0.19981963813E+03  0.00000000000E+00 0.  1.
</event>
<event>
 7    1  0.2522928E-009  0.5679761E+02  0.7561462E-02  0.1411784E+00
          1   -1    0    0  501    0  0.00000000000E+00  0.00000000000E+00  0.42255688776E+03  0.42255688776E+03  0.00000000000E+00 0. -1.
         -1   -1    0    0    0  501 -0.00000000000E+00 -0.00000000000E+00 -0.44982225906E+02  0.44982225906E+02  0.00000000000E+00 0.  1.
         25    2    1    2    0    0  0.88528581571E+01  0.49954031959E+01  0.35653675535E+03  0.37798032757E+03  0.12508933993E+03 0.  0.
          5    1    3    3  502    0  0.16123240581E+02  0.69238782875E+01  0.36527276493E+03  0.36571787512E+03  0.41800000000E+01 0.  1.
         -5    1    3    3    0  502 -0.72703824241E+01 -0.19284750916E+01 -0.87360095821E+01  0.12262452454E+02  0.41800000000E+01 0.  1.
        -11    1    1    2    0    0 -0.68390215077E+01 -0.45694296194E+02  0.13327517638E+02  0.48087042394E+02  0.00000000000E+00 0.  1.
         11    1    1    2    0    0 -0.20138366495E+01  0.40698892998E+02  0.77103888670E+01  0.41471743703E+02  0.00000000000E+00 0. -1.
</event>
<event>
 7    1  0.2522928E-009  0.7653017E+02  0.7561462E-02  0.1339197E+00
         -4   -1    0    0    0  501 -0.00000000000E+00  0.00000000000E+00  0.14091223943E+03  0.14091223943E+03  0.00000000000E+00 0.  1.
          4   -1    0    0  501    0  0.00000000000E+00 -0.00000000000E+00 -0.13250728472E+03  0.13250728472E+03  0.00000000000E+00 0. -1.
         25    2    1    2    0    0 -0.12757071071E+02  0.14317702629E+02  0.89837596487E+02  0.15519714176E+03  0.12509044567E+03 0.  0.
          5    1    3    3  502    0 -0.37097731289E+02  0.27253925799E+02 -0.13509143103E+02  0.48155866576E+02  0.41800000000E+01 0.  1.
         -5    1    3    3    0  502  0.24340660218E+02 -0.12936223171E+02  0.10334673959E+03  0.10704127519E+03  0.41800000000E+01 0.  1.
        -11    1    1    2    0    0  0.27458951275E+02  0.24904909570E+02 -0.61559382364E+02  0.71859627628E+02  0.00000000000E+00 0. -1.
         11    1    1    2    0    0 -0.14701880204E+02 -0.39222612198E+02 -0.19873259416E+02  0.46362754761E+02  0.00000000000E+00 0.  1.
</event>
<event>
 7    1  0.2522928E-009  0.2011116E+03  0.7561462E-02  0.1148805E+00
          1   -1    0    0  501    0  0.00000000000E+00  0.00000000000E+00  0.42748630811E+03  0.42748630811E+03  0.00000000000E+00 0. -1.
         -1   -1    0    0    0  501 -0.00000000000E+00 -0.00000000000E+00 -0.10499588365E+03  0.10499588365E+03  0.00000000000E+00 0.  1.
         25    2    1    2    0    0  0.17255772771E+03  0.48035556573E+02  0.13106133773E+03  0.25477048855E+03  0.12508934208E+03 0.  0.
          5    1    3    3  502    0  0.99312130962E+02 -0.25909499759E+02  0.24185685311E+02  0.10553019145E+03  0.41800000000E+01 0.  1.
         -5    1    3    3    0  502  0.73245596746E+02  0.73945056333E+02  0.10687565242E+03  0.14924029710E+03  0.41800000000E+01 0.  1.
        -11    1    1    2    0    0 -0.66151511666E+02 -0.58644217832E+02  0.12027176114E+03  0.14926641722E+03  0.00000000000E+00 0.  1.
         11    1    1    2    0    0 -0.10640621604E+03  0.10608661259E+02  0.71157325590E+02  0.12844528598E+03  0.00000000000E+00 0. -1.
</event>
<event>
 7    1  0.2522928E-009  0.1732723E+03  0.7561462E-02  0.1174478E+00
          2   -1    0    0  501    0  0.00000000000E+00  0.00000000000E+00  0.27579323674E+03  0.27579323674E+03  0.00000000000E+00 0. -1.
         -2   -1    0    0    0  501 -0.00000000000E+00 -0.00000000000E+00 -0.21056491684E+03  0.21056491684E+03  0.00000000000E+00 0.  1.
         25    2    1    2    0    0 -0.74168601018E+02  0.14666709922E+03 -0.10416892116E+03  0.23132538472E+03  0.12509216645E+03 0.  0.
          5    1    3    3  502    0 -0.74946400520E+02  0.15429641141E+03 -0.12262987148E+03  0.21090259198E+03  0.41800000000E+01 0. -1.
         -5    1    3    3    0  502  0.77779950191E+00 -0.76293121917E+01  0.18460950316E+02  0.20422792736E+02  0.41800000000E+01 0. -1.
        -11    1    1    2    0    0  0.27871970537E+02 -0.82632785841E+02  0.25484716903E+02  0.90854250496E+02  0.00000000000E+00 0.  1.
         11    1    1    2    0    0  0.46296630481E+02 -0.64034313382E+02  0.14391252415E+03  0.16417851836E+03  0.00000000000E+00 0. -1.
</event>
<event>
 7    1  0.2522928E-009  0.8654034E+02  0.7561462E-02  0.1311453E+00
          2   -1    0    0  501    0  0.00000000000E+00  0.00000000000E+00  0.12343273393E+03  0.12343273393E+03  0.00000000000E+00 0. -1.
         -2   -1    0    0    0  501 -0.00000000000E+00 -0.00000000000E+00 -0.11518756700E+03  0.11518756700E+03  0.00000000000E+00 0.  1.
         25    2    1    2    0    0 -0.11389192708E+02 -0.35272801757E+02 -0.13992810495E+02  0.13121365992E+03  0.12508933427E+03 0.  0.
          5    1    3    3  502    0  0.13494465208E+02 -0.41561557352E+02  0.47361597356E+02  0.64575978079E+02  0.41800000000E+01 0.  1.
         -5    1    3    3    0  502 -0.24883657916E+02  0.62887555952E+01 -0.61354407851E+02  0.66637681839E+02  0.41800000000E+01 0.  1.
        -11    1    1    2    0    0  0.44789418991E+02 -0.10991708453E+02 -0.12813102053E+00  0.46118609322E+02  0.00000000000E+00 0.  1.
         11    1    1    2    0    0 -0.33400226283E+02  0.46264510210E+02  0.22366108449E+02  0.61288031685E+02  0.00000000000E+00 0. -1.
</event>
<event>
 7    1  0.3254497E-009  0.6071932E+02  0.7561462E-02  0.1394838E+00
         -1   -1    0    0    0  501 -0.00000000000E+00  0.00000000000E+00  0.23268742062E+03  0.23268742062E+03  0.00000000000E+00 0.  1.
          1   -1    0    0  501    0  0.00000000000E+00 -0.00000000000E+00 -0.62621041190E+02  0.62621041190E+02  0.00000000000E+00 0. -1.
         25    2    1    2    0    0 -0.33683500412E+02 -0.24083304532E+02  0.13532925158E+03  0.18888341674E+03  0.12509338523E+03 0.  0.
          5    1    3    3  502    0 -0.53233236921E+02 -0.22896493101E+02  0.15206402338E+03  0.16278503161E+03  0.41800000000E+01 0. -1.
         -5    1    3    3    0  502  0.19549736509E+02 -0.11868114306E+01 -0.16734771802E+02  0.26098385126E+02  0.41800000000E+01 0. -1.
        -11    1    1    2    0    0  0.12471018139E+02  0.16719959534E+02 -0.30771592221E+02  0.37174913961E+02  0.00000000000E+00 0. -1.
         11    1    1    2    0    0  0.21212482273E+02  0.73633449978E+01  0.65508720066E+02  0.69250131107E+02  0.00000000000E+00 0.  1.
</event>
<event>
 7    1  0.2522928E-009  0.1049555E+03  0.7561462E-02  0.1270207E+00
         -2   -1    0    0    0  501 -0.00000000000E+00  0.00000000000E+00  0.22075558940E+02  0.22075558940E+02  0.00000000000E+00 0.  1.
          2   -1    0    0  501    0  0.00000000000E+00 -0.00000000000E+00 -0.86240511695E+03  0.86240511695E+03  0.00000000000E+00 0. -1.
         25    2    1    2    0    0  0.79400713370E+02  0.23944705090E+02 -0.49699857326E+03  0.51916532625E+03  0.12508889628E+03 0.  0.
          5    1    3    3  502    0  0.95872057981E+02  0.21316677944E+02 -0.21237019959E+03  0.23401800429E+03  0.41800000000E+01 0. -1.
         -5    1    3    3    0  502 -0.16471344611E+02  0.26280271465E+01 -0.28462837367E+03  0.28514732196E+03  0.41800000000E+01 0. -1.
        -11    1    1    2    0    0 -0.71900920528E+02 -0.27751308812E+01 -0.33283676724E+03  0.34052570733E+03  0.00000000000E+00 0. -1.
         11    1    1    2    0    0 -0.74997928421E+01 -0.21169574209E+02 -0.10494217510E+02  0.24789642313E+02  0.00000000000E+00 0.  1.
</event>
<event>
 7    1  0.2522928E-009  0.1124895E+03  0.7561462E-02  0.1256028E+00
         -1   -1    0    0    0  501 -0.00000000000E+00  0.00000000000E+00  0.30866838055E+02  0.30866838055E+02  0.00000000000E+00 0.  1.
          1   -1    0    0  501    0  0.00000000000E+00 -0.00000000000E+00 -0.44163902400E+03  0.44163902400E+03  0.00000000000E+00 0. -1.
         25    2    1    2    0    0  0.34529661982E+02  0.11257556282E+02 -0.18449970827E+03  0.22582901740E+03  0.12505827689E+03 0.  0.
          5    1    3    3  502    0 -0.41893729023E+02 -0.19823539847E+02 -0.80867108108E+02  0.93300690443E+02  0.41800000000E+01 0. -1.
         -5    1    3    3    0  502  0.76423391006E+02  0.31081096129E+02 -0.10363260017E+03  0.13252832696E+03  0.41800000000E+01 0. -1.
        -11    1    1    2    0    0  0.28758283616E+02  0.76971589922E+01 -0.47179797830E+02  0.55787260699E+02  0.00000000000E+00 0.  1.
         11    1    1    2    0    0 -0.63287945598E+02 -0.18954715275E+02 -0.17909267985E+03  0.19088958396E+03  0.00000000000E+00 0. -1.
</event>
<event>
 7    1  0.2522928E-009  0.8995296E+02  0.7561462E-02  0.1302966E+00
          2   -1    0    0  501    0  0.00000000000E+00  0.00000000000E+00  0.24762811747E+03  0.24762811747E+03  0.00000000000E+00 0. -1.
         -2   -1    0    0    0  501 -0.00000000000E+00 -0.00000000000E+00 -0.62233105170E+02  0.62233105170E+02  0.00000000000E+00 0.  1.
         25    2    1    2    0    0 -0.23752822524E+02  0.28563420171E+02  0.16228297158E+03  0.20823883683E+03  0.12509030638E+03 0.  0.
          5    1    3    3  502    0 -0.87467933176E+01  0.73288441889E+02  0.58891881719E+02  0.94516814590E+02  0.41800000000E+01 0. -1.
         -5    1    3    3    0  502 -0.15006029206E+02 -0.44725021718E+02  0.10339108986E+03  0.11372202224E+03  0.41800000000E+01 0. -1.
        -11    1    1    2    0    0 -0.13554133018E+02 -0.10631277485E+02  0.49582296103E+02  0.52489452938E+02  0.00000000000E+00 0. -1.
         11    1    1    2    0    0  0.37306955542E+02 -0.17932142686E+02 -0.26470255378E+02  0.49132932875E+02  0.00000000000E+00 0.  1.
</event>
<event>
 7    1  0.2522928E-009  0.6489795E+02  0.7561462E-02  0.1378356E+00
         -2   -1    0    0    0  501 -0.00000000000E+00  0.00000000000E+00  0.35433220511E+02  0.35433220511E+02  0.00000000000E+00 0.  1.
          2   -1    0    0  501    0  0.00000000000E+00 -0.00000000000E+00 -0.33571437251E+03  0.33571437251E+03  0.00000000000E+00 0. -1.
         25    2    1    2    0    0  0.15058894060E+02  0.17323963213E+02 -0.15004644801E+03  0.19669233908E+03  0.12508816770E+03 0.  0.
          5    1    3    3  502    0  0.24948334436E+02  0.33246294382E+02  0.35256356230E+01  0.41924193347E+02  0.41800000000E+01 0.  1.
         -5    1    3    3    0  502 -0.98894403755E+01 -0.15922331169E+02 -0.15357208363E+03  0.15476814573E+03  0.41800000000E+01 0.  1.
        -11    1    1    2    0    0 -0.43965345597E-01 -0.40880921649E+02 -0.29199369483E+02  0.50237982304E+02  0.00000000000E+00 0.  1.
         11    1    1    2    0    0 -0.15014928715E+02  0.23556958436E+02 -0.12103533450E+03  0.12421727164E+03  0.00000000000E+00 0. -1.
</event>
<event>
 7    1  0.2522928E-009  0.7990179E+02  0.7561462E-02  0.1329330E+00
         -2   -1    0    0    0  501 -0.00000000000E+00  0.00000000000E+00  0.50367076361E+02  0.50367076361E+02  0.00000000000E+00 0. -1.
          2   -1    0    0  501    0  0.00000000000E+00 -0.00000000000E+00 -0.29731320468E+03  0.29731320468E+03  0.00000000000E+00 0.  1.
         25    2    1    2    0    0  0.35401499658E+02  0.13814326743E+02 -0.20056218766E+03  0.23940246748E+03  0.12507697035E+03 0.  0.
          5    1    3    3  502    0  0.28084872211E+02 -0.28185189795E+02 -0.63335448823E+01  0.40506186708E+02  0.41800000000E+01 0. -1.
         -5    1    3    3    0  502  0.73166274471E+01  0.41999516538E+02 -0.19422864278E+03  0.19889628077E+03  0.41800000000E+01 0. -1.
        -11    1    1    2    0    0 -0.94728883550E+00 -0.35978875288E+02 -0.55650729678E+02  0.66275037056E+02  0.00000000000E+00 0.  1.
         11    1    1    2    0    0 -0.34454210823E+02  0.22164548545E+02  0.92667890227E+01  0.42002776508E+02  0.00000000000E+00 0. -1.
</event>
<event>
 7    1  0.2522928E-009  0.1271400E+03  0.7561462E-02  0.1231762E+00
         -2   -1    0    0    0  501 -0.00000000000E+00  0.00000000000E+00  0.67308599134E+02  0.67308599134E+02  0.00000000000E+00 0.  1.
          2   -1    0    0  501    0  0.00000000000E+00 -0.00000000000E+00 -0.42096824699E+03  0.42096824699E+03  0.00000000000E+00 0. -1.
         25    2    1    2    0    0 -0.54741959585E+02 -0.69132440448E+02 -0.48298474944E+02  0.16048994595E+03  0.12509317970E+03 0.  0.
          5    1    3    3  502    0  0.31499123501E+02 -0.52726446461E+02 -0.37141606467E+02  0.71897456622E+02  0.41800000000E+01 0.  1.
         -5    1    3    3    0  502 -0.86241083086E+02 -0.16405993987E+02 -0.11156868477E+02  0.88592489324E+02  0.41800000000E+01 0.  1.
        -11    1    1    2    0    0  0.21371386759E+01  0.48149220228E+02 -0.65447878280E+02  0.81279391864E+02  0.00000000000E+00 0.  1.
         11    1    1    2    0    0  0.52604820909E+02  0.20983220220E+02 -0.23991329463E+03  0.24650750831E+03  0.00000000000E+00 0. -1.
</event>
<event>
 7    1  0.2522928E-009  0.1406961E+03  0.7561462E-02  0.1212395E+00
          2   -1    0    0  501    0  0.00000000000E+00  0.00000000000E+00  0.50280099332E+03  0.50280099332E+03  0.00000000000E+00 0. -1.
         -2   -1    0    0    0  501 -0.00000000000E+00 -0.00000000000E+00 -0.47197701460E+02  0.47197701460E+02  0.00000000000E+00 0.  1.
         25    2    1    2    0    0  0.28751508657E+02 -0.98510571528E+02  0.17295637027E+03  0.23683671167E+03  0.12508692988E+03 0.  0.
          5    1    3    3  502    0  0.23048097438E+02 -0.12852535552E+03  0.13389368477E+03  0.18706943371E+03  0.41800000000E+01 0.  1.
         -5    1    3    3    0  502  0.57034112189E+01  0.30014783992E+02  0.39062685494E+02  0.49767277961E+02  0.41800000000E+01 0.  1.
        -11    1    1    2    0    0  0.19079542229E+02  0.40175594580E+02  0.18215468554E+03  0.18750583136E+03  0.00000000000E+00 0. -1.
         11    1    1    2    0    0 -0.47831050886E+02  0.58334976949E+02  0.10049223606E+03  0.12565615175E+03  0.00000000000E+00 0.  1.
</event>
<event>
 7    1  0.2522928E-009  0.6750831E+02  0.7561462E-02  0.1368777E+00
         -1   -1    0    0    0  501 -0.00000000000E+00  0.00000000000E+00  0.32714117270E+03  0.32714117270E+03  0.00000000000E+00 0.  1.
          1   -1    0    0  501    0  0.00000000000E+00 -0.00000000000E+00 -0.33117528284E+02  0.33117528284E+02  0.00000000000E+00 0. -1.
         25    2    1    2    0    0  0.86192201437E+01  0.29554809459E+02  0.23165843708E+03  0.26506657784E+03  0.12508749537E+03 0.  0.
          5    1    3    3  502    0  0.41203343555E+02  0.74704158929E+01  0.21973057198E+03  0.22372420365E+03  0.41800000000E+01 0.  1.
         -5    1    3    3    0  502 -0.32584123412E+02  0.22084393566E+02  0.11927865095E+02  0.41342374187E+02  0.41800000000E+01 0.  1.
        -11    1    1    2    0    0 -0.26389545940E+02 -0.20426261059E+02  0.66850457680E+02  0.74716959037E+02  0.00000000000E+00 0.  1.
         11    1    1    2    0    0  0.17770325796E+02 -0.91285484000E+01 -0.44852503417E+01  0.20475164112E+02  0.00000000000E+00 0. -1.
</event>
<event>
 7    1  0.2522928E-009  0.1418992E+03  0.7561462E-02  0.1210796E+00
          2   -1    0    0  501    0  0.00000000000E+00  0.00000000000E+00  0.23937770644E+03  0.23937770644E+03  0.00000000000E+00 0. -1.
         -2   -1    0    0    0  501 -0.00000000000E+00 -0.00000000000E+00 -0.11176655807E+03  0.11176655807E+03  0.00000000000E+00 0.  1.
         25    2    1    2    0    0  0.75568195477E+02 -0.50312003852E+02  0.15424857170E+03  0.21836199110E+03  0.12508991721E+03 0.  0.
          5    1    3    3  502    0  0.40912406711E+02  0.39960159037E+02  0.65398743226E+02  0.86977625564E+02  0.41800000000E+01 0.  1.
         -5    1    3    3    0  502  0.34655788766E+02 -0.90272162889E+02  0.88849828472E+02  0.13138436554E+03  0.41800000000E+01 0.  1.
        -11    1    1    2    0    0 -0.42091905122E+02 -0.23795468305E+02 -0.48416561676E+01  0.48594180959E+02  0.00000000000E+00 0. -1.
         11    1    1    2    0    0 -0.33476290355E+02  0.74107472157E+02 -0.21795767164E+02  0.84188092458E+02  0.00000000000E+00 0.  1.
</event>
<event>
 7    1  0.2522928E-009  0.1013330E+03  0.7561462E-02  0.1277518E+00
          1   -1    0    0  501    0  0.00000000000E+00  0.00000000000E+00  0.95957317057E+02  0.95957317057E+02  0.00000000000E+00 0. -1.
         -1   -1    0    0    0  501 -0.00000000000E+00 -0.00000000000E+00 -0.25019152583E+03  0.25019152583E+03  0.00000000000E+00 0.  1.
         25    2    1    2    0    0 -0.59408726047E+02  0.17864161777E+02 -0.18328711950E+03  0.23041576178E+03  0.12509488437E+03 0.  0.
          5    1    3    3  502    0 -0.85557401143E+02 -0.24669931313E+02 -0.12543139473E+03  0.15388041326E+03  0.41800000000E+01 0.  1.
         -5    1    3    3    0  502  0.26148675096E+02  0.42534093090E+02 -0.57855724770E+02  0.76535348519E+02  0.41800000000E+01 0.  1.
        -11    1    1    2    0    0  0.20600237725E+02 -0.12876570922E+02  0.60718024637E+02  0.65397663482E+02  0.00000000000E+00 0. -1.
         11    1    1    2    0    0  0.38808488323E+02 -0.49875908550E+01 -0.31665113906E+02  0.50335417621E+02  0.00000000000E+00 0.  1.
</event>
<event>
 7    1  0.2522928E-009  0.8164934E+02  0.7561462E-02  0.1324435E+00
          2   -1    0    0  501    0  0.00000000000E+00  0.00000000000E+00  0.13629159385E+03  0.13629159385E+03  0.00000000000E+00 0. -1.
         -2   -1    0    0    0  501 -0.00000000000E+00 -0.00000000000E+00 -0.99929240847E+02  0.99929240847E+02  0.00000000000E+00 0.  1.
         25    2    1    2    0    0 -0.11840116962E+02  0.35273208665E+02  0.12185373720E+01  0.13052410057E+03  0.12510263138E+03 0.  0.
          5    1    3    3  502    0  0.48323752307E+02  0.32801040294E+02  0.27501090968E+02  0.64690615130E+02  0.41800000000E+01 0.  1.
         -5    1    3    3    0  502 -0.60163869269E+02  0.24721683709E+01 -0.26282553596E+02  0.65833485441E+02  0.41800000000E+01 0.  1.
        -11    1    1    2    0    0  0.12556368588E+02 -0.41073352236E+01 -0.30383779907E+02  0.33131656707E+02  0.00000000000E+00 0.  1.
         11    1    1    2    0    0 -0.71625162586E+00 -0.31165873442E+02  0.65527595538E+02  0.72565077419E+02  0.00000000000E+00 0. -1.
</event>
<event>
 7    1  0.2522928E-009  0.8639004E+02  0.7561462E-02  0.1311837E+00
         -1   -1    0    0    0  501 -0.00000000000E+00  0.00000000000E+00  0.17122377648E+03  0.17122377648E+03  0.00000000000E+00 0.  1.
          1   -1    0    0  501    0  0.00000000000E+00 -0.00000000000E+00 -0.85820054375E+02  0.85820054375E+02  0.00000000000E+00 0. -1.
         25    2    1    2    0    0  0.19276358690E+02  0.33537967637E+02  0.85565361727E+01  0.13124411346E+03  0.12512165971E+03 0.  0.
          5    1    3    3  502    0 -0.37600982543E+01  0.65196700185E+02 -0.33598346914E+02  0.73559971242E+02  0.41800000000E+01 0.  1.
         -5    1    3    3    0  502  0.23036456944E+02 -0.31658732548E+02  0.42154883086E+02  0.57684142215E+02  0.41800000000E+01 0.  1.
        -11    1    1    2    0    0 -0.31194833445E+02  0.12227123028E+01  0.82876285920E+02  0.88561229819E+02  0.00000000000E+00 0.  1.
         11    1    1    2    0    0  0.11918474755E+02 -0.34760679940E+02 -0.60290999903E+01  0.37238487578E+02  0.00000000000E+00 0. -1.
</event>
<event>
 7    1  0.2522928E-009  0.1326396E+03  0.7561462E-02  0.1223591E+00
         -1   -1    0    0    0  501 -0.00000000000E+00  0.00000000000E+00  0.19345055319E+03  0.19345055319E+03  0.00000000000E+00 0.  1.
          1   -1    0    0  501    0  0.00000000000E+00 -0.00000000000E+00 -0.96039954081E+02  0.96039954081E+02  0.00000000000E+00 0. -1.
         25    2    1    2    0    0 -0.68775022452E+02 -0.42127030644E+02  0.33024901988E+02  0.15246909917E+03  0.12510592162E+03 0.  0.
          5    1    3    3  502    0  0.24559892054E+02  0.23794145415E+02  0.94100426479E+01  0.35712336193E+02  0.41800000000E+01 0. -1.
         -5    1    3    3    0  502 -0.93334914506E+02 -0.65921176058E+02  0.23614859340E+02  0.11675676297E+03  0.41800000000E+01 0. -1.
        -11    1    1    2    0    0 -0.19783306757E+02  0.10868239539E+02  0.28801552558E+02  0.36592721772E+02  0.00000000000E+00 0.  1.
         11    1    1    2    0    0  0.88558329210E+02  0.31258791104E+02  0.35584144562E+02  0.10042868633E+03  0.00000000000E+00 0. -1.
</event>
<event>
 7    1  0.2522928E-009  0.1273580E+03  0.7561462E-02  0.1231430E+00
          1   -1    0    0  501    0  0.00000000000E+00  0.00000000000E+00  0.49760566533E+03  0.49760566533E+03  0.00000000000E+00 0. -1.
         -1   -1    0    0    0  501 -0.00000000000E+00 -0.00000000000E+00 -0.41326078822E+02  0.41326078822E+02  0.00000000000E+00 0.  1.
         25    2    1    2    0    0  0.58022063975E+02 -0.70440798732E+02  0.28549258750E+03  0.32478002937E+03  0.12509030308E+03 0.  0.
          5    1    3    3  502    0  0.20189828014E+02 -0.87222132410E+02  0.98316452976E+02  0.13303731380E+03  0.41800000000E+01 0.  1.
         -5    1    3    3    0  502  0.37832235961E+02  0.16781333678E+02  0.18717613453E+03  0.19174271557E+03  0.41800000000E+01 0.  1.
        -11    1    1    2    0    0  0.21361567967E+02  0.21093754860E+02  0.72727707873E+02  0.78680255290E+02  0.00000000000E+00 0. -1.
         11    1    1    2    0    0 -0.79383631942E+02  0.49347043872E+02  0.98059291135E+02  0.13547145949E+03  0.00000000000E+00 0.  1.
</event>
<event>
 7    1  0.2522928E-009  0.1872304E+03  0.7561462E-02  0.1160983E+00
          2   -1    0    0  501    0  0.00000000000E+00  0.00000000000E+00  0.10323130694E+04  0.10323130694E+04  0.00000000000E+00 0. -1.
         -2   -1    0    0    0  501 -0.00000000000E+00 -0.00000000000E+00 -0.36599843595E+02  0.36599843595E+02  0.00000000000E+00 0.  1.
         25    2    1    2    0    0 -0.13863777550E+03 -0.79555296673E+02  0.46727822753E+03  0.50945043904E+03  0.12506530252E+03 0.  0.
          5    1    3    3  502    0  0.81439553430E+01  0.16288331827E+02  0.10868649674E+03  0.11028082669E+03  0.41800000000E+01 0. -1.
         -5    1    3    3    0  502 -0.14678173084E+03 -0.95843628501E+02  0.35859173079E+03  0.39916961235E+03  0.41800000000E+01 0. -1.
        -11    1    1    2    0    0  0.12536132417E+03  0.29699806978E+02  0.42119070914E+03  0.44045335009E+03  0.00000000000E+00 0.  1.
         11    1    1    2    0    0  0.13276451334E+02  0.49855489696E+02  0.10724428916E+03  0.11900912389E+03  0.00000000000E+00 0. -1.
</event>
<event>
 7    1  0.2522928E-009  0.1236381E+03  0.7561462E-02  0.1237213E+00
         -2   -1    0    0    0  501 -0.00000000000E+00  0.00000000000E+00  0.68384148910E+02  0.68384148910E+02  0.00000000000E+00 0.  1.
          2   -1    0    0  501    0  0.00000000000E+00 -0.00000000000E+00 -0.33427167045E+03  0.33427167045E+03  0.00000000000E+00 0. -1.
         25    2    1    2    0    0 -0.82195546412E+02 -0.33178902390E+02 -0.22081549976E+03  0.26881940682E+03  0.12508973233E+03 0.  0.
          5    1    3    3  502    0 -0.17488582739E+02 -0.62910090403E+02 -0.16731300861E+03  0.17965145491E+03  0.41800000000E+01 0. -1.
         -5    1    3    3    0  502 -0.64706963673E+02  0.29731188013E+02 -0.53502491154E+02  0.89167951911E+02  0.41800000000E+01 0. -1.
        -11    1    1    2    0    0  0.35769414339E+02  0.49701840118E+02  0.76018892965E+01  0.61705045451E+02  0.00000000000E+00 0. -1.
         11    1    1    2    0    0  0.46426132073E+02 -0.16522937728E+02 -0.52673911075E+02  0.72131367091E+02  0.00000000000E+00 0.  1.
</event>
<event>
 7    1  0.2522928E-009  0.1459247E+03  0.7561462E-02  0.1205572E+00
         -2   -1    0    0    0  501 -0.00000000000E+00  0.00000000000E+00  0.15940220882E+03  0.15940220882E+03  0.00000000000E+00 0.  1.
          2   -1    0    0  501    0  0.00000000000E+00 -0.00000000000E+00 -0.20116614282E+03  0.20116614282E+03  0.00000000000E+00 0. -1.
         25    2    1    2    0    0 -0.13915066965E+03 -0.25904135052E+02 -0.70824883519E+01  0.18902978508E+03  0.12509262539E+03 0.  0.
          5    1    3    3  502    0 -0.58537557074E+01  0.17694136051E+01  0.43208141147E+02  0.43838489273E+02  0.41800000000E+01 0.  1.
         -5    1    3    3    0  502 -0.13329691394E+03 -0.27673548657E+02 -0.50290629498E+02  0.14519129580E+03  0.41800000000E+01 0.  1.
        -11    1    1    2    0    0  0.50979015489E+02  0.31438148507E+02  0.25023329923E+02  0.64910586519E+02  0.00000000000E+00 0.  1.
         11    1    1    2    0    0  0.88171654160E+02 -0.55340134545E+01 -0.59704775570E+02  0.10662798004E+03  0.00000000000E+00 0. -1.
</event>
<event>
 7    1  0.2522928E-009  0.1537997E+03  0.7561462E-02  0.1195880E+00
          1   -1    0    0  501    0  0.00000000000E+00  0.00000000000E+00  0.16258483211E+04  0.16258483211E+04  0.00000000000E+00 0. -1.
         -1   -1    0    0    0  501 -0.00000000000E+00 -0.00000000000E+00 -0.24681054584E+02  0.24681054584E+02  0.00000000000E+00 0.  1.
         25    2    1    2    0    0  0.86828917998E+02 -0.84109410768E+02  0.13223507357E+04  0.13337433049E+04  0.12508429730E+03 0.  0.
          5    1    3    3  502    0  0.96788959667E+01 -0.82047078613E+02  0.41871039692E+03  0.42680355320E+03  0.41800000000E+01 0.  1.
         -5    1    3    3    0  502  0.77150022031E+02 -0.20623321553E+01  0.90364033874E+03  0.90693975175E+03  0.41800000000E+01 0.  1.
        -11    1    1    2    0    0 -0.93945686396E+02  0.38669026459E+02  0.21823379963E+03  0.24072199089E+03  0.00000000000E+00 0. -1.
         11    1    1    2    0    0  0.71167683978E+01  0.45440384310E+02  0.60582731245E+02  0.76064079852E+02  0.00000000000E+00 0.  1.
</event>
<event>
 7    1  0.2522928E-009  0.8921637E+02  0.7561462E-02  0.1304761E+00
          1   -1    0    0  501    0  0.00000000000E+00  0.00000000000E+00  0.71153124986E+02  0.71153124986E+02  0.00000000000E+00 0. -1.
         -1   -1    0    0    0  501 -0.00000000000E+00 -0.00000000000E+00 -0.22256846771E+03  0.22256846771E+03  0.00000000000E+00 0.  1.
         25    2    1    2    0    0  0.37488092489E+02 -0.50804588847E+02 -0.80711423464E+02  0.16170404419E+03  0.12508957073E+03 0.  0.
          5    1    3    3  502    0 -0.73431547016E+00  0.20337511143E+02 -0.78076327441E+02  0.80793185885E+02  0.41800000000E+01 0. -1.
         -5    1    3    3    0  502  0.38222407960E+02 -0.71142099990E+02 -0.26350960228E+01  0.80910858309E+02  0.41800000000E+01 0. -1.
        -11    1    1    2    0    0  0.80558355917E+01  0.20654237044E+02 -0.74048200702E+02  0.77295730944E+02  0.00000000000E+00 0.  1.
         11    1    1    2    0    0 -0.45543928081E+02  0.30150351803E+02  0.33442814384E+01  0.54721817562E+02  0.00000000000E+00 0. -1.
</event>
<event>
 7    1  0.2522928E-009  0.9383295E+02  0.7561462E-02  0.1293826E+00
          2   -1    0    0  501    0  0.00000000000E+00  0.00000000000E+00  0.67067502629E+03  0.67067502629E+03  0.00000000000E+00 0. -1.
         -2   -1    0    0    0  501 -0.00000000000E+00 -0.00000000000E+00 -0.20748168544E+02  0.20748168544E+02  0.00000000000E+00 0.  1.
         25    2    1    2    0    0 -0.12727901335E+02  0.21558500191E+02  0.47752797198E+03  0.49427337360E+03  0.12508571233E+03 0.  0.
          5    1    3    3  502    0 -0.60654476531E+02  0.39610129556E+02  0.33492281933E+03  0.34269329610E+03  0.41800000000E+01 0.  1.
         -5    1    3    3    0  502  0.47926575196E+02 -0.18051629365E+02  0.14260515265E+03  0.15158007750E+03  0.41800000000E+01 0.  1.
        -11    1    1    2    0    0  0.35818081985E+02 -0.72181499891E+01  0.18661079343E+02  0.41027704891E+02  0.00000000000E+00 0.  1.
         11    1    1    2    0    0 -0.23090180651E+02 -0.14340350202E+02  0.15373780643E+03  0.15612211635E+03  0.00000000000E+00 0. -1.
</event>
<event>
 7    1  0.2522928E-009  0.8998032E+02  0.7561462E-02  0.1302899E+00
         -2   -1    0    0    0  501 -0.00000000000E+00  0.00000000000E+00  0.33033861740E+03  0.33033861740E+03  0.00000000000E+00 0. -1.
          2   -1    0    0  501    0  0.00000000000E+00 -0.00000000000E+00 -0.42879578574E+02  0.42879578574E+02  0.00000000000E+00 0.  1.
         25    2    1    2    0    0 -0.31849088101E+02  0.67638740763E+01  0.21929110432E+03  0.25455088078E+03  0.12508976003E+03 0.  0.
          5    1    3    3  502    0 -0.58803169249E+02  0.23845983616E+02  0.46477438241E+02  0.78765908322E+02  0.41800000000E+01 0. -1.
         -5    1    3    3    0  502  0.26954081148E+02 -0.17082109540E+02  0.17281366608E+03  0.17578497246E+03  0.41800000000E+01 0. -1.
        -11    1    1    2    0    0  0.56694942690E+02  0.45647929320E+01  0.14883619766E+02  0.58793503029E+02  0.00000000000E+00 0.  1.
         11    1    1    2    0    0 -0.24845854589E+02 -0.11328667008E+02  0.53284314737E+02  0.59873812167E+02  0.00000000000E+00 0. -1.
</event>
<event>
 7    1  0.2522928E-009  0.1496990E+03  0.7561462E-02  0.1200843E+00
          1   -1    0    0  501    0  0.00000000000E+00  0.00000000000E+00  0.11192611531E+03  0.11192611531E+03  0.00000000000E+00 0. -1.
         -1   -1    0    0    0  501 -0.00000000000E+00 -0.00000000000E+00 -0.21211279203E+03  0.21211279203E+03  0.00000000000E+00 0.  1.
         25    2    1    2    0    0 -0.10103947669E+03 -0.33359365780E+02 -0.69919104722E+02  0.17849156143E+03  0.12509489663E+03 0.  0.
          5    1    3    3  502    0 -0.12907099392E+03 -0.38833979986E+02 -0.52079978686E+02  0.14455862497E+03  0.41800000000E+01 0.  1.
         -5    1    3    3    0  502  0.28031517232E+02  0.54746142061E+01 -0.17839126036E+02  0.33932936460E+02  0.41800000000E+01 0.  1.
        -11    1    1    2    0    0 -0.85406990155E+01  0.24265309222E+02 -0.24365779253E+02  0.35432188331E+02  0.00000000000E+00 0.  1.
         11    1    1    2    0    0  0.10958017570E+03  0.90940565573E+01 -0.59017927441E+01  0.11011515758E+03  0.00000000000E+00 0. -1.
</event>
<event>
 7    1  0.2522928E-009  0.9381849E+02  0.7561462E-02  0.1293860E+00
         -2   -1    0    0    0  501 -0.00000000000E+00  0.00000000000E+00  0.88001722955E+03  0.88001722955E+03  0.00000000000E+00 0.  1.
          2   -1    0    0  501    0  0.00000000000E+00 -0.00000000000E+00 -0.17230793635E+02  0.17230793635E+02  0.00000000000E+00 0. -1.
         25    2    1    2    0    0 -0.45180260662E+02  0.28141131355E+02  0.57281624080E+03  0.58872663003E+03  0.12508964767E+03 0.  0.
          5    1    3    3  502    0 -0.69955222628E+01 -0.19617022190E+02  0.45871371754E+03  0.45920530479E+03  0.41800000000E+01 0.  1.
         -5    1    3    3    0  502 -0.38184738399E+02  0.47758153545E+02  0.11410252326E+03  0.12952132524E+03  0.41800000000E+01 0.  1.
        -11    1    1    2    0    0  0.58229857452E+02 -0.51897677299E+02  0.22440071783E+03  0.23757055240E+03  0.00000000000E+00 0.  1.
         11    1    1    2    0    0 -0.13049596790E+02  0.23756545945E+02  0.65569477291E+02  0.70950840755E+02  0.00000000000E+00 0. -1.
</event>
<event>
 7    1  0.2522928E-009  0.1364757E+03  0.7561462E-02  0.1218151E+00
          3   -1    0    0  501    0  0.00000000000E+00  0.00000000000E+00  0.66333876646E+02  0.66333876646E+02  0.00000000000E+00 0. -1.
         -3   -1    0    0    0  501 -0.00000000000E+00 -0.00000000000E+00 -0.31264173319E+03  0.31264173319E+03  0.00000000000E+00 0.  1.
         25    2    1    2    0    0  0.89415734968E+02 -0.23602724507E+02 -0.17146962812E+03  0.23152050788E+03  0.12509056693E+03 0.  0.
          5    1    3    3  502    0  0.73815149889E+02  0.39076076345E+02 -0.61086438477E+02  0.10355984483E+03  0.41800000000E+01 0. -1.
         -5    1    3    3    0  502  0.15600585079E+02 -0.62678800852E+02 -0.11038318964E+03  0.12796066305E+03  0.41800000000E+01 0. -1.
        -11    1    1    2    0    0 -0.44778622266E+02  0.54333456996E+02 -0.56398610164E+02  0.90211156680E+02  0.00000000000E+00 0.  1.
         11    1    1    2    0    0 -0.44637112703E+02 -0.30730732488E+02 -0.18439618259E+02  0.57243945280E+02  0.00000000000E+00 0. -1.
</event>
<event>
 7    1  0.2522928E-009  0.1159470E+03  0.7561462E-02  0.1249937E+00
         -2   -1    0    0    0  501 -0.00000000000E+00  0.00000000000E+00  0.45909514161E+02  0.45909514161E+02  0.00000000000E+00 0.  1.
          2   -1    0    0  501    0  0.00000000000E+00 -0.00000000000E+00 -0.38105814644E+03  0.38105814644E+03  0.00000000000E+00 0. -1.
         25    2    1    2    0    0 -0.35363625486E+02  0.45021485245E+02 -0.10348384647E+03  0.17214594052E+03  0.12509115962E+03 0.  0.
          5    1    3    3  502    0 -0.81071703554E+02  0.20029932747E+02 -0.50278243658E+02  0.97566354386E+02  0.41800000000E+01 0. -1.
         -5    1    3    3    0  502  0.45708078068E+02  0.24991552498E+02 -0.53205602811E+02  0.74579586130E+02  0.41800000000E+01 0. -1.
        -11    1    1    2    0    0  0.11094103695E+02 -0.64159099558E+02 -0.98199501923E+02  0.11782449393E+03  0.00000000000E+00 0.  1.
         11    1    1    2    0    0  0.24269521791E+02  0.19137614313E+02 -0.13346528389E+03  0.13699722615E+03  0.00000000000E+00 0. -1.
</event>
<event>
 7    1  0.2522928E-009  0.8149493E+02  0.7561462E-02  0.1324862E+00
         -2   -1    0    0    0  501 -0.00000000000E+00  0.00000000000E+00  0.28543683384E+03  0.28543683384E+03  0.00000000000E+00 0.  1.
          2   -1    0    0  501    0  0.00000000000E+00 -0.00000000000E+00 -0.47434816612E+02  0.47434816612E+02  0.00000000000E+00 0. -1.
         25    2    1    2    0    0  0.17654759275E+01 -0.38572339502E+02  0.18210109301E+03  0.22427588405E+03  0.12509165365E+03 0.  0.
          5    1    3    3  502    0  0.21724586528E+02  0.63221706288E+01  0.17251667314E+03  0.17404425418E+03  0.41800000000E+01 0.  1.
         -5    1    3    3    0  502 -0.19959110601E+02 -0.44894510131E+02  0.95844198683E+01  0.50231629877E+02  0.41800000000E+01 0.  1.
        -11    1    1    2    0    0  0.19274396099E+01  0.64477016350E+02  0.50391699657E+02  0.81855507177E+02  0.00000000000E+00 0. -1.
         11    1    1    2    0    0 -0.36929155374E+01 -0.25904676848E+02  0.55092245618E+01  0.26740259218E+02  0.00000000000E+00 0.  1.
</event>
<event>
 7    1  0.2522928E-009  0.1118701E+03  0.7561462E-02  0.1257145E+00
          3   -1    0    0  501    0  0.00000000000E+00  0.00000000000E+00  0.61011526284E+02  0.61011526284E+02  0.00000000000E+00 0. -1.
         -3   -1    0    0    0  501 -0.00000000000E+00 -0.00000000000E+00 -0.22775143010E+03  0.22775143010E+03  0.00000000000E+00 0.  1.
         25    2    1    2    0    0  0.19888374646E+02  0.34674452847E+02 -0.11171069599E+03  0.17240880706E+03  0.12509057529E+03 0.  0.
          5    1    3    3  502    0  0.50351637188E+01  0.76906404531E+02 -0.37913787035E+02  0.85993462420E+02  0.41800000000E+01 0. -1.
         -5    1    3    3    0  502  0.14853210927E+02 -0.42231951684E+02 -0.73796908959E+02  0.86415344644E+02  0.41800000000E+01 0. -1.
        -11    1    1    2    0    0 -0.52783771079E+02  0.13610049600E+01 -0.36373782174E+02  0.64117321009E+02  0.00000000000E+00 0.  1.
         11    1    1    2    0    0  0.32895396433E+02 -0.36035457807E+02 -0.18655425646E+02  0.52236828310E+02  0.00000000000E+00 0. -1.
</event>
<event>
 7    1  0.2522928E-009  0.9374533E+02  0.7561462E-02  0.1294027E+00
          1   -1    0    0  501    0  0.00000000000E+00  0.00000000000E+00  0.82821193679E+02  0.82821193679E+02  0.00000000000E+00 0. -1.
         -1   -1    0    0    0  501 -0.00000000000E+00 -0.00000000000E+00 -0.19223197596E+03  0.19223197596E+03  0.00000000000E+00 0.  1.
         25    2    1    2    0    0 -0.61639573252E+02  0.12583587782E+02 -0.50809202907E+02  0.14895624533E+03  0.12509438137E+03 0.  0.
          5    1    3    3  502    0 -0.34253609080E+02 -0.44907576997E+02 -0.62209981184E+02  0.84128201964E+02  0.41800000000E+01 0.  1.
         -5    1    3    3    0  502 -0.27385964172E+02  0.57491164780E+02  0.11400778277E+02  0.64828043366E+02  0.41800000000E+01 0.  1.
        -11    1    1    2    0    0  0.18557663863E+02  0.68429841497E+01 -0.73838756342E+02  0.76441973145E+02  0.00000000000E+00 0.  1.
         11    1    1    2    0    0  0.43081909389E+02 -0.19426571932E+02  0.15237176965E+02  0.49654951168E+02  0.00000000000E+00 0. -1.
</event>
<event>
 7    1  0.2522928E-009  0.1759107E+03  0.7561462E-02  0.1171820E+00
          1   -1    0    0  501    0  0.00000000000E+00  0.00000000000E+00  0.40991478628E+02  0.40991478628E+02  0.00000000000E+00 0. -1.
         -1   -1    0    0    0  501 -0.00000000000E+00 -0.00000000000E+00 -0.82613453461E+03  0.82613453461E+03  0.00000000000E+00 0.  1.
         25    2    1    2    0    0  0.51701349010E+02 -0.13697678496E+03 -0.35723179006E+03  0.40582933523E+03  0.12508888197E+03 0.  0.
          5    1    3    3  502    0  0.76805818552E+02 -0.13498606384E+03 -0.34313262714E+03  0.37666675378E+03  0.41800000000E+01 0.  1.
         -5    1    3    3    0  502 -0.25104469542E+02 -0.19907211222E+01 -0.14099162919E+02  0.29162581446E+02  0.41800000000E+01 0.  1.
        -11    1    1    2    0    0  0.80719097280E+01  0.10067232270E+03 -0.28075033722E+03  0.29836357708E+03  0.00000000000E+00 0.  1.
         11    1    1    2    0    0 -0.59773258738E+02  0.36304462264E+02 -0.14716092870E+03  0.16293310092E+03  0.00000000000E+00 0. -1.
</event>
<event>
 7    1  0.2522928E-009  0.1294132E+03  0.7561462E-02  0.1228329E+00
          2   -1    0    0  501    0  0.00000000000E+00  0.00000000000E+00  0.71415440366E+03  0.71415440366E+03  0.00000000000E+00 0. -1.
         -2   -1    0    0    0  501 -0.00000000000E+00 -0.00000000000E+00 -0.35479169397E+02  0.35479169397E+02  0.00000000000E+00 0.  1.
         25    2    1    2    0    0  0.88377923575E+02  0.17058063104E+02  0.19101934384E+03  0.24543471204E+03  0.12509265869E+03 0.  0.
          5    1    3    3  502    0  0.51440884223E+02  0.71309351807E+02  0.11707914087E+03  0.14647930178E+03  0.41800000000E+01 0.  1.
         -5    1    3    3    0  502  0.36937039352E+02 -0.54251288702E+02  0.73940202977E+02  0.98955410252E+02  0.41800000000E+01 0.  1.
        -11    1    1    2    0    0 -0.80802667460E+02  0.57450574514E+01  0.46199931548E+03  0.46904737955E+03  0.00000000000E+00 0.  1.
         11    1    1    2    0    0 -0.75752561151E+01 -0.22803120556E+02  0.25656574931E+02  0.35151481469E+02  0.00000000000E+00 0. -1.
</event>
<event>
 7    1  0.2536308E-009  0.1035830E+03  0.7561462E-02  0.1272937E+00
         -2   -1    0    0    0  501 -0.00000000000E+00  0.00000000000E+00  0.64113667769E+02  0.64113667769E+02  0.00000000000E+00 0. -1.
          2   -1    0    0  501    0  0.00000000000E+00 -0.00000000000E+00 -0.52554673414E+03  0.52554673414E+03  0.00000000000E+00 0.  1.
         25    2    1    2    0    0  0.16836844304E+02 -0.77421907847E+02 -0.44346494865E+03  0.46753197301E+03  0.12508938391E+03 0.  0.
          5    1    3    3  502    0  0.44532803623E+02 -0.72778878370E+02 -0.42537270773E+03  0.43386558819E+03  0.41800000000E+01 0.  1.
         -5    1    3    3    0  502 -0.27695959319E+02 -0.46430294766E+01 -0.18092240919E+02  0.33666384819E+02  0.41800000000E+01 0.  1.
        -11    1    1    2    0    0 -0.16941826219E+02  0.10467863319E+01 -0.39317795350E+02  0.42825346098E+02  0.00000000000E+00 0.  1.
         11    1    1    2    0    0  0.10498191460E+00  0.76375121515E+02  0.21349677623E+02  0.79303082804E+02  0.00000000000E+00 0. -1.
</event>
<event>
 7    1  0.2522928E-009  0.2149191E+03  0.7561462E-02  0.1137729E+00
         -2   -1    0    0    0  501 -0.00000000000E+00  0.00000000000E+00  0.90811760193E+02  0.90811760193E+02  0.00000000000E+00 0.  1.
          2   -1    0    0  501    0  0.00000000000E+00 -0.00000000000E+00 -0.66809756904E+03  0.66809756904E+03  0.00000000000E+00 0. -1.
         25    2    1    2    0    0 -0.50825151675E+02  0.20499763701E+03 -0.39462717660E+03  0.46474258604E+03  0.12509130883E+03 0.  0.
          5    1    3    3  502    0  0.10311185401E+02  0.59459849146E+02 -0.30281337478E+02  0.67647808570E+02  0.41800000000E+01 0. -1.
         -5    1    3    3    0  502 -0.61136337076E+02  0.14553778787E+03 -0.36434583912E+03  0.39709477747E+03  0.41800000000E+01 0. -1.
        -11    1    1    2    0    0  0.15908989727E+02 -0.84264189950E+02 -0.19025362172E+02  0.87837998997E+02  0.00000000000E+00 0.  1.
         11    1    1    2    0    0  0.34916161947E+02 -0.12073344706E+03 -0.16363327007E+03  0.20632874419E+03  0.00000000000E+00 0. -1.
</event>
<event>
 7    1  0.2522928E-009  0.1374259E+03  0.7561462E-02  0.1216835E+00
         -2   -1    0    0    0  501 -0.00000000000E+00  0.00000000000E+00  0.12733491047E+03  0.12733491047E+03  0.00000000000E+00 0.  1.
          2   -1    0    0  501    0  0.00000000000E+00 -0.00000000000E+00 -0.21057579417E+03  0.21057579417E+03  0.00000000000E+00 0. -1.
         25    2    1    2    0    0 -0.10965736938E+03 -0.30341803003E+01 -0.99442051458E+02  0.19382584131E+03  0.12508313337E+03 0.  0.
          5    1    3    3  502    0  0.76923192953E+01 -0.23740340434E+02  0.14279254230E+02  0.29054174252E+02  0.41800000000E+01 0.  1.
         -5    1    3    3    0  502 -0.11734968867E+03  0.20706160134E+02 -0.11372130569E+03  0.16477166706E+03  0.41800000000E+01 0.  1.
        -11    1    1    2    0    0  0.66011416579E+02 -0.32920286481E+02  0.38609930566E+02  0.83258507789E+02  0.00000000000E+00 0.  1.
         11    1    1    2    0    0  0.43645952797E+02  0.35954466782E+02 -0.22408762804E+02  0.60826355534E+02  0.00000000000E+00 0. -1.
</event>
<event>
 7    1  0.2522928E-009  0.7134382E+02  0.7561462E-02  0.1355582E+00
          3   -1    0    0  501    0  0.00000000000E+00  0.00000000000E+00  0.60257089987E+02  0.60257089987E+02  0.00000000000E+00 0. -1.
         -3   -1    0    0    0  501 -0.00000000000E+00 -0.00000000000E+00 -0.22864001112E+03  0.22864001112E+03  0.00000000000E+00 0.  1.
         25    2    1    2    0    0  0.15708524489E+02 -0.46931649951E+02 -0.10733389133E+03  0.17209312103E+03  0.12508453369E+03 0.  0.
          5    1    3    3  502    0 -0.14840941897E+02 -0.54490281873E+02  0.35628834095E+01  0.56741615356E+02  0.41800000000E+01 0. -1.
         -5    1    3    3    0  502  0.30549466386E+02  0.75586319221E+01 -0.11089677474E+03  0.11535150567E+03  0.41800000000E+01 0. -1.
        -11    1    1    2    0    0 -0.50632788089E+01  0.42466321541E+02 -0.82227135834E+02  0.92684017635E+02  0.00000000000E+00 0.  1.
         11    1    1    2    0    0 -0.10645245680E+02  0.44653284107E+01  0.21178106029E+02  0.24119962446E+02  0.00000000000E+00 0. -1.
</event>
<event>
 7    1  0.2522928E-009  0.1117385E+03  0.7561462E-02  0.1257384E+00
         -3   -1    0    0    0  501 -0.00000000000E+00  0.00000000000E+00  0.24080327368E+03  0.24080327368E+03  0.00000000000E+00 0.  1.
          3   -1    0    0  501    0  0.00000000000E+00 -0.00000000000E+00 -0.74984286025E+02  0.74984286025E+02  0.00000000000E+00 0. -1.
         25    2    1    2    0    0 -0.31337618058E+02 -0.69712904526E+02  0.12727828121E+03  0.19413530035E+03  0.12508724399E+03 0.  0.
          5    1    3    3  502    0 -0.18745139199E+02  0.35295677808E+02  0.42851709809E+02  0.58744417173E+02  0.41800000000E+01 0.  1.
         -5    1    3    3    0  502 -0.12592478859E+02 -0.10500858233E+03  0.84426571405E+02  0.13539088317E+03  0.41800000000E+01 0.  1.
        -11    1    1    2    0    0  0.11642263930E+02  0.41082320675E+02  0.65141446096E+02  0.77889070998E+02  0.00000000000E+00 0.  1.
         11    1    1    2    0    0  0.19695354127E+02  0.28630583851E+02 -0.26600739650E+02  0.43763188363E+02  0.00000000000E+00 0. -1.
</event>
<event>
 7    1  0.2522928E-009  0.9011704E+02  0.7561462E-02  0.1302569E+00
          2   -1    0    0  501    0  0.00000000000E+00  0.00000000000E+00  0.70830838726E+02  0.70830838726E+02  0.00000000000E+00 0. -1.
         -2   -1    0    0    0  501 -0.00000000000E+00 -0.00000000000E+00 -0.20575927402E+03  0.20575927402E+03  0.00000000000E+00 0.  1.
         25    2    1    2    0    0 -0.43695120988E+01  0.47784777825E+02 -0.10081257347E+03  0.16766987877E+03  0.12509011011E+03 0.  0.
          5    1    3    3  502    0 -0.55307467882E+02  0.57783436839E+02 -0.47397449986E+02  0.93068964975E+02  0.41800000000E+01 0. -1.
         -5    1    3    3    0  502  0.50937955783E+02 -0.99986590138E+01 -0.53415123488E+02  0.74600913793E+02  0.41800000000E+01 0. -1.
        -11    1    1    2    0    0  0.37817414723E+01 -0.26602078278E+02  0.30659135615E+02  0.40767079046E+02  0.00000000000E+00 0. -1.
         11    1    1    2    0    0  0.58777062642E+00 -0.21182699547E+02 -0.64774997432E+02  0.68153154929E+02  0.00000000000E+00 0.  1.
</event>
<event>
 7    1  0.2522928E-009  0.1182099E+03  0.7561462E-02  0.1246080E+00
          2   -1    0    0  501    0  0.00000000000E+00  0.00000000000E+00  0.24884087396E+03  0.24884087396E+03  0.00000000000E+00 0. -1.
         -2   -1    0    0    0  501 -0.00000000000E+00 -0.00000000000E+00 -0.13180094795E+03  0.13180094795E+03  0.00000000000E+00 0.  1.
         25    2    1    2    0    0  0.10710381010E+03  0.10541928743E+02  0.16216359166E+03  0.23135527132E+03  0.12508346298E+03 0.  0.
          5    1    3    3  502    0  0.10061815378E+03  0.51491362865E+00  0.39714540837E+02  0.10825430781E+03  0.41800000000E+01 0. -1.
         -5    1    3    3    0  502  0.64856563148E+01  0.10027015115E+02  0.12244905082E+03  0.12310096351E+03  0.41800000000E+01 0. -1.
        -11    1    1    2    0    0 -0.25544370965E+01 -0.18062063139E+02 -0.40438345994E+02  0.44362406388E+02  0.00000000000E+00 0.  1.
         11    1    1    2    0    0 -0.10454937300E+03  0.75201343963E+01 -0.46853196546E+01  0.10492414420E+03  0.00000000000E+00 0. -1.
</event>
<event>
 7    1  0.2522928E-009  0.1114719E+03  0.7561462E-02  0.1257868E+00
         -2   -1    0    0    0  501 -0.00000000000E+00  0.00000000000E+00  0.18884695098E+02  0.18884695098E+02  0.00000000000E+00 0.  1.
          2   -1    0    0  501    0  0.00000000000E+00 -0.00000000000E+00 -0.89439012995E+03  0.89439012995E+03  0.00000000000E+00 0. -1.
         25    2    1    2    0    0  0.32058783857E+02  0.45957364231E+02 -0.32758136947E+03  0.35510097853E+03  0.12508919369E+03 0.  0.
          5    1    3    3  502    0  0.66381580977E+02  0.11168068472E+02 -0.27518417055E+03  0.28332850222E+03  0.41800000000E+01 0.  1.
         -5    1    3    3    0  502 -0.34322797120E+02  0.34789295759E+02 -0.52397198920E+02  0.71772476314E+02  0.41800000000E+01 0.  1.
        -11    1    1    2    0    0  0.25253860273E+02 -0.41991937237E+02 -0.25838766531E+03  0.26299290073E+03  0.00000000000E+00 0. -1.
         11    1    1    2    0    0 -0.57312644130E+02 -0.39654269940E+01 -0.28953640007E+03  0.29518094579E+03  0.00000000000E+00 0.  1.
</event>
<event>
 7    1  0.2522928E-009  0.7882329E+02  0.7561462E-02  0.1332424E+00
         -4   -1    0    0    0  501 -0.00000000000E+00  0.00000000000E+00  0.14301512747E+03  0.14301512747E+03  0.00000000000E+00 0.  1.
          4   -1    0    0  501    0  0.00000000000E+00 -0.00000000000E+00 -0.79620248339E+02  0.79620248339E+02  0.00000000000E+00 0. -1.
         25    2    1    2    0    0 -0.27990411280E+01 -0.24243266226E+02  0.14645938147E+01  0.12745325468E+03  0.12508643613E+03 0.  0.
          5    1    3    3  502    0 -0.48691764546E+02  0.24303935568E+02  0.19783926691E+02  0.58055536980E+02  0.41800000000E+01 0.  1.
         -5    1    3    3    0  502  0.45892723418E+02 -0.48547201794E+02 -0.18319332876E+02  0.69397717699E+02  0.41800000000E+01 0.  1.
        -11    1    1    2    0    0 -0.11419505904E+02  0.16118280051E+02 -0.94853540047E+01  0.21912918735E+02  0.00000000000E+00 0. -1.
         11    1    1    2    0    0  0.14218547032E+02  0.81249861746E+01  0.71415639324E+02  0.73269202399E+02  0.00000000000E+00 0.  1.
</event>
<event>
 7    1  0.2522928E-009  0.6221921E+02  0.7561462E-02  0.1388748E+00
         -2   -1    0    0    0  501 -0.00000000000E+00  0.00000000000E+00  0.20338311061E+02  0.20338311061E+02  0.00000000000E+00 0.  1.
          2   -1    0    0  501    0  0.00000000000E+00 -0.00000000000E+00 -0.83965615780E+03  0.83965615780E+03  0.00000000000E+00 0. -1.
         25    2    1    2    0    0 -0.15020295128E+02 -0.21402365039E+02 -0.65181823087E+03  0.66422773259E+03  0.12509118338E+03 0.  0.
          5    1    3    3  502    0 -0.11075857017E+02 -0.57064072327E+01 -0.64657648383E+03  0.64671002739E+03  0.41800000000E+01 0. -1.
         -5    1    3    3    0  502 -0.39444381112E+01 -0.15695957806E+02 -0.52417470402E+01  0.17517705200E+02  0.41800000000E+01 0. -1.
        -11    1    1    2    0    0  0.27410415425E+02  0.53534197433E+02 -0.69595802276E+02  0.91982698715E+02  0.00000000000E+00 0.  1.
         11    1    1    2    0    0 -0.12390120297E+02 -0.32131832395E+02 -0.97903813597E+02  0.10378403755E+03  0.00000000000E+00 0. -1.
</event>
<event>
 7    1  0.2522928E-009  0.1179757E+03  0.7561462E-02  0.1246474E+00
          1   -1    0    0  501    0  0.00000000000E+00  0.00000000000E+00  0.33547944432E+03  0.33547944432E+03  0.00000000000E+00 0. -1.
         -1   -1    0    0    0  501 -0.00000000000E+00 -0.00000000000E+00 -0.44998772724E+02  0.44998772724E+02  0.00000000000E+00 0.  1.
         25    2    1    2    0    0 -0.29298206658E+02 -0.41998418805E+02  0.19936763775E+03  0.24086788592E+03  0.12509049280E+03 0.  0.
          5    1    3    3  502    0 -0.49913327646E+02  0.28319381146E+02  0.58668212120E+02  0.82175173493E+02  0.41800000000E+01 0.  1.
         -5    1    3    3    0  502  0.20615120988E+02 -0.70317799951E+02  0.14069942563E+03  0.15869271243E+03  0.41800000000E+01 0.  1.
        -11    1    1    2    0    0 -0.32758800070E+02  0.23308934567E+02  0.43186256774E+02  0.59004221772E+02  0.00000000000E+00 0. -1.
         11    1    1    2    0    0  0.62057006729E+02  0.18689484239E+02  0.47926777069E+02  0.80606109356E+02  0.00000000000E+00 0.  1.
</event>
<event>
 7    1  0.3831540E-009  0.1519632E+03  0.7561462E-02  0.1198081E+00
          2   -1    0    0  501    0  0.00000000000E+00  0.00000000000E+00  0.15614167646E+04  0.15614167646E+04  0.00000000000E+00 0. -1.
         -2   -1    0    0    0  501 -0.00000000000E+00 -0.00000000000E+00 -0.18655528706E+02  0.18655528706E+02  0.00000000000E+00 0.  1.
         25    2    1    2    0    0 -0.10132786917E+03  0.79655560438E+02  0.93354793438E+03  0.95066823521E+03  0.12508398088E+03 0.  0.
          5    1    3    3  502    0 -0.81338051485E+02  0.10835071340E+03  0.59253054434E+03  0.60783688115E+03  0.41800000000E+01 0. -1.
         -5    1    3    3    0  502 -0.19989817681E+02 -0.28695152966E+02  0.34101739004E+03  0.34283135406E+03  0.41800000000E+01 0. -1.
        -11    1    1    2    0    0  0.97754753457E+02 -0.63399174562E+02  0.59821060562E+03  0.60945170099E+03  0.00000000000E+00 0. -1.
         11    1    1    2    0    0  0.35731157093E+01 -0.16256385876E+02  0.11002695912E+02  0.19952357128E+02  0.00000000000E+00 0.  1.
</event>
<event>
 7    1  0.2522928E-009  0.1129867E+03  0.7561462E-02  0.1255137E+00
          2   -1    0    0  501    0  0.00000000000E+00  0.00000000000E+00  0.28005015452E+03  0.28005015452E+03  0.00000000000E+00 0.  1.
         -2   -1    0    0    0  501 -0.00000000000E+00 -0.00000000000E+00 -0.64670076624E+02  0.64670076624E+02  0.00000000000E+00 0. -1.
         25    2    1    2    0    0  0.47169930264E+02 -0.52091928930E+02  0.16603118126E+03  0.21943688678E+03  0.12509045827E+03 0.  0.
          5    1    3    3  502    0 -0.26278472382E+02  0.36655575317E+01  0.10593892064E+03  0.10929099565E+03  0.41800000000E+01 0. -1.
         -5    1    3    3    0  502  0.73448402645E+02 -0.55757486461E+02  0.60092260615E+02  0.11014589113E+03  0.41800000000E+01 0. -1.
        -11    1    1    2    0    0 -0.27512099774E+02  0.73056104998E+02  0.55639760500E+02  0.95863929921E+02  0.00000000000E+00 0.  1.
         11    1    1    2    0    0 -0.19657830490E+02 -0.20964176068E+02 -0.62908638640E+01  0.29419414439E+02  0.00000000000E+00 0. -1.
</event>
<event>
 7    1  0.2522928E-009  0.9047365E+02  0.7561462E-02  0.1301709E+00
          2   -1    0    0  501    0  0.00000000000E+00  0.00000000000E+00  0.16938106503E+03  0.16938106503E+03  0.00000000000E+00 0. -1.
         -2   -1    0    0    0  501 -0.00000000000E+00 -0.00000000000E+00 -0.89200692796E+02  0.89200692796E+02  0.00000000000E+00 0.  1.
         25    2    1    2    0    0  0.20483883701E+02 -0.29983418047E+02  0.88759023210E+02  0.15762570294E+03  0.12509637556E+03 0.  0.
          5    1    3    3  502    0  0.65248048443E+02 -0.33014856932E+02  0.20899883312E+02  0.76168012488E+02  0.41800000000E+01 0.  1.
         -5    1    3    3    0  502 -0.44764164743E+02  0.30314388853E+01  0.67859139898E+02  0.81457690456E+02  0.41800000000E+01 0.  1.
        -11    1    1    2    0    0 -0.37740894690E+02  0.20821798565E+02 -0.43311533890E+02  0.61104921205E+02  0.00000000000E+00 0.  1.
         11    1    1    2    0    0  0.17257010990E+02  0.91616194824E+01  0.34732882911E+02  0.39851133674E+02  0.00000000000E+00 0. -1.
</event>
<event>
 7    1  0.2522928E-009  0.9554216E+02  0.7561462E-02  0.1289960E+00
          2   -1    0    0  501    0  0.00000000000E+00  0.00000000000E+00  0.24600182302E+03  0.24600182302E+03  0.00000000000E+00 0. -1.
         -2   -1    0    0    0  501 -0.00000000000E+00 -0.00000000000E+00 -0.47830271194E+02  0.47830271194E+02  0.00000000000E+00 0.  1.
         25    2    1    2    0    0 -0.13680021430E+02  0.63221221500E+01  0.12931880622E+03  0.18055076611E+03  0.12509241898E+03 0.  0.
          5    1    3    3  502    0  0.42062670625E+02 -0.10791686024E+02  0.11103528402E+03  0.11929809489E+03  0.41800000000E+01 0.  1.
         -5    1    3    3    0  502 -0.55742692054E+02  0.17113808174E+02  0.18283522200E+02  0.61252671221E+02  0.41800000000E+01 0.  1.
        -11    1    1    2    0    0  0.50558677470E+02  0.39589312335E+01  0.30971451704E+02  0.59422923394E+02  0.00000000000E+00 0.  1.
         11    1    1    2    0    0 -0.36878656041E+02 -0.10281053383E+02  0.37881293903E+02  0.53858404709E+02  0.00000000000E+00 0. -1.
</event>
<event>
 7    1  0.2522928E-009  0.1326934E+03  0.7561462E-02  0.1223513E+00
         -1   -1    0    0    0  501 -0.00000000000E+00  0.00000000000E+00  0.24902835454E+02  0.24902835454E+02  0.00000000000E+00 0.  1.
          1   -1    0    0  501    0  0.00000000000E+00 -0.00000000000E+00 -0.17548574453E+04  0.17548574453E+04  0.00000000000E+00 0. -1.
         25    2    1    2    0    0  0.16317528637E+02 -0.11531365317E+03 -0.14425731861E+04  0.14526642494E+04  0.12511004706E+03 0.  0.
          5    1    3    3  502    0 -0.25148085796E+02 -0.41644303473E+02 -0.10469615156E+04  0.10480995000E+04  0.41800000000E+01 0. -1.
         -5    1    3    3    0  502  0.41465614433E+02 -0.73669349702E+02 -0.39561167044E+03  0.40456474940E+03  0.41800000000E+01 0. -1.
        -11    1    1    2    0    0 -0.28809067423E+02  0.18357205526E+02 -0.14279720732E+02  0.37025123696E+02  0.00000000000E+00 0.  1.
         11    1    1    2    0    0  0.12491538787E+02  0.96956447648E+02 -0.27310170303E+03  0.29007090768E+03  0.00000000000E+00 0. -1.
</event>
<event>
 7    1  0.2522928E-009  0.1640750E+03  0.7561462E-02  0.1184171E+00
          2   -1    0    0  501    0  0.00000000000E+00  0.00000000000E+00  0.11769440738E+03  0.11769440738E+03  0.00000000000E+00 0. -1.
         -2   -1    0    0    0  501 -0.00000000000E+00 -0.00000000000E+00 -0.25624047812E+03  0.25624047812E+03  0.00000000000E+00 0.  1.
         25    2    1    2    0    0 -0.67943938076E+02 -0.10849835311E+03 -0.29115652150E+02  0.18133593543E+03  0.12508688553E+03 0.  0.
          5    1    3    3  502    0 -0.93414468020E+02 -0.45159535929E+02  0.68361018453E+01  0.10406657105E+03  0.41800000000E+01 0.  1.
         -5    1    3    3    0  502  0.25470529944E+02 -0.63338817179E+02 -0.35951753996E+02  0.77269364386E+02  0.41800000000E+01 0.  1.
        -11    1    1    2    0    0 -0.21948995812E+02  0.24299278007E+02 -0.38215466792E+02  0.50325294147E+02  0.00000000000E+00 0.  1.
         11    1    1    2    0    0  0.89892933888E+02  0.84199075100E+02 -0.71214951798E+02  0.14227365593E+03  0.00000000000E+00 0. -1.
</event>
<event>
 7    1  0.2522928E-009  0.9193549E+02  0.7561462E-02  0.1298231E+00
         -1   -1    0    0    0  501 -0.00000000000E+00  0.00000000000E+00  0.45088844626E+03  0.45088844626E+03  0.00000000000E+00 0.  1.
          1   -1    0    0  501    0  0.00000000000E+00 -0.00000000000E+00 -0.21697414134E+02  0.21697414134E+02  0.00000000000E+00 0. -1.
         25    2    1    2    0    0  0.18407941866E+02  0.50264373427E+02  0.35133191777E+03  0.37675642305E+03  0.12508367724E+03 0.  0.
          5    1    3    3  502    0 -0.48168832608E+02  0.34754373386E+02  0.10120227590E+03  0.11742008326E+03  0.41800000000E+01 0.  1.
         -5    1    3    3    0  502  0.66576774474E+02  0.15510000041E+02  0.25012964186E+03  0.25933633980E+03  0.41800000000E+01 0.  1.
        -11    1    1    2    0    0 -0.68502208456E+01 -0.39351796660E+02  0.54283908614E+02  0.67396084162E+02  0.00000000000E+00 0.  1.
         11    1    1    2    0    0 -0.11557721021E+02 -0.10912576767E+02  0.23575205742E+02  0.28433353174E+02  0.00000000000E+00 0. -1.
</event>
<event>
 7    1  0.2522928E-009  0.1280742E+03  0.7561462E-02  0.1230342E+00
         -2   -1    0    0    0  501 -0.00000000000E+00  0.00000000000E+00  0.20014840254E+02  0.20014840254E+02  0.00000000000E+00 0.  1.
          2   -1    0    0  501    0  0.00000000000E+00 -0.00000000000E+00 -0.82891076990E+03  0.82891076990E+03  0.00000000000E+00 0. -1.
         25    2    1    2    0    0  0.25382230112E+02  0.64832759633E+02 -0.43287033362E+03  0.45592915877E+03  0.12508847975E+03 0.  0.
          5    1    3    3  502    0  0.25197801565E+02  0.10218888788E+03 -0.30712587547E+03  0.32468642379E+03  0.41800000000E+01 0. -1.
         -5    1    3    3    0  502  0.18442854755E+00 -0.37356128243E+02 -0.12574445815E+03  0.13124273499E+03  0.41800000000E+01 0. -1.
        -11    1    1    2    0    0 -0.45095020573E+02 -0.77591797853E+02 -0.31738449802E+03  0.32982869427E+03  0.00000000000E+00 0.  1.
         11    1    1    2    0    0  0.19712790461E+02  0.12759038220E+02 -0.58641098003E+02  0.63167757116E+02  0.00000000000E+00 0. -1.
</event>
<event>
 7    1  0.2522928E-009  0.1078392E+03  0.7561462E-02  0.1264624E+00
          1   -1    0    0  501    0  0.00000000000E+00  0.00000000000E+00  0.12005050347E+04  0.12005050347E+04  0.00000000000E+00 0. -1.
         -1   -1    0    0    0  501 -0.00000000000E+00 -0.00000000000E+00 -0.13528791520E+02  0.13528791520E+02  0.00000000000E+00 0.  1.
         25    2    1    2    0    0 -0.95405996979E+01 -0.61877709081E+02  0.75100642509E+03  0.76392134803E+03  0.12508117972E+03 0.  0.
          5    1    3    3  502    0 -0.31060856186E+01  0.21790176397E+02  0.27127795886E+02  0.35183082084E+02  0.41800000000E+01 0.  1.
         -5    1    3    3    0  502 -0.64345140793E+01 -0.83667885477E+02  0.72387862920E+03  0.72873826594E+03  0.41800000000E+01 0.  1.
        -11    1    1    2    0    0 -0.32233114931E+02 -0.26982637569E+01  0.88313652502E+02  0.94050813626E+02  0.00000000000E+00 0.  1.
         11    1    1    2    0    0  0.41773714629E+02  0.64575972838E+02  0.34765616555E+03  0.35606166453E+03  0.00000000000E+00 0. -1.
</event>
<event>
 7    1  0.2522928E-009  0.1457663E+03  0.7561462E-02  0.1205774E+00
          2   -1    0    0  501    0  0.00000000000E+00  0.00000000000E+00  0.12404658432E+04  0.12404658432E+04  0.00000000000E+00 0. -1.
         -2   -1    0    0    0  501 -0.00000000000E+00 -0.00000000000E+00 -0.23274111571E+02  0.23274111571E+02  0.00000000000E+00 0.  1.
         25    2    1    2    0    0  0.98796303836E+02  0.70884631809E+02  0.81515278532E+03  0.83360949373E+03  0.12508150921E+03 0.  0.
          5    1    3    3  502    0  0.24936244475E+02  0.72655645705E+02  0.62246749721E+03  0.62720324985E+03  0.41800000000E+01 0.  1.
         -5    1    3    3    0  502  0.73860059361E+02 -0.17710138959E+01  0.19268528811E+03  0.20640624388E+03  0.41800000000E+01 0.  1.
        -11    1    1    2    0    0 -0.17214424692E+02 -0.54814724465E+02  0.25323546297E+03  0.25967131174E+03  0.00000000000E+00 0. -1.
         11    1    1    2    0    0 -0.81581879144E+02 -0.16069907344E+02  0.14880348336E+03  0.17045914932E+03  0.00000000000E+00 0.  1.
</event>
<event>
 7    1  0.2522928E-009  0.1248955E+03  0.7561462E-02  0.1235233E+00
          1   -1    0    0  501    0  0.00000000000E+00  0.00000000000E+00  0.10060846397E+04  0.10060846397E+04  0.00000000000E+00 0. -1.
         -1   -1    0    0    0  501 -0.00000000000E+00 -0.00000000000E+00 -0.16688489929E+02  0.16688489929E+02  0.00000000000E+00 0.  1.
         25    2    1    2    0    0  0.41835015159E+02 -0.51310090872E+02  0.47754714835E+03  0.49807691077E+03  0.12508571550E+03 0.  0.
          5    1    3    3  502    0  0.51287645428E+02 -0.86381954080E+02  0.28830754511E+03  0.30533748138E+03  0.41800000000E+01 0. -1.
         -5    1    3    3    0  502 -0.94526302691E+01  0.35071863208E+02  0.18923960324E+03  0.19273942939E+03  0.41800000000E+01 0. -1.
        -11    1    1    2    0    0 -0.65740185525E+01 -0.26473739102E+02  0.81159014710E+02  0.85620454628E+02  0.00000000000E+00 0. -1.
         11    1    1    2    0    0 -0.35260996607E+02  0.77783829974E+02  0.43068998674E+03  0.43907576427E+03  0.00000000000E+00 0.  1.
</event>
<event>
 7    1  0.2522928E-009  0.1026146E+03  0.7561462E-02  0.1274892E+00
          2   -1    0    0  501    0  0.00000000000E+00  0.00000000000E+00  0.45232022493E+03  0.45232022493E+03  0.00000000000E+00 0. -1.
         -2   -1    0    0    0  501 -0.00000000000E+00 -0.00000000000E+00 -0.25126217964E+02  0.25126217964E+02  0.00000000000E+00 0.  1.
         25    2    1    2    0    0  0.52334019838E+01 -0.14901166952E+02  0.23295279154E+03  0.26487979733E+03  0.12507945745E+03 0.  0.
          5    1    3    3  502    0  0.43453426307E+02 -0.50320047746E+02  0.17274303139E+03  0.18514301163E+03  0.41800000000E+01 0. -1.
         -5    1    3    3    0  502 -0.38220024323E+02  0.35418880794E+02  0.60209760144E+02  0.79736785693E+02  0.41800000000E+01 0. -1.
        -11    1    1    2    0    0 -0.35917614375E+02  0.34601227108E+02  0.11106952876E+03  0.12175286509E+03  0.00000000000E+00 0. -1.
         11    1    1    2    0    0  0.30684212391E+02 -0.19700060156E+02  0.83171686676E+02  0.90813780478E+02  0.00000000000E+00 0.  1.
</event>
<event>
 7    1  0.2522928E-009  0.1548346E+03  0.7561462E-02  0.1194655E+00
          2   -1    0    0  501    0  0.00000000000E+00  0.00000000000E+00  0.37779171831E+03  0.37779171831E+03  0.00000000000E+00 0. -1.
         -2   -1    0    0    0  501 -0.00000000000E+00 -0.00000000000E+00 -0.92946622425E+02  0.92946622425E+02  0.00000000000E+00 0.  1.
         25    2    1    2    0    0 -0.13250515963E+03 -0.14262371701E+02  0.24383304200E+03  0.30473656054E+03  0.12509510935E+03 0.  0.
          5    1    3    3  502    0 -0.24158069304E+02  0.44306032968E+02  0.32724478739E+02  0.60290967637E+02  0.41800000000E+01 0.  1.
         -5    1    3    3    0  502 -0.10834709033E+03 -0.58568404669E+02  0.21110856326E+03  0.24444559290E+03  0.41800000000E+01 0. -1.
        -11    1    1    2    0    0  0.45825895618E+02  0.17509999396E+02  0.59701090644E+02  0.77271165464E+02  0.00000000000E+00 0. -1.
         11    1    1    2    0    0  0.86679264014E+02 -0.32476276946E+01 -0.18689036758E+02  0.88730614732E+02  0.00000000000E+00 0.  1.
</event>
<event>
 7    1  0.2522928E-009  0.6996824E+02  0.7561462E-02  0.1360201E+00
         -1   -1    0    0    0  501 -0.00000000000E+00  0.00000000000E+00  0.46631290153E+02  0.46631290153E+02  0.00000000000E+00 0.  1.
          1   -1    0    0  501    0  0.00000000000E+00 -0.00000000000E+00 -0.27022971040E+03  0.27022971040E+03  0.00000000000E+00 0. -1.
         25    2    1    2    0    0 -0.12744516047E+02  0.15231582173E+02 -0.10486107205E+03  0.16444048534E+03  0.12510157874E+03 0.  0.
          5    1    3    3  502    0 -0.28026724826E+02 -0.22322057187E+02  0.14069521236E+02  0.38719444332E+02  0.41800000000E+01 0.  1.
         -5    1    3    3    0  502  0.15282208780E+02  0.37553639361E+02 -0.11893059328E+03  0.12572104101E+03  0.41800000000E+01 0.  1.
        -11    1    1    2    0    0  0.18289127980E+02  0.20195666994E+02  0.11648540758E+01  0.27271121221E+02  0.00000000000E+00 0.  1.
         11    1    1    2    0    0 -0.55446119340E+01 -0.35427249168E+02 -0.11990220227E+03  0.12514939399E+03  0.00000000000E+00 0. -1.
</event>
<event>
 7    1  0.2522928E-009  0.1031813E+03  0.7561462E-02  0.1273745E+00
         -2   -1    0    0    0  501 -0.00000000000E+00  0.00000000000E+00  0.58960012602E+02  0.58960012602E+02  0.00000000000E+00 0.  1.
          2   -1    0    0  501    0  0.00000000000E+00 -0.00000000000E+00 -0.53139770612E+03  0.53139770612E+03  0.00000000000E+00 0. -1.
         25    2    1    2    0    0 -0.56861154933E+01  0.62731907614E+02 -0.47090088605E+03  0.49128495149E+03  0.12508251250E+03 0.  0.
          5    1    3    3  502    0  0.39695422972E+02  0.18262123753E+02 -0.36562425000E+03  0.36824963863E+03  0.41800000000E+01 0. -1.
         -5    1    3    3    0  502 -0.45381538465E+02  0.44469783862E+02 -0.10527663605E+03  0.12303531285E+03  0.41800000000E+01 0. -1.
        -11    1    1    2    0    0  0.37917361520E+02 -0.14108244328E+02  0.29490028049E+01  0.40564337542E+02  0.00000000000E+00 0.  1.
         11    1    1    2    0    0 -0.32231246027E+02 -0.48623663286E+02 -0.44858102776E+01  0.58508429698E+02  0.00000000000E+00 0. -1.
</event>
<event>
 7    1  0.2522928E-009  0.1114330E+03  0.7561462E-02  0.1257939E+00
         -1   -1    0    0    0  501 -0.00000000000E+00  0.00000000000E+00  0.14271524432E+02  0.14271524432E+02  0.00000000000E+00 0.  1.
          1   -1    0    0  501    0  0.00000000000E+00 -0.00000000000E+00 -0.11138938588E+04  0.11138938588E+04  0.00000000000E+00 0. -1.
         25    2    1    2    0    0  0.14550248020E+02  0.63219177767E+02 -0.91256758464E+03  0.92338279816E+03  0.12509125164E+03 0.  0.
          5    1    3    3  502    0  0.69267126095E+02  0.42415431971E+02 -0.58041974766E+03  0.58609006091E+03  0.41800000000E+01 0.  1.
         -5    1    3    3    0  502 -0.54716878075E+02  0.20803745796E+02 -0.33214783698E+03  0.33729273724E+03  0.41800000000E+01 0.  1.
        -11    1    1    2    0    0  0.84872088511E+01 -0.58777891440E+02 -0.14366773087E+03  0.15545832280E+03  0.00000000000E+00 0. -1.
         11    1    1    2    0    0 -0.23037456871E+02 -0.44412863274E+01 -0.43387018860E+02  0.49324262274E+02  0.00000000000E+00 0.  1.
</event>
<event>
 7    1  0.2522928E-009  0.1078043E+03  0.7561462E-02  0.1264691E+00
         -1   -1    0    0    0  501 -0.00000000000E+00  0.00000000000E+00  0.29004304313E+03  0.29004304313E+03  0.00000000000E+00 0.  1.
          1   -1    0    0  501    0  0.00000000000E+00 -0.00000000000E+00 -0.95654069602E+02  0.95654069602E+02  0.00000000000E+00 0. -1.
         25    2    1    2    0    0  0.84964250448E+01 -0.13645355092E+02 -0.39909927101E+02  0.13228224515E+03  0.12508958849E+03 0.  0.
          5    1    3    3  502    0  0.62779447927E+02 -0.21170272212E+02 -0.39642370724E+02  0.77320304346E+02  0.41800000000E+01 0.  1.
         -5    1    3    3    0  502 -0.54283022883E+02  0.75249171204E+01 -0.26755637701E+00  0.54961940808E+02  0.41800000000E+01 0.  1.
        -11    1    1    2    0    0 -0.50251184844E+02  0.15136713683E+02  0.10253992020E+03  0.11519000353E+03  0.00000000000E+00 0. -1.
         11    1    1    2    0    0  0.41754759799E+02 -0.14913585911E+01  0.13175898043E+03  0.13822486404E+03  0.00000000000E+00 0.  1.
</event>
<event>
 7    1  0.2522928E-009  0.1133180E+03  0.7561462E-02  0.1254546E+00
         -2   -1    0    0    0  501 -0.00000000000E+00  0.00000000000E+00  0.38641660876E+03  0.38641660876E+03  0.00000000000E+00 0.  1.
          2   -1    0    0  501    0  0.00000000000E+00 -0.00000000000E+00 -0.38044712147E+02  0.38044712147E+02  0.00000000000E+00 0. -1.
         25    2    1    2    0    0 -0.57539392993E+02  0.14964568858E+02  0.23370313899E+03  0.27165965079E+03  0.12508832330E+03 0.  0.
          5    1    3    3  502    0 -0.58893523762E+02  0.60111452280E+02  0.10163479863E+03  0.13201870522E+03  0.41800000000E+01 0.  1.
         -5    1    3    3    0  502  0.13541307691E+01 -0.45146883423E+02  0.13206834036E+03  0.13964094556E+03  0.41800000000E+01 0.  1.
        -11    1    1    2    0    0 -0.11045469754E+02  0.17847375159E+02  0.45108536673E+02  0.49752500268E+02  0.00000000000E+00 0.  1.
         11    1    1    2    0    0  0.68584862748E+02 -0.32811944017E+02  0.69560220954E+02  0.10304916985E+03  0.00000000000E+00 0. -1.
</event>
<event>
 7    1  0.2522928E-009  0.1147468E+03  0.7561462E-02  0.1252024E+00
         -2   -1    0    0    0  501 -0.00000000000E+00  0.00000000000E+00  0.27249820626E+02  0.27249820626E+02  0.00000000000E+00 0.  1.
          2   -1    0    0  501    0  0.00000000000E+00 -0.00000000000E+00 -0.71127212571E+03  0.71127212571E+03  0.00000000000E+00 0. -1.
         25    2    1    2    0    0  0.45204329946E+02 -0.30504669313E+02 -0.19251439946E+03  0.23597363492E+03  0.12509115111E+03 0.  0.
          5    1    3    3  502    0 -0.15094145407E+02  0.37417843483E+02 -0.32688356639E+02  0.52095386516E+02  0.41800000000E+01 0. -1.
         -5    1    3    3    0  502  0.60298475352E+02 -0.67922512796E+02 -0.15982604282E+03  0.18387824841E+03  0.41800000000E+01 0. -1.
        -11    1    1    2    0    0 -0.35335701212E+02  0.58489070049E+02 -0.41309067714E+03  0.41870453859E+03  0.00000000000E+00 0. -1.
         11    1    1    2    0    0 -0.98686287336E+01 -0.27984400736E+02 -0.78417228493E+02  0.83843772828E+02  0.00000000000E+00 0.  1.
</event>
<event>
 7    1  0.2522928E-009  0.1191204E+03  0.7561462E-02  0.1244555E+00
          1   -1    0    0  501    0  0.00000000000E+00  0.00000000000E+00  0.12800704311E+03  0.12800704311E+03  0.00000000000E+00 0. -1.
         -1   -1    0    0    0  501 -0.00000000000E+00 -0.00000000000E+00 -0.17882739064E+03  0.17882739064E+03  0.00000000000E+00 0.  1.
         25    2    1    2    0    0 -0.39223303972E+02 -0.97964151977E+02 -0.28421094793E+02  0.16610552837E+03  0.12509134774E+03 0.  0.
          5    1    3    3  502    0 -0.54957076928E+02 -0.10123855356E+03  0.18125475073E+02  0.11668560442E+03  0.41800000000E+01 0. -1.
         -5    1    3    3    0  502  0.15733772956E+02  0.32744015828E+01 -0.46546569866E+02  0.49419923952E+02  0.41800000000E+01 0. -1.
        -11    1    1    2    0    0  0.28665789210E+02  0.53832344238E+02  0.32818384185E+02  0.69258177118E+02  0.00000000000E+00 0. -1.
         11    1    1    2    0    0  0.10557514762E+02  0.44131807740E+02 -0.55217636915E+02  0.71470728265E+02  0.00000000000E+00 0.  1.
</event>
<event>
 7    1  0.2522928E-009  0.1532635E+03  0.7561462E-02  0.1196519E+00
          2   -1    0    0  501    0  0.00000000000E+00  0.00000000000E+00  0.11457934912E+04  0.11457934912E+04  0.00000000000E+00 0. -1.
         -2   -1    0    0    0  501 -0.00000000000E+00 -0.00000000000E+00 -0.25299896746E+02  0.25299896746E+02  0.00000000000E+00 0.  1.
         25    2    1    2    0    0  0.61704699352E+01 -0.12144410550E+03  0.81797526027E+03  0.83637168428E+03  0.12508925771E+03 0.  0.
          5    1    3    3  502    0  0.16657320891E+01  0.20654920372E+02  0.24871767574E+03  0.24961441269E+03  0.41800000000E+01 0.  1.
         -5    1    3    3    0  502  0.45047378460E+01 -0.14209902588E+03  0.56925758453E+03  0.58675727159E+03  0.41800000000E+01 0.  1.
        -11    1    1    2    0    0 -0.38577863857E+02  0.40342902418E+02  0.12400206096E+03  0.13598644226E+03  0.00000000000E+00 0.  1.
         11    1    1    2    0    0  0.32407393921E+02  0.81101203085E+02  0.17851627327E+03  0.19873526146E+03  0.00000000000E+00 0. -1.
</event>
<event>
 7    1  0.2522928E-009  0.8989834E+02  0.7561462E-02  0.1303098E+00
         -1   -1    0    0    0  501 -0.00000000000E+00  0.00000000000E+00  0.16652355079E+03  0.16652355079E+03  0.00000000000E+00 0.  1.
          1   -1    0    0  501    0  0.00000000000E+00 -0.00000000000E+00 -0.79184462323E+02  0.79184462323E+02  0.00000000000E+00 0. -1.
         25    2    1    2    0    0 -0.31227468869E+02 -0.18237368320E+02  0.68024054180E+02  0.14690958617E+03  0.12508956050E+03 0.  0.
          5    1    3    3  502    0  0.55899611266E+01  0.25866222261E+02 -0.25553505286E+02  0.37023818710E+02  0.41800000000E+01 0.  1.
         -5    1    3    3    0  502 -0.36817429996E+02 -0.44103590581E+02  0.93577559466E+02  0.10988576746E+03  0.41800000000E+01 0.  1.
        -11    1    1    2    0    0 -0.85289894669E+00  0.50146953840E+02  0.18757605338E+02  0.53547102387E+02  0.00000000000E+00 0.  1.
         11    1    1    2    0    0  0.32080367816E+02 -0.31909585520E+02  0.55742894655E+00  0.45251324558E+02  0.00000000000E+00 0. -1.
</event>
<event>
 7    1  0.2522928E-009  0.1638106E+03  0.7561462E-02  0.1184461E+00
          2   -1    0    0  501    0  0.00000000000E+00  0.00000000000E+00  0.72884499003E+03  0.72884499003E+03  0.00000000000E+00 0. -1.
         -2   -1    0    0    0  501 -0.00000000000E+00 -0.00000000000E+00 -0.40492267892E+02  0.40492267892E+02  0.00000000000E+00 0.  1.
         25    2    1    2    0    0  0.49248227343E+02  0.12148387408E+03  0.33668026369E+03  0.38234087250E+03  0.12508886148E+03 0.  0.
          5    1    3    3  502    0  0.39404912058E+02 -0.44526400945E+01  0.27820222004E+02  0.48621088537E+02  0.41800000000E+01 0.  1.
         -5    1    3    3    0  502  0.98433152848E+01  0.12593651418E+03  0.30886004169E+03  0.33371978397E+03  0.41800000000E+01 0.  1.
        -11    1    1    2    0    0  0.23189166797E+02 -0.42902356989E+01  0.45279525665E+02  0.51052708288E+02  0.00000000000E+00 0.  1.
         11    1    1    2    0    0 -0.72437394140E+02 -0.11719363838E+03  0.30639293278E+03  0.33594367713E+03  0.00000000000E+00 0. -1.
</event>
<event>
 7    1  0.2522928E-009  0.1002606E+03  0.7561462E-02  0.1279749E+00
         -1   -1    0    0    0  501 -0.00000000000E+00  0.00000000000E+00  0.10230760057E+03  0.10230760057E+03  0.00000000000E+00 0.  1.
          1   -1    0    0  501    0  0.00000000000E+00 -0.00000000000E+00 -0.14080507581E+03  0.14080507581E+03  0.00000000000E+00 0. -1.
         25    2    1    2    0    0  0.13732772548E+02  0.26603296360E+02 -0.25862869317E+02  0.13120035123E+03  0.12509324416E+03 0.  0.
          5    1    3    3  502    0  0.37017859134E+02  0.64309163528E+02 -0.40123070429E+02  0.84459005377E+02  0.41800000000E+01 0. -1.
         -5    1    3    3    0  502 -0.23285086586E+02 -0.37705867168E+02  0.14260201112E+02  0.46741345851E+02  0.41800000000E+01 0. -1.
        -11    1    1    2    0    0 -0.25056055460E+02 -0.49871014841E+02 -0.44129739030E+02  0.71150248793E+02  0.00000000000E+00 0. -1.
         11    1    1    2    0    0  0.11323282912E+02  0.23267718481E+02  0.31495133115E+02  0.40762076360E+02  0.00000000000E+00 0.  1.
</event>
<event>
 7    1  0.2522928E-009  0.2794279E+03  0.7561462E-02  0.1096002E+00
          4   -1    0    0  501    0  0.00000000000E+00  0.00000000000E+00  0.45949283391E+03  0.45949283391E+03  0.00000000000E+00 0. -1.
         -4   -1    0    0    0  501 -0.00000000000E+00 -0.00000000000E+00 -0.19066476324E+03  0.19066476324E+03  0.00000000000E+00 0.  1.
         25    2    1    2    0    0  0.17871229169E+03 -0.20396938288E+03  0.89319667025E+02  0.31171645185E+03  0.12509017180E+03 0.  0.
          5    1    3    3  502    0  0.72258502220E+02 -0.28480375248E+02  0.71496439955E+02  0.10564864525E+03  0.41800000000E+01 0. -1.
         -5    1    3    3    0  502  0.10645378947E+03 -0.17548900763E+03  0.17823227070E+02  0.20606780660E+03  0.41800000000E+01 0. -1.
        -11    1    1    2    0    0 -0.34668104784E+02  0.74205908340E+02  0.13104633497E+02  0.82946523381E+02  0.00000000000E+00 0.  1.
         11    1    1    2    0    0 -0.14404418691E+03  0.12976347454E+03  0.16640377015E+03  0.25549462192E+03  0.00000000000E+00 0. -1.
</event>
<event>
 7    1  0.2522928E-009  0.8330058E+02  0.7561462E-02  0.1319937E+00
          2   -1    0    0  501    0  0.00000000000E+00  0.00000000000E+00  0.24184248337E+03  0.24184248337E+03  0.00000000000E+00 0. -1.
         -2   -1    0    0    0  501 -0.00000000000E+00 -0.00000000000E+00 -0.68298735330E+02  0.68298735330E+02  0.00000000000E+00 0.  1.
         25    2    1    2    0    0  0.33257203810E+02 -0.23916841243E+01  0.17203046782E+03  0.21529876137E+03  0.12508922028E+03 0.  0.
          5    1    3    3  502    0  0.36842585318E+02 -0.40064993654E+02  0.19310926613E+02  0.57904784742E+02  0.41800000000E+01 0. -1.
         -5    1    3    3    0  502 -0.35853815077E+01  0.37673309529E+02  0.15271954121E+03  0.15739397662E+03  0.41800000000E+01 0. -1.
        -11    1    1    2    0    0 -0.48574613397E+02 -0.14927614122E+02 -0.27470441893E+02  0.57766356193E+02  0.00000000000E+00 0.  1.
         11    1    1    2    0    0  0.15317409586E+02  0.17319298247E+02  0.28983722114E+02  0.37076101141E+02  0.00000000000E+00 0. -1.
</event>
<event>
 7    1  0.2522928E-009  0.1316104E+03  0.7561462E-02  0.1225086E+00
          1   -1    0    0  501    0  0.00000000000E+00  0.00000000000E+00  0.44713361942E+03  0.44713361942E+03  0.00000000000E+00 0. -1.
         -1   -1    0    0    0  501 -0.00000000000E+00 -0.00000000000E+00 -0.60497462346E+02  0.60497462346E+02  0.00000000000E+00 0.  1.
         25    2    1    2    0    0  0.35064741011E+01 -0.10824318746E+03  0.30004140759E+03  0.34263887227E+03  0.12509063727E+03 0.  0.
          5    1    3    3  502    0  0.23816543066E+02 -0.10190210595E+03  0.30315191620E+03  0.32073325929E+03  0.41800000000E+01 0. -1.
         -5    1    3    3    0  502 -0.20310068964E+02 -0.63410815137E+01 -0.31105086145E+01  0.21905612978E+02  0.41800000000E+01 0. -1.
        -11    1    1    2    0    0  0.13681683890E+02  0.11680451358E+03  0.86155344789E+02  0.14578486308E+03  0.00000000000E+00 0. -1.
         11    1    1    2    0    0 -0.17188157991E+02 -0.85613261210E+01  0.43940470371E+00  0.19207346422E+02  0.00000000000E+00 0.  1.
</event>
<event>
 7    1  0.2522928E-009  0.7758628E+02  0.7561462E-02  0.1336044E+00
         -2   -1    0    0    0  501 -0.00000000000E+00  0.00000000000E+00  0.70127506449E+02  0.70127506449E+02  0.00000000000E+00 0.  1.
          2   -1    0    0  501    0  0.00000000000E+00 -0.00000000000E+00 -0.20157268342E+03  0.20157268342E+03  0.00000000000E+00 0. -1.
         25    2    1    2    0    0  0.21219059577E+02  0.22656235820E+02 -0.43804924490E+02  0.13612839740E+03  0.12509402727E+03 0.  0.
          5    1    3    3  502    0  0.33229617576E+02  0.41383279615E+02 -0.78410928935E+02  0.94776207417E+02  0.41800000000E+01 0. -1.
         -5    1    3    3    0  502 -0.12010558000E+02 -0.18727043795E+02  0.34606004445E+02  0.41352189983E+02  0.41800000000E+01 0. -1.
        -11    1    1    2    0    0 -0.46118043874E+02 -0.27833659964E+02 -0.11208592156E+02  0.55020170264E+02  0.00000000000E+00 0.  1.
         11    1    1    2    0    0  0.24898984297E+02  0.51774241446E+01 -0.76431660329E+02  0.80551622209E+02  0.00000000000E+00 0. -1.
</event>
<event>
 7    1  0.2522928E-009  0.1164980E+03  0.7561462E-02  0.1248989E+00
          1   -1    0    0  501    0  0.00000000000E+00  0.00000000000E+00  0.12534595386E+04  0.12534595386E+04  0.00000000000E+00 0. -1.
         -1   -1    0    0    0  501 -0.00000000000E+00 -0.00000000000E+00 -0.21182942175E+02  0.21182942175E+02  0.00000000000E+00 0.  1.
         25    2    1    2    0    0  0.63796042485E+02 -0.91950310130E+02  0.81131557455E+03  0.82850414313E+03  0.12514535192E+03 0.  0.
          5    1    3    3  502    0  0.44558727744E+01 -0.63855201829E+01  0.50252699052E+03  0.50260469384E+03  0.41800000000E+01 0.  1.
         -5    1    3    3    0  502  0.59340169711E+02 -0.85564789947E+02  0.30878858403E+03  0.32589944929E+03  0.41800000000E+01 0.  1.
        -11    1    1    2    0    0 -0.57254812962E+02  0.45757206383E+02  0.36941001852E+03  0.37661067076E+03  0.00000000000E+00 0. -1.
         11    1    1    2    0    0 -0.65412295232E+01  0.46193103748E+02  0.51551003395E+02  0.69527666928E+02  0.00000000000E+00 0.  1.
</event>
<event>
 6    1  0.2522928E-009  0.9589650E+02  0.7561462E-02  0.1289170E+00
          1   -1    0    0  501    0  0.00000000000E+00  0.00000000000E+00  0.14222933425E+02  0.14222933425E+02  0.00000000000E+00 0. -1.
         -1   -1    0    0    0  501 -0.00000000000E+00 -0.00000000000E+00 -0.76660302010E+03  0.76660302010E+03  0.00000000000E+00 0.  1.
          5    1    1    2  502    0 -0.19242525115E+00  0.64536151429E+02 -0.33314304535E+03  0.33936221494E+03  0.41800000000E+01 0. -1.
         -5    1    1    2    0  502 -0.15930261215E+02 -0.57878401935E+02 -0.22460972137E+03  0.23253103441E+03  0.41800000000E+01 0. -1.
        -11    1    1    2    0    0 -0.24805626433E+02  0.27262563216E+01 -0.29939039365E+02  0.38975603323E+02  0.00000000000E+00 0. -1.
         11    1    1    2    0    0  0.40928312899E+02 -0.93840058161E+01 -0.16468828060E+03  0.16995710085E+03  0.00000000000E+00 0.  1.
</event>
<event>
 7    1  0.2522928E-009  0.1070851E+03  0.7561462E-02  0.1266065E+00
          2   -1    0    0  501    0  0.00000000000E+00  0.00000000000E+00  0.25865184032E+03  0.25865184032E+03  0.00000000000E+00 0. -1.
         -2   -1    0    0    0  501 -0.00000000000E+00 -0.00000000000E+00 -0.66014514251E+02  0.66014514251E+02  0.00000000000E+00 0.  1.
         25    2    1    2    0    0 -0.55755914593E+02 -0.37869068086E+02  0.85167491037E+02  0.16566161568E+03  0.12508989188E+03 0.  0.
          5    1    3    3  502    0  0.30623894850E+01 -0.66847342138E+02  0.13423362102E+02  0.68378391546E+02  0.41800000000E+01 0.  1.
         -5    1    3    3    0  502 -0.58818304078E+02  0.28978274052E+02  0.71744128935E+02  0.97283224136E+02  0.41800000000E+01 0.  1.
        -11    1    1    2    0    0  0.46058843937E+02  0.40481637434E+01  0.33187367530E+00  0.46237591575E+02  0.00000000000E+00 0.  1.
         11    1    1    2    0    0  0.96970706561E+01  0.33820904342E+02  0.10713796136E+03  0.11276714732E+03  0.00000000000E+00 0. -1.
</event>
<event>
 7    1  0.2522928E-009  0.1120201E+03  0.7561462E-02  0.1256874E+00
         -2   -1    0    0    0  501 -0.00000000000E+00  0.00000000000E+00  0.51276660806E+02  0.51276660806E+02  0.00000000000E+00 0. -1.
          2   -1    0    0  501    0  0.00000000000E+00 -0.00000000000E+00 -0.43691048474E+03  0.43691048474E+03  0.00000000000E+00 0.  1.
         25    2    1    2    0    0 -0.93341002793E+02  0.30549728379E+02 -0.15898887400E+03  0.22487856009E+03  0.12508827294E+03 0.  0.
          5    1    3    3  502    0 -0.24405655662E+02  0.14245847210E+02 -0.15076009368E+03  0.15344268780E+03  0.41800000000E+01 0.  1.
         -5    1    3    3    0  502 -0.68935347131E+02  0.16303881169E+02 -0.82287803142E+01  0.71435872296E+02  0.41800000000E+01 0.  1.
        -11    1    1    2    0    0  0.69423561984E+02 -0.56289712042E+02 -0.11137581835E+03  0.14280313566E+03  0.00000000000E+00 0. -1.
         11    1    1    2    0    0  0.23917440809E+02  0.25739983663E+02 -0.11526913159E+03  0.12050544980E+03  0.00000000000E+00 0.  1.
</event>
<event>
 7    1  0.2522928E-009  0.1123834E+03  0.7561462E-02  0.1256219E+00
          1   -1    0    0  501    0  0.00000000000E+00  0.00000000000E+00  0.35944854967E+03  0.35944854967E+03  0.00000000000E+00 0. -1.
         -1   -1    0    0    0  501 -0.00000000000E+00 -0.00000000000E+00 -0.88258432833E+02  0.88258432833E+02  0.00000000000E+00 0.  1.
         25    2    1    2    0    0  0.66339082520E+01  0.79441446333E+02  0.28563484534E+03  0.32185312228E+03  0.12508882971E+03 0.  0.
          5    1    3    3  502    0 -0.43559481077E+02 -0.70885675080E+01  0.56624128074E+02  0.71912728089E+02  0.41800000000E+01 0.  1.
         -5    1    3    3    0  502  0.50193389329E+02  0.86530013841E+02  0.22901071727E+03  0.24994039419E+03  0.41800000000E+01 0.  1.
        -11    1    1    2    0    0 -0.96599008957E+00 -0.61332820293E+02 -0.54166208006E+02  0.81832915576E+02  0.00000000000E+00 0.  1.
         11    1    1    2    0    0 -0.56679181625E+01 -0.18108626039E+02  0.39721479502E+02  0.44020944642E+02  0.00000000000E+00 0. -1.
</event>
<event>
 7    1  0.2522928E-009  0.1051873E+03  0.7561462E-02  0.1269751E+00
          4   -1    0    0  501    0  0.00000000000E+00  0.00000000000E+00  0.52742642251E+02  0.52742642251E+02  0.00000000000E+00 0.  1.
         -4   -1    0    0    0  501 -0.00000000000E+00 -0.00000000000E+00 -0.34751109141E+03  0.34751109141E+03  0.00000000000E+00 0. -1.
         25    2    1    2    0    0 -0.53963427084E+02  0.59220319481E+02 -0.18529538130E+03  0.23749056589E+03  0.12509313672E+03 0.  0.
          5    1    3    3  502    0 -0.46497768625E+02  0.11821612815E+02 -0.18304391999E+03  0.18927319425E+03  0.41800000000E+01 0. -1.
         -5    1    3    3    0  502 -0.74656584590E+01  0.47398706666E+02 -0.22514613089E+01  0.48217371640E+02  0.41800000000E+01 0. -1.
        -11    1    1    2    0    0  0.43628789235E+02  0.94224240339E+01 -0.18465421786E+02  0.48303469094E+02  0.00000000000E+00 0.  1.
         11    1    1    2    0    0  0.10334637850E+02 -0.68642743515E+02 -0.91007646070E+02  0.11445969867E+03  0.00000000000E+00 0. -1.
</event>
<event>
 7    1  0.2522928E-009  0.1434976E+03  0.7561462E-02  0.1208699E+00
          2   -1    0    0  501    0  0.00000000000E+00  0.00000000000E+00  0.30289412054E+03  0.30289412054E+03  0.00000000000E+00 0. -1.
         -2   -1    0    0    0  501 -0.00000000000E+00 -0.00000000000E+00 -0.84385018808E+02  0.84385018808E+02  0.00000000000E+00 0.  1.
         25    2    1    2    0    0  0.57205844883E+02 -0.86554829537E+02  0.51853649766E+02  0.17058906848E+03  0.12509029573E+03 0.  0.
          5    1    3    3  502    0  0.88568365437E+02 -0.68797207917E+02  0.63710450008E+01  0.11240762335E+03  0.41800000000E+01 0. -1.
         -5    1    3    3    0  502 -0.31362520555E+02 -0.17757621620E+02  0.45482604765E+02  0.58181445130E+02  0.41800000000E+01 0. -1.
        -11    1    1    2    0    0 -0.79188722707E+02  0.44008236256E+02  0.10790716540E+03  0.14089547547E+03  0.00000000000E+00 0. -1.
         11    1    1    2    0    0  0.21982877825E+02  0.42546593281E+02  0.58748286565E+02  0.75794595398E+02  0.00000000000E+00 0.  1.
</event>
<event>
 7    1  0.2522928E-009  0.1037761E+03  0.7561462E-02  0.1272550E+00
         -2   -1    0    0    0  501 -0.00000000000E+00  0.00000000000E+00  0.52876915360E+02  0.52876915360E+02  0.00000000000E+00 0.  1.
          2   -1    0    0  501    0  0.00000000000E+00 -0.00000000000E+00 -0.27186113606E+03  0.27186113606E+03  0.00000000000E+00 0. -1.
         25    2    1    2    0    0 -0.14361390191E+02 -0.50245618842E+02 -0.12393196437E+03  0.18367807845E+03  0.12509049912E+03 0.  0.
          5    1    3    3  502    0  0.25606812980E+02  0.14457950527E+02 -0.99268831666E+02  0.10361715372E+03  0.41800000000E+01 0. -1.
         -5    1    3    3    0  502 -0.39968203171E+02 -0.64703569369E+02 -0.24663132699E+02  0.80060924728E+02  0.41800000000E+01 0. -1.
        -11    1    1    2    0    0  0.45954416874E+01  0.74964184245E+02 -0.82818100151E+02  0.11180154166E+03  0.00000000000E+00 0. -1.
         11    1    1    2    0    0  0.97659485038E+01 -0.24718565404E+02 -0.12234156188E+02  0.29258431322E+02  0.00000000000E+00 0.  1.
</event>
<event>
 7    1  0.2522928E-009  0.3810031E+03  0.7561462E-02  0.1050564E+00
         -2   -1    0    0    0  501 -0.00000000000E+00  0.00000000000E+00  0.83869098067E+02  0.83869098067E+02  0.00000000000E+00 0.  1.
          2   -1    0    0  501    0  0.00000000000E+00 -0.00000000000E+00 -0.19625652533E+04  0.19625652533E+04  0.00000000000E+00 0. -1.
         25    2    1    2    0    0 -0.11672103143E+03  0.35598364534E+03 -0.12316858388E+04  0.12934631009E+04  0.12509449566E+03 0.  0.
          5    1    3    3  502    0 -0.52692470621E+01  0.13532198785E+03 -0.60014553985E+03  0.61524949961E+03  0.41800000000E+01 0.  1.
         -5    1    3    3    0  502 -0.11145178437E+03  0.22066165749E+03 -0.63154029898E+03  0.67821360128E+03  0.41800000000E+01 0.  1.
        -11    1    1    2    0    0  0.81485420376E+01 -0.11109617595E+03 -0.13418276739E+03  0.17439545325E+03  0.00000000000E+00 0.  1.
         11    1    1    2    0    0  0.10857248939E+03 -0.24488746939E+03 -0.51282754896E+03  0.57857579719E+03  0.00000000000E+00 0. -1.
</event>
<event>
 7    1  0.2522928E-009  0.1390022E+03  0.7561462E-02  0.1214678E+00
         -2   -1    0    0    0  501 -0.00000000000E+00  0.00000000000E+00  0.43480587582E+02  0.43480587582E+02  0.00000000000E+00 0. -1.
          2   -1    0    0  501    0  0.00000000000E+00 -0.00000000000E+00 -0.54774559154E+03  0.54774559154E+03  0.00000000000E+00 0.  1.
         25    2    1    2    0    0  0.87652268702E+02 -0.42507838699E+02 -0.34951497533E+03  0.38379429480E+03  0.12508999232E+03 0.  0.
          5    1    3    3  502    0 -0.29743931956E+02  0.60914729724E+01 -0.83952404552E+02  0.89371618320E+02  0.41800000000E+01 0.  1.
         -5    1    3    3    0  502  0.11739620066E+03 -0.48599311671E+02 -0.26556257078E+03  0.29442267648E+03  0.41800000000E+01 0.  1.
        -11    1    1    2    0    0  0.11482363358E+02  0.11760954426E+02 -0.74339433816E+02  0.76134854944E+02  0.00000000000E+00 0.  1.
         11    1    1    2    0    0 -0.99134632060E+02  0.30746884272E+02 -0.80410594806E+02  0.13129702938E+03  0.00000000000E+00 0. -1.
</event>
<event>
 7    1  0.2522928E-009  0.7871728E+02  0.7561462E-02  0.1332732E+00
          2   -1    0    0  501    0  0.00000000000E+00  0.00000000000E+00  0.26216658137E+03  0.26216658137E+03  0.00000000000E+00 0. -1.
         -2   -1    0    0    0  501 -0.00000000000E+00 -0.00000000000E+00 -0.48201881830E+02  0.48201881830E+02  0.00000000000E+00 0.  1.
         25    2    1    2    0    0  0.37886569383E+02 -0.12255049792E+01  0.11874973938E+03  0.17659412354E+03  0.12508832824E+03 0.  0.
          5    1    3    3  502    0  0.73913705266E+02  0.17071239484E+02  0.11211642005E+03  0.13543347846E+03  0.41800000000E+01 0.  1.
         -5    1    3    3    0  502 -0.36027135884E+02 -0.18296744464E+02  0.66333193383E+01  0.41160645080E+02  0.41800000000E+01 0.  1.
        -11    1    1    2    0    0 -0.20678540556E+02  0.82329944031E+01 -0.11777051171E+02  0.25181008134E+02  0.00000000000E+00 0.  1.
         11    1    1    2    0    0 -0.17208028827E+02 -0.70074894239E+01  0.10699201133E+03  0.10859333152E+03  0.00000000000E+00 0. -1.
</event>
<event>
 7    1  0.2522928E-009  0.3499643E+03  0.7561462E-02  0.1062630E+00
          3   -1    0    0  501    0  0.00000000000E+00  0.00000000000E+00  0.14048831617E+03  0.14048831617E+03  0.00000000000E+00 0. -1.
         -3   -1    0    0    0  501 -0.00000000000E+00 -0.00000000000E+00 -0.98172907479E+03  0.98172907479E+03  0.00000000000E+00 0.  1.
         25    2    1    2    0    0  0.24730906414E+03 -0.23163062620E+03 -0.58640020123E+03  0.68871267349E+03  0.12508169504E+03 0.  0.
          5    1    3    3  502    0  0.20417068236E+03 -0.23129893529E+03 -0.45022645832E+03  0.54580784272E+03  0.41800000000E+01 0. -1.
         -5    1    3    3    0  502  0.43138381775E+02 -0.33169090771E+00 -0.13617374291E+03  0.14290483078E+03  0.41800000000E+01 0. -1.
        -11    1    1    2    0    0 -0.23774139872E+03  0.18722138682E+03 -0.23824226437E+03  0.38513919157E+03  0.00000000000E+00 0.  1.
         11    1    1    2    0    0 -0.95676654140E+01  0.44409239379E+02 -0.16598293016E+02  0.48365525891E+02  0.00000000000E+00 0. -1.
</event>
<event>
 7    1  0.2522928E-009  0.1953274E+03  0.7561462E-02  0.1153742E+00
          1   -1    0    0  501    0  0.00000000000E+00  0.00000000000E+00  0.22722578833E+03  0.22722578833E+03  0.00000000000E+00 0. -1.
         -1   -1    0    0    0  501 -0.00000000000E+00 -0.00000000000E+00 -0.27523699438E+03  0.27523699438E+03  0.00000000000E+00 0.  1.
         25    2    1    2    0    0 -0.23964340320E+02  0.18091871107E+03  0.10726056241E+03  0.24588189598E+03  0.12508880405E+03 0.  0.
          5    1    3    3  502    0 -0.34903514188E+02  0.11271927910E+03  0.12751043104E+03  0.17378225918E+03  0.41800000000E+01 0.  1.
         -5    1    3    3    0  502  0.10939173868E+02  0.68199431976E+02 -0.20249868632E+02  0.72099636798E+02  0.41800000000E+01 0.  1.
        -11    1    1    2    0    0  0.44160635002E+02 -0.17748645237E+03 -0.14632004328E+03  0.23422458779E+03  0.00000000000E+00 0.  1.
         11    1    1    2    0    0 -0.20196294682E+02 -0.34322587052E+01 -0.89517251780E+01  0.22356298941E+02  0.00000000000E+00 0. -1.
</event>
<event>
 7    1  0.2522928E-009  0.1036743E+03  0.7561462E-02  0.1272754E+00
         -1   -1    0    0    0  501 -0.00000000000E+00  0.00000000000E+00  0.33907158047E+02  0.33907158047E+02  0.00000000000E+00 0.  1.
          1   -1    0    0  501    0  0.00000000000E+00 -0.00000000000E+00 -0.68803717562E+03  0.68803717562E+03  0.00000000000E+00 0. -1.
         25    2    1    2    0    0 -0.84355354196E+02  0.14834718122E+02 -0.52414563268E+03  0.54562938477E+03  0.12508751587E+03 0.  0.
          5    1    3    3  502    0 -0.91898790365E+02 -0.12245401268E+02 -0.20276175074E+03  0.22299133949E+03  0.41800000000E+01 0.  1.
         -5    1    3    3    0  502  0.75434361691E+01  0.27080119390E+02 -0.32138388194E+03  0.32263804528E+03  0.41800000000E+01 0.  1.
        -11    1    1    2    0    0  0.19266249838E+02  0.41771247240E+00  0.96131356537E+01  0.21535441570E+02  0.00000000000E+00 0.  1.
         11    1    1    2    0    0  0.65089104359E+02 -0.15252430594E+02 -0.13959752055E+03  0.15477950733E+03  0.00000000000E+00 0. -1.
</event>
<event>
 7    1  0.2522928E-009  0.1014159E+03  0.7561462E-02  0.1277346E+00
         -1   -1    0    0    0  501 -0.00000000000E+00  0.00000000000E+00  0.78801724940E+02  0.78801724940E+02  0.00000000000E+00 0.  1.
          1   -1    0    0  501    0  0.00000000000E+00 -0.00000000000E+00 -0.16085115901E+03  0.16085115901E+03  0.00000000000E+00 0. -1.
         25    2    1    2    0    0  0.23040481778E+02 -0.16466480870E+02 -0.38770861633E+02  0.13399223372E+03  0.12509488476E+03 0.  0.
          5    1    3    3  502    0  0.23477217037E+01  0.51668236909E+02 -0.34944104005E+02  0.62559422209E+02  0.41800000000E+01 0. -1.
         -5    1    3    3    0  502  0.20692760075E+02 -0.68134717779E+02 -0.38267576286E+01  0.71432811510E+02  0.41800000000E+01 0. -1.
        -11    1    1    2    0    0  0.23549738680E+02 -0.10494814599E+02  0.12056996942E+02  0.28462299637E+02  0.00000000000E+00 0.  1.
         11    1    1    2    0    0 -0.46590220459E+02  0.26961295470E+02 -0.55335569374E+02  0.77198350589E+02  0.00000000000E+00 0. -1.
</event>
<event>
 7    1  0.2522928E-009  0.7176602E+02  0.7561462E-02  0.1354189E+00
         -2   -1    0    0    0  501 -0.00000000000E+00  0.00000000000E+00  0.13369413432E+03  0.13369413432E+03  0.00000000000E+00 0.  1.
          2   -1    0    0  501    0  0.00000000000E+00 -0.00000000000E+00 -0.95230070877E+02  0.95230070877E+02  0.00000000000E+00 0. -1.
         25    2    1    2    0    0  0.28253067329E+02 -0.17455938446E+00 -0.10546720271E+02  0.12867141707E+03  0.12508730542E+03 0.  0.
          5    1    3    3  502    0 -0.33481067724E+02  0.27144410008E+02 -0.36089284602E+02  0.56371178396E+02  0.41800000000E+01 0.  1.
         -5    1    3    3    0  502  0.61734135053E+02 -0.27318969393E+02  0.25542564332E+02  0.72300238672E+02  0.41800000000E+01 0.  1.
        -11    1    1    2    0    0 -0.73928225030E+01 -0.73394098573E+01 -0.22815997335E+02  0.25081676499E+02  0.00000000000E+00 0. -1.
         11    1    1    2    0    0 -0.20860244826E+02  0.75139692418E+01  0.71826781053E+02  0.75171111635E+02  0.00000000000E+00 0.  1.
</event>
<event>
 7    1  0.2522928E-009  0.1538296E+03  0.7561462E-02  0.1195845E+00
         -1   -1    0    0    0  501 -0.00000000000E+00  0.00000000000E+00  0.24947240440E+02  0.24947240440E+02  0.00000000000E+00 0.  1.
          1   -1    0    0  501    0  0.00000000000E+00 -0.00000000000E+00 -0.13055424755E+04  0.13055424755E+04  0.00000000000E+00 0. -1.
         25    2    1    2    0    0 -0.86587020906E+02  0.10992484117E+03 -0.55725379914E+03  0.58801516798E+03  0.12509699527E+03 0.  0.
          5    1    3    3  502    0 -0.80336158501E+02  0.76293556445E+02 -0.53639331449E+03  0.54773156322E+03  0.41800000000E+01 0. -1.
         -5    1    3    3    0  502 -0.62508624051E+01  0.33631284720E+02 -0.20860484648E+02  0.40283604760E+02  0.41800000000E+01 0. -1.
        -11    1    1    2    0    0  0.12542356408E+02 -0.82374400654E+02 -0.46195600738E+03  0.46941048704E+03  0.00000000000E+00 0. -1.
         11    1    1    2    0    0  0.74044664498E+02 -0.27550440511E+02 -0.26138542857E+03  0.27306406095E+03  0.00000000000E+00 0.  1.
</event>
<event>
 7    1  0.2522928E-009  0.1034529E+03  0.7561462E-02  0.1273198E+00
         -2   -1    0    0    0  501 -0.00000000000E+00  0.00000000000E+00  0.24027985002E+02  0.24027985002E+02  0.00000000000E+00 0. -1.
          2   -1    0    0  501    0  0.00000000000E+00 -0.00000000000E+00 -0.80565785041E+03  0.80565785041E+03  0.00000000000E+00 0.  1.
         25    2    1    2    0    0  0.71997481570E+02 -0.12522114714E+02 -0.57048263010E+03  0.58859040808E+03  0.12509115290E+03 0.  0.
          5    1    3    3  502    0 -0.72762116449E+01 -0.17020791633E+02 -0.40030075107E+03  0.40075031418E+03  0.41800000000E+01 0.  1.
         -5    1    3    3    0  502  0.79273693215E+02  0.44986769190E+01 -0.17018187902E+03  0.18784009390E+03  0.41800000000E+01 0.  1.
        -11    1    1    2    0    0  0.76124495900E+01 -0.20774317573E+02 -0.87900584265E+02  0.90642343160E+02  0.00000000000E+00 0.  1.
         11    1    1    2    0    0 -0.79609931160E+02  0.33296432287E+02 -0.12324665105E+03  0.15045308417E+03  0.00000000000E+00 0. -1.
</event>
<event>
 7    1  0.2522928E-009  0.2219706E+03  0.7561462E-02  0.1132422E+00
          2   -1    0    0  501    0  0.00000000000E+00  0.00000000000E+00  0.40793882861E+03  0.40793882861E+03  0.00000000000E+00 0. -1.
         -2   -1    0    0    0  501 -0.00000000000E+00 -0.00000000000E+00 -0.13296413957E+03  0.13296413957E+03  0.00000000000E+00 0.  1.
         25    2    1    2    0    0  0.31510686708E+02  0.20269687105E+03  0.13979897807E+03  0.27797734149E+03  0.12509477687E+03 0.  0.
          5    1    3    3  502    0  0.46191350620E+02  0.42265005966E+02  0.89208185228E+02  0.10906669663E+03  0.41800000000E+01 0.  1.
         -5    1    3    3    0  502 -0.14680663912E+02  0.16043186508E+03  0.50590792842E+02  0.16891064486E+03  0.41800000000E+01 0.  1.
        -11    1    1    2    0    0  0.22773833283E+02 -0.11234806031E+03  0.99068207387E+02  0.15150988038E+03  0.00000000000E+00 0.  1.
         11    1    1    2    0    0 -0.54284519991E+02 -0.90348810738E+02  0.36107503577E+02  0.11141574632E+03  0.00000000000E+00 0. -1.
</event>
<event>
 7    1  0.2522928E-009  0.8743923E+02  0.7561462E-02  0.1309174E+00
          3   -1    0    0  501    0  0.00000000000E+00  0.00000000000E+00  0.13528622924E+03  0.13528622924E+03  0.00000000000E+00 0. -1.
         -3   -1    0    0    0  501 -0.00000000000E+00 -0.00000000000E+00 -0.12617158893E+03  0.12617158893E+03  0.00000000000E+00 0.  1.
         25    2    1    2    0    0  0.77422967520E+02 -0.15737446319E+01 -0.70620236322E+01  0.14728810143E+03  0.12508844900E+03 0.  0.
          5    1    3    3  502    0 -0.33848550948E-01 -0.15348589564E+02 -0.53515226542E+02  0.55829492378E+02  0.41800000000E+01 0.  1.
         -5    1    3    3    0  502  0.77456816071E+02  0.13774844932E+02  0.46453202910E+02  0.91458609050E+02  0.41800000000E+01 0.  1.
        -11    1    1    2    0    0 -0.34218062676E+02 -0.96423843802E+01  0.47723951633E+02  0.59509889508E+02  0.00000000000E+00 0. -1.
         11    1    1    2    0    0 -0.43204904844E+02  0.11216129012E+02 -0.31547287692E+02  0.54659827234E+02  0.00000000000E+00 0.  1.
</event>
<event>
 7    1  0.2522928E-009  0.1303012E+03  0.7561462E-02  0.1227010E+00
          2   -1    0    0  501    0  0.00000000000E+00  0.00000000000E+00  0.69442428610E+03  0.69442428610E+03  0.00000000000E+00 0. -1.
         -2   -1    0    0    0  501 -0.00000000000E+00 -0.00000000000E+00 -0.34650798253E+02  0.34650798253E+02  0.00000000000E+00 0.  1.
         25    2    1    2    0    0  0.38390112775E+00  0.10781523975E+03  0.40520238275E+03  0.43756445885E+03  0.12509760736E+03 0.  0.
          5    1    3    3  502    0  0.14691936043E+02  0.12554603900E+03  0.38965658288E+03  0.40966740886E+03  0.41800000000E+01 0.  1.
         -5    1    3    3    0  502 -0.14308034916E+02 -0.17730799252E+02  0.15545799862E+02  0.27897049999E+02  0.41800000000E+01 0.  1.
        -11    1    1    2    0    0  0.11984986589E+02 -0.73910897303E+02  0.24195989616E+03  0.25328057958E+03  0.00000000000E+00 0.  1.
         11    1    1    2    0    0 -0.12368887716E+02 -0.33904342445E+02  0.12611208943E+02  0.38230045919E+02  0.00000000000E+00 0. -1.
</event>
<event>
 7    1  0.2522928E-009  0.1190403E+03  0.7561462E-02  0.1244689E+00
          2   -1    0    0  501    0  0.00000000000E+00  0.00000000000E+00  0.13818498206E+03  0.13818498206E+03  0.00000000000E+00 0. -1.
         -2   -1    0    0    0  501 -0.00000000000E+00 -0.00000000000E+00 -0.26102180187E+03  0.26102180187E+03  0.00000000000E+00 0.  1.
         25    2    1    2    0    0  0.80332717660E+02 -0.76287568952E+02 -0.18021164913E+03  0.24575757514E+03  0.12508960210E+03 0.  0.
          5    1    3    3  502    0  0.11209890001E+02 -0.19607014099E+02 -0.14933704850E+03  0.15109309412E+03  0.41800000000E+01 0. -1.
         -5    1    3    3    0  502  0.69122827659E+02 -0.56680554854E+02 -0.30874600624E+02  0.94664481015E+02  0.41800000000E+01 0. -1.
        -11    1    1    2    0    0 -0.34965950473E+02  0.72016583194E+02 -0.15877697703E+00  0.80056424836E+02  0.00000000000E+00 0.  1.
         11    1    1    2    0    0 -0.45366767187E+02  0.42709857583E+01  0.57533606290E+02  0.73392783958E+02  0.00000000000E+00 0. -1.
</event>
<event>
 7    1  0.2522928E-009  0.2337859E+03  0.7561462E-02  0.1124003E+00
          2   -1    0    0  501    0  0.00000000000E+00  0.00000000000E+00  0.59476871329E+03  0.59476871329E+03  0.00000000000E+00 0.  1.
         -2   -1    0    0    0  501 -0.00000000000E+00 -0.00000000000E+00 -0.12351863018E+03  0.12351863018E+03  0.00000000000E+00 0. -1.
         25    2    1    2    0    0 -0.38638103495E+02  0.22505631350E+03  0.37016743258E+03  0.45256599854E+03  0.12509519418E+03 0.  0.
          5    1    3    3  502    0 -0.37321509304E+01  0.71484663188E+01  0.11425287533E+03  0.11461335630E+03  0.41800000000E+01 0. -1.
         -5    1    3    3    0  502 -0.34905952565E+02  0.21790784718E+03  0.25591455725E+03  0.33795264224E+03  0.41800000000E+01 0. -1.
        -11    1    1    2    0    0 -0.16063576978E+02 -0.99784056631E+02  0.76681623079E+02  0.12686594413E+03  0.00000000000E+00 0.  1.
         11    1    1    2    0    0  0.54701680473E+02 -0.12527225687E+03  0.24401027453E+02  0.13885540079E+03  0.00000000000E+00 0. -1.
</event>
<event>
 7    1  0.2522928E-009  0.1050668E+03  0.7561462E-02  0.1269988E+00
          1   -1    0    0  501    0  0.00000000000E+00  0.00000000000E+00  0.59911913955E+03  0.59911913955E+03  0.00000000000E+00 0. -1.
         -1   -1    0    0    0  501 -0.00000000000E+00 -0.00000000000E+00 -0.21852896388E+02  0.21852896388E+02  0.00000000000E+00 0.  1.
         25    2    1    2    0    0  0.31037726896E+02  0.13571221539E+02  0.37433518921E+03  0.39613216867E+03  0.12508534137E+03 0.  0.
          5    1    3    3  502    0 -0.39916534751E+02  0.20979231633E+02  0.23730083027E+03  0.24158355563E+03  0.41800000000E+01 0.  1.
         -5    1    3    3    0  502  0.70954261648E+02 -0.74080100935E+01  0.13703435895E+03  0.15454861304E+03  0.41800000000E+01 0.  1.
        -11    1    1    2    0    0 -0.57666435089E+02 -0.26870008057E+02  0.10792727411E+03  0.12528252698E+03  0.00000000000E+00 0.  1.
         11    1    1    2    0    0  0.26628708193E+02  0.13298786518E+02  0.95003779837E+02  0.99557340292E+02  0.00000000000E+00 0. -1.
</event>
<event>
 7    1  0.2522928E-009  0.8952832E+02  0.7561462E-02  0.1303998E+00
         -2   -1    0    0    0  501 -0.00000000000E+00  0.00000000000E+00  0.68789185169E+02  0.68789185169E+02  0.00000000000E+00 0.  1.
          2   -1    0    0  501    0  0.00000000000E+00 -0.00000000000E+00 -0.15501917161E+03  0.15501917161E+03  0.00000000000E+00 0. -1.
         25    2    1    2    0    0 -0.48673391011E+02 -0.25511290232E+01 -0.40155764020E+02  0.14012815690E+03  0.12509119761E+03 0.  0.
          5    1    3    3  502    0 -0.83873668069E+02 -0.74012022829E+01 -0.55781218451E+02  0.10108702549E+03  0.41800000000E+01 0.  1.
         -5    1    3    3    0  502  0.35200277057E+02  0.48500732598E+01  0.15625454431E+02  0.39041131409E+02  0.41800000000E+01 0.  1.
        -11    1    1    2    0    0  0.45726442869E+02  0.13467425548E+02 -0.14015860446E+02  0.49686250335E+02  0.00000000000E+00 0.  1.
         11    1    1    2    0    0  0.29469481427E+01 -0.10916296525E+02 -0.32058361974E+02  0.33993949544E+02  0.00000000000E+00 0. -1.
</event>
<event>
 7    1  0.2641145E-009  0.9833213E+02  0.7561462E-02  0.1283843E+00
          2   -1    0    0  501    0  0.00000000000E+00  0.00000000000E+00  0.29286640663E+03  0.29286640663E+03  0.00000000000E+00 0. -1.
         -2   -1    0    0    0  501 -0.00000000000E+00 -0.00000000000E+00 -0.70084123922E+02  0.70084123922E+02  0.00000000000E+00 0.  1.
         25    2    1    2    0    0 -0.56642585437E+02  0.14792477260E+02  0.21328266138E+03  0.25409515938E+03  0.12509059321E+03 0.  0.
          5    1    3    3  502    0 -0.66215239615E+02  0.61351420123E+02  0.14208188898E+03  0.16838405591E+03  0.41800000000E+01 0.  1.
         -5    1    3    3    0  502  0.95726541784E+01 -0.46558942863E+02  0.71200772394E+02  0.85711103470E+02  0.41800000000E+01 0.  1.
        -11    1    1    2    0    0  0.30370509147E+02 -0.68126259856E+01 -0.40939067196E+02  0.51427491884E+02  0.00000000000E+00 0.  1.
         11    1    1    2    0    0  0.26272076290E+02 -0.79798512740E+01  0.50438688530E+02  0.57427879289E+02  0.00000000000E+00 0. -1.
</event>
<event>
 7    1  0.2522928E-009  0.7885528E+02  0.7561462E-02  0.1332332E+00
         -2   -1    0    0    0  501 -0.00000000000E+00  0.00000000000E+00  0.40363121295E+02  0.40363121295E+02  0.00000000000E+00 0.  1.
          2   -1    0    0  501    0  0.00000000000E+00 -0.00000000000E+00 -0.36100049479E+03  0.36100049479E+03  0.00000000000E+00 0. -1.
         25    2    1    2    0    0  0.28994535840E+02 -0.15852889726E+02 -0.25155586923E+03  0.28287710362E+03  0.12508838151E+03 0.  0.
          5    1    3    3  502    0 -0.12841102601E+02  0.11590814108E+02  0.72717062480E+01  0.19224749659E+02  0.41800000000E+01 0. -1.
         -5    1    3    3    0  502  0.41835638441E+02 -0.27443703834E+02 -0.25882757547E+03  0.26365235396E+03  0.41800000000E+01 0. -1.
        -11    1    1    2    0    0  0.24562837258E+02  0.25366876118E+02 -0.49224974148E+02  0.60579777633E+02  0.00000000000E+00 0.  1.
         11    1    1    2    0    0 -0.53557373098E+02 -0.95139863919E+01 -0.19856530117E+02  0.57906734829E+02  0.00000000000E+00 0. -1.
</event>
<event>
 7    1  0.2522928E-009  0.2154206E+03  0.7561462E-02  0.1137344E+00
          1   -1    0    0  501    0  0.00000000000E+00  0.00000000000E+00  0.34781825566E+03  0.34781825566E+03  0.00000000000E+00 0. -1.
         -1   -1    0    0    0  501 -0.00000000000E+00 -0.00000000000E+00 -0.15189306969E+03  0.15189306969E+03  0.00000000000E+00 0.  1.
         25    2    1    2    0    0 -0.19146216519E+03  0.50671541839E+02  0.54255873234E+02  0.24045042893E+03  0.12508934064E+03 0.  0.
          5    1    3    3  502    0 -0.12315170549E+03  0.81982550432E+02  0.57056540530E+00  0.14800432117E+03  0.41800000000E+01 0.  1.
         -5    1    3    3    0  502 -0.68310459702E+02 -0.31311008593E+02  0.53685307829E+02  0.92446107763E+02  0.41800000000E+01 0.  1.
        -11    1    1    2    0    0  0.44632754157E+02 -0.40710412504E+02  0.78639574947E+02  0.99164525803E+02  0.00000000000E+00 0.  1.
         11    1    1    2    0    0  0.14682941103E+03 -0.99611293348E+01  0.63029737788E+02  0.16009637062E+03  0.00000000000E+00 0. -1.
</event>
<event>
 7    1  0.2522928E-009  0.6087818E+02  0.7561462E-02  0.1394183E+00
         -2   -1    0    0    0  501 -0.00000000000E+00  0.00000000000E+00  0.20362836000E+03  0.20362836000E+03  0.00000000000E+00 0.  1.
          2   -1    0    0  501    0  0.00000000000E+00 -0.00000000000E+00 -0.91798293507E+02  0.91798293507E+02  0.00000000000E+00 0. -1.
         25    2    1    2    0    0 -0.23387622109E+02 -0.16930978018E+02  0.15186207255E+03  0.19885437307E+03  0.12508930300E+03 0.  0.
          5    1    3    3  502    0 -0.23302634117E+02 -0.92965523381E+01  0.17359228414E+03  0.17544569575E+03  0.41800000000E+01 0. -1.
         -5    1    3    3    0  502 -0.84987992000E-01 -0.76344256796E+01 -0.21730211590E+02  0.23408677327E+02  0.41800000000E+01 0. -1.
        -11    1    1    2    0    0  0.31091338161E+02 -0.28114773013E+02 -0.22912023646E+02  0.47771043507E+02  0.00000000000E+00 0.  1.
         11    1    1    2    0    0 -0.77037160520E+01  0.45045751030E+02 -0.17119982420E+02  0.48801236920E+02  0.00000000000E+00 0. -1.
</event>
<event>
 7    1  0.2522928E-009  0.2412027E+03  0.7561462E-02  0.1118994E+00
          2   -1    0    0  501    0  0.00000000000E+00  0.00000000000E+00  0.27059382145E+03  0.27059382145E+03  0.00000000000E+00 0. -1.
         -2   -1    0    0    0  501 -0.00000000000E+00 -0.00000000000E+00 -0.25338923573E+03  0.25338923573E+03  0.00000000000E+00 0.  1.
         25    2    1    2    0    0  0.18421373850E+03 -0.13642606611E+03 -0.56232116557E+02  0.26712549945E+03  0.12508880269E+03 0.  0.
          5    1    3    3  502    0  0.17313759798E+03 -0.73016862196E+02 -0.10865436111E+02  0.18826476065E+03  0.41800000000E+01 0.  1.
         -5    1    3    3    0  502  0.11076140517E+02 -0.63409203910E+02 -0.45366680446E+02  0.78860738799E+02  0.41800000000E+01 0.  1.
        -11    1    1    2    0    0 -0.12954188626E+03  0.10598960562E+03  0.98803579165E+01  0.16766788085E+03  0.00000000000E+00 0.  1.
         11    1    1    2    0    0 -0.54671852241E+02  0.30436460487E+02  0.63556344354E+02  0.89189676881E+02  0.00000000000E+00 0. -1.
</event>
<event>
 7    1  0.2522928E-009  0.9984418E+02  0.7561462E-02  0.1280624E+00
         -2   -1    0    0    0  501 -0.00000000000E+00  0.00000000000E+00  0.20846570552E+02  0.20846570552E+02  0.00000000000E+00 0. -1.
          2   -1    0    0  501    0  0.00000000000E+00 -0.00000000000E+00 -0.79281177764E+03  0.79281177764E+03  0.00000000000E+00 0.  1.
         25    2    1    2    0    0 -0.13947257469E+02  0.57872383001E+02 -0.32439432203E+03  0.35273683415E+03  0.12509140375E+03 0.  0.
          5    1    3    3  502    0 -0.35215281817E+02  0.57966950383E+02 -0.32400901989E+03  0.33105830420E+03  0.41800000000E+01 0. -1.
         -5    1    3    3    0  502  0.21268024348E+02 -0.94567382008E-01 -0.38530213786E+00  0.21678529941E+02  0.41800000000E+01 0. -1.
        -11    1    1    2    0    0  0.46220732479E+02 -0.62203898761E+02 -0.30740628474E+03  0.31702413951E+03  0.00000000000E+00 0.  1.
         11    1    1    2    0    0 -0.32273475010E+02  0.43315157604E+01 -0.14016460032E+03  0.14389737454E+03  0.00000000000E+00 0. -1.
</event>
<event>
 7    1  0.2522928E-009  0.6845131E+02  0.7561462E-02  0.1365440E+00
          2   -1    0    0  501    0  0.00000000000E+00  0.00000000000E+00  0.72066134620E+02  0.72066134620E+02  0.00000000000E+00 0.  1.
         -2   -1    0    0    0  501 -0.00000000000E+00 -0.00000000000E+00 -0.18568526730E+03  0.18568526730E+03  0.00000000000E+00 0. -1.
         25    2    1    2    0    0 -0.69517891893E+01 -0.39912464582E+02 -0.81967423471E+02  0.15494283785E+03  0.12508913738E+03 0.  0.
          5    1    3    3  502    0  0.34717338761E+02  0.28455944644E+01 -0.88052130587E+02  0.94784181799E+02  0.41800000000E+01 0. -1.
         -5    1    3    3    0  502 -0.41669127950E+02 -0.42758059046E+02  0.60847071155E+01  0.60158656054E+02  0.41800000000E+01 0. -1.
        -11    1    1    2    0    0  0.71961444116E+01  0.11570148178E+02 -0.60707684682E+02  0.62217970094E+02  0.00000000000E+00 0. -1.
         11    1    1    2    0    0 -0.24435522234E+00  0.28342316404E+02  0.29055975471E+02  0.40590593974E+02  0.00000000000E+00 0.  1.
</event>
<event>
 7    1  0.2522928E-009  0.1167047E+03  0.7561462E-02  0.1248634E+00
         -2   -1    0    0    0  501 -0.00000000000E+00  0.00000000000E+00  0.22412344234E+02  0.22412344234E+02  0.00000000000E+00 0.  1.
          2   -1    0    0  501    0  0.00000000000E+00 -0.00000000000E+00 -0.79835639494E+03  0.79835639494E+03  0.00000000000E+00 0. -1.
         25    2    1    2    0    0  0.59093909882E+01 -0.66226127046E+02 -0.29470819181E+03  0.32698519191E+03  0.12508227934E+03 0.  0.
          5    1    3    3  502    0  0.43041009926E+02  0.57014758371E+01 -0.38217547914E+02  0.57992143698E+02  0.41800000000E+01 0.  1.
         -5    1    3    3    0  502 -0.37131618938E+02 -0.71927602883E+02 -0.25649064390E+03  0.26899304821E+03  0.41800000000E+01 0.  1.
        -11    1    1    2    0    0 -0.42937739318E+02  0.14902127763E+02 -0.15784246960E+03  0.16425580075E+03  0.00000000000E+00 0.  1.
         11    1    1    2    0    0  0.37028348330E+02  0.51323999284E+02 -0.32339338930E+03  0.32952774652E+03  0.00000000000E+00 0. -1.
</event>
<event>
 7    1  0.2522928E-009  0.1823563E+03  0.7561462E-02  0.1165542E+00
         -1   -1    0    0    0  501 -0.00000000000E+00  0.00000000000E+00  0.32324316249E+03  0.32324316249E+03  0.00000000000E+00 0.  1.
          1   -1    0    0  501    0  0.00000000000E+00 -0.00000000000E+00 -0.24424597101E+03  0.24424597101E+03  0.00000000000E+00 0. -1.
         25    2    1    2    0    0  0.13031901566E+03  0.10388737243E+03  0.24050002184E+03  0.31821803007E+03  0.12508725819E+03 0.  0.
          5    1    3    3  502    0  0.49812567214E+02  0.97415104334E+02  0.71236161869E+02  0.13062563899E+03  0.41800000000E+01 0. -1.
         -5    1    3    3    0  502  0.80506448448E+02  0.64722680951E+01  0.16926385997E+03  0.18759239107E+03  0.41800000000E+01 0. -1.
        -11    1    1    2    0    0 -0.68955085604E+02 -0.22736850185E+02 -0.20592838527E+02  0.75470743905E+02  0.00000000000E+00 0.  1.
         11    1    1    2    0    0 -0.61363930059E+02 -0.81150522244E+02 -0.14090999184E+03  0.17380035953E+03  0.00000000000E+00 0. -1.
</event>
<event>
 7    1  0.2522928E-009  0.1354246E+03  0.7561462E-02  0.1219622E+00
          1   -1    0    0  501    0  0.00000000000E+00  0.00000000000E+00  0.99281659481E+02  0.99281659481E+02  0.00000000000E+00 0. -1.
         -1   -1    0    0    0  501 -0.00000000000E+00 -0.00000000000E+00 -0.24256377507E+03  0.24256377507E+03  0.00000000000E+00 0.  1.
         25    2    1    2    0    0 -0.34692019060E+01  0.10581057912E+03 -0.10397061570E+03  0.19407507530E+03  0.12508929573E+03 0.  0.
          5    1    3    3  502    0  0.34705816735E+02  0.45150618507E+02 -0.10800174779E+03  0.12216759797E+03  0.41800000000E+01 0.  1.
         -5    1    3    3    0  502 -0.38175018641E+02  0.60659960617E+02  0.40311320943E+01  0.71907477332E+02  0.41800000000E+01 0.  1.
        -11    1    1    2    0    0  0.36345018787E+02 -0.10268760570E+03 -0.35284244865E+02  0.11450188947E+03  0.00000000000E+00 0.  1.
         11    1    1    2    0    0 -0.32875816882E+02 -0.31229734209E+01 -0.40272550226E+01  0.33268469782E+02  0.00000000000E+00 0. -1.
</event>
<event>
 7    1  0.2522928E-009  0.1086566E+03  0.7561462E-02  0.1263078E+00
         -2   -1    0    0    0  501 -0.00000000000E+00  0.00000000000E+00  0.34393120423E+02  0.34393120423E+02  0.00000000000E+00 0.  1.
          2   -1    0    0  501    0  0.00000000000E+00 -0.00000000000E+00 -0.11185278384E+04  0.11185278384E+04  0.00000000000E+00 0. -1.
         25    2    1    2    0    0  0.31179441224E+02 -0.71742630723E+01 -0.10318313468E+04  0.10398785355E+04  0.12509121753E+03 0.  0.
          5    1    3    3  502    0 -0.16725612724E+02  0.50631789903E+02 -0.38724818494E+03  0.39092448556E+03  0.41800000000E+01 0.  1.
         -5    1    3    3    0  502  0.47905053948E+02 -0.57806052975E+02 -0.64458316188E+03  0.64895404994E+03  0.41800000000E+01 0.  1.
        -11    1    1    2    0    0 -0.50643902716E+02  0.29821525276E+02 -0.75700500038E+01  0.59257353208E+02  0.00000000000E+00 0. -1.
         11    1    1    2    0    0  0.19464461492E+02 -0.22647262204E+02 -0.44733321176E+02  0.53785070140E+02  0.00000000000E+00 0.  1.
</event>
<event>
 7    1  0.2522928E-009  0.1086354E+03  0.7561462E-02  0.1263118E+00
          2   -1    0    0  501    0  0.00000000000E+00  0.00000000000E+00  0.19910688436E+03  0.19910688436E+03  0.00000000000E+00 0. -1.
         -2   -1    0    0    0  501 -0.00000000000E+00 -0.00000000000E+00 -0.82143029476E+02  0.82143029476E+02  0.00000000000E+00 0.  1.
         25    2    1    2    0    0  0.48934544839E+02 -0.47171019160E+02  0.75118567030E+02  0.16096542699E+03  0.12508946737E+03 0.  0.
          5    1    3    3  502    0  0.40588289702E+02 -0.69359810324E+02  0.98645734497E+02  0.12730532543E+03  0.41800000000E+01 0. -1.
         -5    1    3    3    0  502  0.83462551369E+01  0.22188791164E+02 -0.23527167467E+02  0.33660101562E+02  0.41800000000E+01 0. -1.
        -11    1    1    2    0    0  0.26613625675E+02  0.15589987947E+02  0.12956145975E+02  0.33454364652E+02  0.00000000000E+00 0.  1.
         11    1    1    2    0    0 -0.75548170514E+02  0.31581031212E+02  0.28889141876E+02  0.86830122185E+02  0.00000000000E+00 0. -1.
</event>
<event>
 7    1  0.2522928E-009  0.1099789E+03  0.7561462E-02  0.1260609E+00
          4   -1    0    0  501    0  0.00000000000E+00  0.00000000000E+00  0.19785748129E+03  0.19785748129E+03  0.00000000000E+00 0. -1.
         -4   -1    0    0    0  501 -0.00000000000E+00 -0.00000000000E+00 -0.71914250233E+02  0.71914250233E+02  0.00000000000E+00 0.  1.
         25    2    1    2    0    0  0.35342582753E+02  0.34253240072E+02  0.61445405955E+02  0.14780386959E+03  0.12509221935E+03 0.  0.
          5    1    3    3  502    0  0.75391149633E+02 -0.45321040613E+01  0.20096594849E+02  0.78266921076E+02  0.41800000000E+01 0.  1.
         -5    1    3    3    0  502 -0.40048566880E+02  0.38785344133E+02  0.41348811106E+02  0.69536948513E+02  0.41800000000E+01 0.  1.
        -11    1    1    2    0    0 -0.38312087545E+01  0.22859415964E+02  0.50052202856E+02  0.55158445133E+02  0.00000000000E+00 0. -1.
         11    1    1    2    0    0 -0.31511373999E+02 -0.57112656036E+02  0.14445622242E+02  0.66809416797E+02  0.00000000000E+00 0.  1.
</event>
<event>
 7    1  0.2522928E-009  0.1097068E+03  0.7561462E-02  0.1261114E+00
         -3   -1    0    0    0  501 -0.00000000000E+00  0.00000000000E+00  0.73436315152E+02  0.73436315152E+02  0.00000000000E+00 0.  1.
          3   -1    0    0  501    0  0.00000000000E+00 -0.00000000000E+00 -0.19869988796E+03  0.19869988796E+03  0.00000000000E+00 0. -1.
         25    2    1    2    0    0  0.14237671430E+02 -0.10112067464E+01 -0.14957790062E+02  0.12678902118E+03  0.12509191253E+03 0.  0.
          5    1    3    3  502    0  0.45209708608E+02 -0.49457151872E+02  0.35501185599E+00  0.67138111808E+02  0.41800000000E+01 0. -1.
         -5    1    3    3    0  502 -0.30972037179E+02  0.48445945126E+02 -0.15312801918E+02  0.59650909370E+02  0.41800000000E+01 0. -1.
        -11    1    1    2    0    0 -0.31696956384E+02  0.40511198049E+02 -0.58308245336E+02  0.77754136132E+02  0.00000000000E+00 0.  1.
         11    1    1    2    0    0  0.17459284955E+02 -0.39499991303E+02 -0.51997537405E+02  0.67593045798E+02  0.00000000000E+00 0. -1.
</event>
<event>
 7    1  0.2566564E-009  0.8762893E+02  0.7561462E-02  0.1308697E+00
         -2   -1    0    0    0  501 -0.00000000000E+00  0.00000000000E+00  0.32224007163E+02  0.32224007163E+02  0.00000000000E+00 0.  1.
          2   -1    0    0  501    0  0.00000000000E+00 -0.00000000000E+00 -0.99222087395E+03  0.99222087395E+03  0.00000000000E+00 0. -1.
         25    2    1    2    0    0  0.29141446209E+02  0.31843883958E+02 -0.89348097113E+03  0.90322451945E+03  0.12507209894E+03 0.  0.
          5    1    3    3  502    0  0.35999921373E+02 -0.42913471910E+02 -0.43656455542E+03  0.44016320139E+03  0.41800000000E+01 0. -1.
         -5    1    3    3    0  502 -0.68584751638E+01  0.74757355869E+02 -0.45691641571E+03  0.46306131806E+03  0.41800000000E+01 0. -1.
        -11    1    1    2    0    0 -0.14724733369E+02 -0.10267642253E+02 -0.86578368761E+02  0.88419772605E+02  0.00000000000E+00 0. -1.
         11    1    1    2    0    0 -0.14416712840E+02 -0.21576241706E+02  0.20062473106E+02  0.32800589055E+02  0.00000000000E+00 0.  1.
</event>
<event>
 7    1  0.2522928E-009  0.9865908E+02  0.7561462E-02  0.1283141E+00
          1   -1    0    0  501    0  0.00000000000E+00  0.00000000000E+00  0.51773102788E+03  0.51773102788E+03  0.00000000000E+00 0. -1.
         -1   -1    0    0    0  501 -0.00000000000E+00 -0.00000000000E+00 -0.20650799491E+02  0.20650799491E+02  0.00000000000E+00 0.  1.
         25    2    1    2    0    0  0.11711502996E+02  0.56089313813E+02  0.26679491480E+03  0.30018290722E+03  0.12508829201E+03 0.  0.
          5    1    3    3  502    0  0.24821427444E+02  0.93918879729E+02  0.19379448332E+03  0.21681935660E+03  0.41800000000E+01 0. -1.
         -5    1    3    3    0  502 -0.13109924447E+02 -0.37829565916E+02  0.73000431481E+02  0.83363550625E+02  0.41800000000E+01 0. -1.
        -11    1    1    2    0    0 -0.93447404672E+01 -0.10023678008E+02  0.73607620041E+02  0.74872424986E+02  0.00000000000E+00 0.  1.
         11    1    1    2    0    0 -0.23667625292E+01 -0.46065635805E+02  0.15667769355E+03  0.16332649516E+03  0.00000000000E+00 0. -1.
</event>
<event>
 7    1  0.2522928E-009  0.1516942E+03  0.7561462E-02  0.1198407E+00
          2   -1    0    0  501    0  0.00000000000E+00  0.00000000000E+00  0.47332348756E+03  0.47332348756E+03  0.00000000000E+00 0. -1.
         -2   -1    0    0    0  501 -0.00000000000E+00 -0.00000000000E+00 -0.20846404155E+03  0.20846404155E+03  0.00000000000E+00 0.  1.
         25    2    1    2    0    0  0.59552415284E+02  0.11005531958E+03 -0.15464224008E+03  0.23498755870E+03  0.12508503823E+03 0.  0.
          5    1    3    3  502    0  0.65877172741E+02  0.35989220714E+02 -0.14894942145E+02  0.76644357897E+02  0.41800000000E+01 0. -1.
         -5    1    3    3    0  502 -0.63247574571E+01  0.74066098868E+02 -0.13974729794E+03  0.15834320080E+03  0.41800000000E+01 0. -1.
        -11    1    1    2    0    0 -0.80796378240E+02 -0.64138671729E+02  0.27737977919E+03  0.29594149059E+03  0.00000000000E+00 0. -1.
         11    1    1    2    0    0  0.21243962956E+02 -0.45916647853E+02  0.14212190690E+03  0.15085847982E+03  0.00000000000E+00 0.  1.
</event>
<event>
 7    1  0.2522928E-009  0.1632992E+03  0.7561462E-02  0.1185022E+00
         -2   -1    0    0    0  501 -0.00000000000E+00  0.00000000000E+00  0.10452388486E+03  0.10452388486E+03  0.00000000000E+00 0. -1.
          2   -1    0    0  501    0  0.00000000000E+00 -0.00000000000E+00 -0.36070360922E+03  0.36070360922E+03  0.00000000000E+00 0.  1.
         25    2    1    2    0    0 -0.11650221467E+03 -0.11176178683E+03 -0.14394665391E+03  0.24986293117E+03  0.12508949669E+03 0.  0.
          5    1    3    3  502    0 -0.92887743243E+02 -0.72340495920E+02 -0.22488795800E+02  0.11993539315E+03  0.41800000000E+01 0. -1.
         -5    1    3    3    0  502 -0.23614471427E+02 -0.39421290907E+02 -0.12145785811E+03  0.12992753801E+03  0.41800000000E+01 0. -1.
        -11    1    1    2    0    0  0.24630592662E+02  0.13343745092E+02 -0.68172537311E+02  0.73703571633E+02  0.00000000000E+00 0.  1.
         11    1    1    2    0    0  0.91871622009E+02  0.98418041734E+02 -0.44060533141E+02  0.14166099128E+03  0.00000000000E+00 0. -1.
</event>
<event>
 7    1  0.2806073E-009  0.1751124E+03  0.7561462E-02  0.1172619E+00
         -2   -1    0    0    0  501 -0.00000000000E+00  0.00000000000E+00  0.17101228158E+02  0.17101228158E+02  0.00000000000E+00 0.  1.
          2   -1    0    0  501    0  0.00000000000E+00 -0.00000000000E+00 -0.22092382416E+04  0.22092382416E+04  0.00000000000E+00 0. -1.
         25    2    1    2    0    0  0.32276727034E+02  0.15103129809E+03 -0.14032140154E+04  0.14172194568E+04  0.12509666449E+03 0.  0.
          5    1    3    3  502    0 -0.34040696416E+02  0.55957896972E+02 -0.81750415569E+03  0.82013448423E+03  0.41800000000E+01 0.  1.
         -5    1    3    3    0  502  0.66317423450E+02  0.95073401118E+02 -0.58570985972E+03  0.59708497254E+03  0.41800000000E+01 0.  1.
        -11    1    1    2    0    0 -0.53576076906E+02 -0.11108653748E+03 -0.68115665829E+03  0.69223190331E+03  0.00000000000E+00 0.  1.
         11    1    1    2    0    0  0.21299349871E+02 -0.39944760610E+02 -0.10776633972E+03  0.11688810967E+03  0.00000000000E+00 0. -1.
</event>
<event>
 7    1  0.2522928E-009  0.1085456E+03  0.7561462E-02  0.1263287E+00
         -1   -1    0    0    0  501 -0.00000000000E+00  0.00000000000E+00  0.63213804241E+02  0.63213804241E+02  0.00000000000E+00 0.  1.
          1   -1    0    0  501    0  0.00000000000E+00 -0.00000000000E+00 -0.26000152757E+03  0.26000152757E+03  0.00000000000E+00 0. -1.
         25    2    1    2    0    0  0.67686524078E+02  0.26482305451E+02 -0.11330047277E+03  0.18375932654E+03  0.12509082667E+03 0.  0.
          5    1    3    3  502    0  0.54143110437E+02 -0.24319720344E+02 -0.11661008184E+03  0.13091336369E+03  0.41800000000E+01 0.  1.
         -5    1    3    3    0  502  0.13543413642E+02  0.50802025795E+02  0.33096090691E+01  0.52845962855E+02  0.41800000000E+01 0.  1.
        -11    1    1    2    0    0 -0.78610332466E+01  0.24821605698E+02 -0.20329974955E+01  0.26115915300E+02  0.00000000000E+00 0.  1.
         11    1    1    2    0    0 -0.59825490832E+02 -0.51303911149E+02 -0.81454253066E+02  0.11334008997E+03  0.00000000000E+00 0. -1.
</event>
<event>
 7    1  0.2522928E-009  0.1213151E+03  0.7561462E-02  0.1240943E+00
          3   -1    0    0  501    0  0.00000000000E+00  0.00000000000E+00  0.14025163042E+03  0.14025163042E+03  0.00000000000E+00 0. -1.
         -3   -1    0    0    0  501 -0.00000000000E+00 -0.00000000000E+00 -0.17915752926E+03  0.17915752926E+03  0.00000000000E+00 0.  1.
         25    2    1    2    0    0  0.63365326842E+02  0.76267575863E+02 -0.66270216927E+02  0.17283186750E+03  0.12508878845E+03 0.  0.
          5    1    3    3  502    0  0.10387677492E+02  0.23890780115E+02 -0.90589386618E+02  0.94353498006E+02  0.41800000000E+01 0.  1.
         -5    1    3    3    0  502  0.52977649350E+02  0.52376795749E+02  0.24319169691E+02  0.78478369491E+02  0.41800000000E+01 0.  1.
        -11    1    1    2    0    0 -0.30311527131E+02 -0.97661434245E+02  0.31470936384E+02  0.10699048674E+03  0.00000000000E+00 0.  1.
         11    1    1    2    0    0 -0.33053799711E+02  0.21393858381E+02 -0.41066182936E+01  0.39586805448E+02  0.00000000000E+00 0. -1.
</event>
<event>
 7    1  0.2522928E-009  0.6564297E+02  0.7561462E-02  0.1375569E+00
          1   -1    0    0  501    0  0.00000000000E+00  0.00000000000E+00  0.50876346529E+02  0.50876346529E+02  0.00000000000E+00 0. -1.
         -1   -1    0    0    0  501 -0.00000000000E+00 -0.00000000000E+00 -0.25076371509E+03  0.25076371509E+03  0.00000000000E+00 0.  1.
         25    2    1    2    0    0 -0.22542239066E+02  0.18773410372E+02 -0.11068460172E+03  0.16958716023E+03  0.12509248729E+03 0.  0.
          5    1    3    3  502    0 -0.35466487231E+02  0.21609817437E+02  0.14080995058E+02  0.44052272904E+02  0.41800000000E+01 0.  1.
         -5    1    3    3    0  502  0.12924248165E+02 -0.28364070650E+01 -0.12476559678E+03  0.12553488732E+03  0.41800000000E+01 0.  1.
        -11    1    1    2    0    0 -0.25318455133E+02 -0.85926953695E+01 -0.77160270408E+02  0.81661287729E+02  0.00000000000E+00 0.  1.
         11    1    1    2    0    0  0.47860694199E+02 -0.10180715002E+02 -0.12042496431E+02  0.50391613662E+02  0.00000000000E+00 0. -1.
</event>
<event>
 7    1  0.2522928E-009  0.1926388E+03  0.7561462E-02  0.1156103E+00
          2   -1    0    0  501    0  0.00000000000E+00  0.00000000000E+00  0.24989653916E+03  0.24989653916E+03  0.00000000000E+00 0.  1.
         -2   -1    0    0    0  501 -0.00000000000E+00 -0.00000000000E+00 -0.16735290429E+03  0.16735290429E+03  0.00000000000E+00 0. -1.
         25    2    1    2    0    0 -0.10321189806E+03  0.12619652788E+03  0.10291226669E+03  0.22982145385E+03  0.12509478993E+03 0.  0.
          5    1    3    3  502    0 -0.43581048334E+02 -0.17776882609E+02  0.39271887544E+02  0.61441670553E+02  0.41800000000E+01 0. -1.
         -5    1    3    3    0  502 -0.59630849729E+02  0.14397341049E+03  0.63640379143E+02  0.16837978330E+03  0.41800000000E+01 0. -1.
        -11    1    1    2    0    0  0.36271989256E+02 -0.10627411198E+03  0.67735685962E+01  0.11249766803E+03  0.00000000000E+00 0.  1.
         11    1    1    2    0    0  0.66939908807E+02 -0.19922415902E+02 -0.27142200406E+02  0.74930321562E+02  0.00000000000E+00 0. -1.
</event>
<event>
 7    1  0.2522928E-009  0.8692076E+02  0.7561462E-02  0.1310485E+00
          1   -1    0    0  501    0  0.00000000000E+00  0.00000000000E+00  0.57867158796E+02  0.57867158796E+02  0.00000000000E+00 0. -1.
         -1   -1    0    0    0  501 -0.00000000000E+00 -0.00000000000E+00 -0.20684089143E+03  0.20684089143E+03  0.00000000000E+00 0.  1.
         25    2    1    2    0    0 -0.39422928499E+02 -0.36278805205E+01 -0.95369050087E+02  0.16220467635E+03  0.12509105686E+03 0.  0.
          5    1    3    3  502    0  0.14925387992E+02 -0.45807593227E+02 -0.76914918040E+02  0.90854167879E+02  0.41800000000E+01 0. -1.
         -5    1    3    3    0  502 -0.54348316490E+02  0.42179712706E+02 -0.18454132047E+02  0.71350508470E+02  0.41800000000E+01 0. -1.
        -11    1    1    2    0    0 -0.24964154844E+01 -0.11671865976E+02  0.15915330284E+02  0.19893774998E+02  0.00000000000E+00 0. -1.
         11    1    1    2    0    0  0.41919343983E+02  0.15299746497E+02 -0.69520012831E+02  0.82609598879E+02  0.00000000000E+00 0.  1.
</event>
<event>
 7    1  0.2522928E-009  0.7492801E+02  0.7561462E-02  0.1344094E+00
          2   -1    0    0  501    0  0.00000000000E+00  0.00000000000E+00  0.58343048578E+02  0.58343048578E+02  0.00000000000E+00 0. -1.
         -2   -1    0    0    0  501 -0.00000000000E+00 -0.00000000000E+00 -0.33462026690E+03  0.33462026690E+03  0.00000000000E+00 0.  1.
         25    2    1    2    0    0 -0.38117794906E+02 -0.28296443451E+02 -0.25277527439E+03  0.28598591069E+03  0.12505577463E+03 0.  0.
          5    1    3    3  502    0 -0.41339946772E+02 -0.37815430761E+02 -0.31436195248E+02  0.64379381594E+02  0.41800000000E+01 0. -1.
         -5    1    3    3    0  502  0.32221518663E+01  0.95189873100E+01 -0.22133907914E+03  0.22160652909E+03  0.41800000000E+01 0. -1.
        -11    1    1    2    0    0  0.55180761601E+02  0.71880619162E+01 -0.45625996628E+02  0.71960518712E+02  0.00000000000E+00 0.  1.
         11    1    1    2    0    0 -0.17062966695E+02  0.21108381534E+02  0.22124052691E+02  0.35016886082E+02  0.00000000000E+00 0. -1.
</event>
<event>
 7    1  0.2522928E-009  0.1073431E+03  0.7561462E-02  0.1265571E+00
         -1   -1    0    0    0  501 -0.00000000000E+00  0.00000000000E+00  0.10401428032E+02  0.10401428032E+02  0.00000000000E+00 0.  1.
          1   -1    0    0  501    0  0.00000000000E+00 -0.00000000000E+00 -0.18712719036E+04  0.18712719036E+04  0.00000000000E+00 0. -1.
         25    2    1    2    0    0  0.12649761234E+02 -0.38982477817E+02 -0.15420943928E+04  0.15477021380E+04  0.12508853490E+03 0.  0.
          5    1    3    3  502    0 -0.49975230080E+02 -0.27880156615E+02 -0.43406292037E+03  0.43783891786E+03  0.41800000000E+01 0.  1.
         -5    1    3    3    0  502  0.62624991314E+02 -0.11102321202E+02 -0.11080314725E+04  0.11098632202E+04  0.41800000000E+01 0.  1.
        -11    1    1    2    0    0  0.31644403017E+02  0.37748408670E+02 -0.22394508599E+03  0.22929830383E+03  0.00000000000E+00 0.  1.
         11    1    1    2    0    0 -0.44294164251E+02  0.12340691462E+01 -0.94830996728E+02  0.10467288977E+03  0.00000000000E+00 0. -1.
</event>
<event>
 7    1  0.2522928E-009  0.1159777E+03  0.7561462E-02  0.1249884E+00
          1   -1    0    0  501    0  0.00000000000E+00  0.00000000000E+00  0.12219356732E+04  0.12219356732E+04  0.00000000000E+00 0. -1.
         -1   -1    0    0    0  501 -0.00000000000E+00 -0.00000000000E+00 -0.12626877332E+02  0.12626877332E+02  0.00000000000E+00 0.  1.
         25    2    1    2    0    0 -0.43503808271E+02  0.36316158122E+02  0.79416631563E+03  0.80594555140E+03  0.12504659242E+03 0.  0.
          5    1    3    3  502    0 -0.89583568192E+01  0.79666850626E+02  0.41085654625E+03  0.41862588697E+03  0.41800000000E+01 0.  1.
         -5    1    3    3    0  502 -0.34545451452E+02 -0.43350692504E+02  0.38330976938E+03  0.38731966443E+03  0.41800000000E+01 0.  1.
        -11    1    1    2    0    0  0.59651288623E+02 -0.37863188703E+01  0.33933885204E+03  0.34456272136E+03  0.00000000000E+00 0. -1.
         11    1    1    2    0    0 -0.16147480351E+02 -0.32529839251E+02  0.75803628217E+02  0.84054277787E+02  0.00000000000E+00 0.  1.
</event>
<event>
 7    1  0.2522928E-009  0.1523317E+03  0.7561462E-02  0.1197637E+00
          4   -1    0    0  501    0  0.00000000000E+00  0.00000000000E+00  0.11884340969E+03  0.11884340969E+03  0.00000000000E+00 0. -1.
         -4   -1    0    0    0  501 -0.00000000000E+00 -0.00000000000E+00 -0.22557286833E+03  0.22557286833E+03  0.00000000000E+00 0.  1.
         25    2    1    2    0    0 -0.11079089937E+03 -0.47228456313E+02 -0.32810545903E+02  0.17671821485E+03  0.12509054747E+03 0.  0.
          5    1    3    3  502    0  0.17376123279E+02 -0.21370318451E+02  0.21385037012E+02  0.35119971226E+02  0.41800000000E+01 0.  1.
         -5    1    3    3    0  502 -0.12816702265E+03 -0.25858137862E+02 -0.54195582915E+02  0.14159824362E+03  0.41800000000E+01 0.  1.
        -11    1    1    2    0    0  0.86089652349E+02  0.71087482313E+02 -0.37832245047E+02  0.11788187795E+03  0.00000000000E+00 0.  1.
         11    1    1    2    0    0  0.24701247022E+02 -0.23859026000E+02 -0.36086667684E+02  0.49816185228E+02  0.00000000000E+00 0. -1.
</event>
<event>
 7    1  0.2522928E-009  0.9346974E+02  0.7561462E-02  0.1294660E+00
         -3   -1    0    0    0  501 -0.00000000000E+00  0.00000000000E+00  0.34050965212E+03  0.34050965212E+03  0.00000000000E+00 0.  1.
          3   -1    0    0  501    0  0.00000000000E+00 -0.00000000000E+00 -0.38934871651E+02  0.38934871651E+02  0.00000000000E+00 0. -1.
         25    2    1    2    0    0  0.34280492409E+02  0.21789340531E+02  0.20237448138E+03  0.24135457965E+03  0.12508666948E+03 0.  0.
          5    1    3    3  502    0  0.49578331946E+02  0.56344961726E+02  0.66837406586E+02  0.10058567010E+03  0.41800000000E+01 0.  1.
         -5    1    3    3    0  502 -0.15297839537E+02 -0.34555621195E+02  0.13553707480E+03  0.14076890955E+03  0.41800000000E+01 0.  1.
        -11    1    1    2    0    0 -0.49806372625E+02 -0.37462882374E+01  0.10253579108E+03  0.11405392532E+03  0.00000000000E+00 0.  1.
         11    1    1    2    0    0  0.15525880216E+02 -0.18043052293E+02 -0.33354919983E+01  0.24036018793E+02  0.00000000000E+00 0. -1.
</event>
<event>
 7    1  0.2522928E-009  0.1614963E+03  0.7561462E-02  0.1187018E+00
          1   -1    0    0  501    0  0.00000000000E+00  0.00000000000E+00  0.11943694036E+04  0.11943694036E+04  0.00000000000E+00 0. -1.
         -1   -1    0    0    0  501 -0.00000000000E+00 -0.00000000000E+00 -0.24138191980E+02  0.24138191980E+02  0.00000000000E+00 0.  1.
         25    2    1    2    0    0  0.10725976366E+03  0.58906450547E+02  0.46408193024E+03  0.49597781563E+03  0.12508928333E+03 0.  0.
          5    1    3    3  502    0  0.12826577403E+03  0.22408094586E+02  0.31171043016E+03  0.33783886124E+03  0.41800000000E+01 0.  1.
         -5    1    3    3    0  502 -0.21006010371E+02  0.36498355960E+02  0.15237150008E+03  0.15813895439E+03  0.41800000000E+01 0.  1.
        -11    1    1    2    0    0  0.67748587062E+01  0.13649537601E+02  0.39942150175E+02  0.42750250851E+02  0.00000000000E+00 0. -1.
         11    1    1    2    0    0 -0.11403462237E+03 -0.72555988148E+02  0.66620713118E+03  0.67977952908E+03  0.00000000000E+00 0.  1.
</event>
<event>
 7    1  0.2522928E-009  0.1058365E+03  0.7561462E-02  0.1268480E+00
          1   -1    0    0  501    0  0.00000000000E+00  0.00000000000E+00  0.48743549691E+03  0.48743549691E+03  0.00000000000E+00 0. -1.
         -1   -1    0    0    0  501 -0.00000000000E+00 -0.00000000000E+00 -0.41111701889E+02  0.41111701889E+02  0.00000000000E+00 0.  1.
         25    2    1    2    0    0  0.88026718745E+02 -0.27363229344E+01  0.22406545320E+03  0.27130898232E+03  0.12508815250E+03 0.  0.
          5    1    3    3  502    0  0.96867195626E+02  0.18554698920E+02  0.84955883201E+02  0.13024018171E+03  0.41800000000E+01 0.  1.
         -5    1    3    3    0  502 -0.88404768802E+01 -0.21291021855E+02  0.13910957000E+03  0.14106880062E+03  0.41800000000E+01 0.  1.
        -11    1    1    2    0    0 -0.41333694273E+02 -0.67467456119E+01  0.14862473922E+02  0.44439689352E+02  0.00000000000E+00 0.  1.
         11    1    1    2    0    0 -0.46693024473E+02  0.94830685463E+01  0.20739586790E+03  0.21279852712E+03  0.00000000000E+00 0. -1.
</event>
<event>
 7    1  0.2688569E-009  0.2181351E+03  0.7561462E-02  0.1135281E+00
          1   -1    0    0  501    0  0.00000000000E+00  0.00000000000E+00  0.93319376209E+03  0.93319376209E+03  0.00000000000E+00 0. -1.
         -1   -1    0    0    0  501 -0.00000000000E+00 -0.00000000000E+00 -0.71687099426E+02  0.71687099426E+02  0.00000000000E+00 0.  1.
         25    2    1    2    0    0  0.20362501888E+03  0.38470552497E+02  0.65595103571E+03  0.69918697169E+03  0.12509008115E+03 0.  0.
          5    1    3    3  502    0  0.17541463129E+03  0.47001760211E+02  0.64027565760E+03  0.66554477569E+03  0.41800000000E+01 0.  1.
         -5    1    3    3    0  502  0.28210387583E+02 -0.85312077146E+01  0.15675378120E+02  0.33642196002E+02  0.41800000000E+01 0.  1.
        -11    1    1    2    0    0 -0.50167982579E+02 -0.50170740764E+02  0.49471367615E+02  0.86494773938E+02  0.00000000000E+00 0. -1.
         11    1    1    2    0    0 -0.15345703630E+03  0.11700188267E+02  0.15608425933E+03  0.21919911588E+03  0.00000000000E+00 0.  1.
</event>
<event>
 7    1  0.2522928E-009  0.2840241E+03  0.7561462E-02  0.1093511E+00
         -2   -1    0    0    0  501 -0.00000000000E+00  0.00000000000E+00  0.24927574467E+03  0.24927574467E+03  0.00000000000E+00 0.  1.
          2   -1    0    0  501    0  0.00000000000E+00 -0.00000000000E+00 -0.42730546926E+03  0.42730546926E+03  0.00000000000E+00 0. -1.
         25    2    1    2    0    0 -0.22531105586E+03  0.14834580267E+03 -0.24371883023E+03  0.38447369289E+03  0.12509837428E+03 0.  0.
          5    1    3    3  502    0 -0.21452152331E+03  0.85724770892E+02 -0.16878931079E+03  0.28613899445E+03  0.41800000000E+01 0. -1.
         -5    1    3    3    0  502 -0.10789532559E+02  0.62621031775E+02 -0.74929519440E+02  0.98334698438E+02  0.41800000000E+01 0. -1.
        -11    1    1    2    0    0  0.60098956539E+02 -0.64079213557E+02  0.60322756977E+02  0.10656859386E+03  0.00000000000E+00 0.  1.
         11    1    1    2    0    0  0.16521209933E+03 -0.84266589110E+02  0.53663486713E+01  0.18553892719E+03  0.00000000000E+00 0. -1.
</event>
<event>
 7    1  0.2522928E-009  0.9430498E+02  0.7561462E-02  0.1292749E+00
          1   -1    0    0  501    0  0.00000000000E+00  0.00000000000E+00  0.41055781990E+03  0.41055781990E+03  0.00000000000E+00 0. -1.
         -1   -1    0    0    0  501 -0.00000000000E+00 -0.00000000000E+00 -0.36776062557E+02  0.36776062557E+02  0.00000000000E+00 0.  1.
         25    2    1    2    0    0  0.39106249176E+02  0.64276502513E+01  0.13373117926E+03  0.18735611264E+03  0.12509065203E+03 0.  0.
          5    1    3    3  502    0  0.59297149957E+02 -0.31132997952E+02  0.12746911535E+03  0.14405298790E+03  0.41800000000E+01 0. -1.
         -5    1    3    3    0  502 -0.20190900781E+02  0.37560648203E+02  0.62620639063E+01  0.43303124739E+02  0.41800000000E+01 0. -1.
        -11    1    1    2    0    0 -0.31563386748E+02  0.28742027229E+02  0.46542295110E+02  0.63154863204E+02  0.00000000000E+00 0.  1.
         11    1    1    2    0    0 -0.75428624284E+01 -0.35169677480E+02  0.19350828297E+03  0.19682290661E+03  0.00000000000E+00 0. -1.
</event>
<event>
 7    1  0.2522928E-009  0.1060495E+03  0.7561462E-02  0.1268065E+00
          1   -1    0    0  501    0  0.00000000000E+00  0.00000000000E+00  0.95810024226E+02  0.95810024226E+02  0.00000000000E+00 0. -1.
         -1   -1    0    0    0  501 -0.00000000000E+00 -0.00000000000E+00 -0.17669989797E+03  0.17669989797E+03  0.00000000000E+00 0.  1.
         25    2    1    2    0    0  0.12673848906E+02  0.31292388109E+02  0.20196162235E+02  0.13113133532E+03  0.12509077557E+03 0.  0.
          5    1    3    3  502    0 -0.23322492188E+02 -0.41762580371E+02  0.78263551847E+01  0.48649522059E+02  0.41800000000E+01 0.  1.
         -5    1    3    3    0  502  0.35996341094E+02  0.73054968480E+02  0.12369807050E+02  0.82481813258E+02  0.41800000000E+01 0.  1.
        -11    1    1    2    0    0  0.28210906715E+02 -0.30632958647E+02 -0.89758393514E+02  0.98948484674E+02  0.00000000000E+00 0.  1.
         11    1    1    2    0    0 -0.40884755621E+02 -0.65942946178E+00 -0.11327642468E+02  0.42430102207E+02  0.00000000000E+00 0. -1.
</event>
<event>
 7    1  0.2522928E-009  0.9655510E+02  0.7561462E-02  0.1287712E+00
          1   -1    0    0  501    0  0.00000000000E+00  0.00000000000E+00  0.42149035533E+03  0.42149035533E+03  0.00000000000E+00 0. -1.
         -1   -1    0    0    0  501 -0.00000000000E+00 -0.00000000000E+00 -0.34802241064E+02  0.34802241064E+02  0.00000000000E+00 0.  1.
         25    2    1    2    0    0 -0.49619418115E+00  0.75439675446E+00  0.11488462714E+03  0.16984691193E+03  0.12509468660E+03 0.  0.
          5    1    3    3  502    0 -0.52016760849E+02  0.13116915589E+02  0.10174829584E+03  0.11509989135E+03  0.41800000000E+01 0.  1.
         -5    1    3    3    0  502  0.51520566668E+02 -0.12362518834E+02  0.13136331309E+02  0.54747020576E+02  0.41800000000E+01 0.  1.
        -11    1    1    2    0    0 -0.38445973639E+02  0.18553737637E+02  0.17820909733E+03  0.18325069288E+03  0.00000000000E+00 0. -1.
         11    1    1    2    0    0  0.38942167820E+02 -0.19308134391E+02  0.93594389794E+02  0.10319499159E+03  0.00000000000E+00 0.  1.
</event>
<event>
 7    1  0.2522928E-009  0.7124414E+02  0.7561462E-02  0.1355913E+00
          2   -1    0    0  501    0  0.00000000000E+00  0.00000000000E+00  0.36795950080E+03  0.36795950080E+03  0.00000000000E+00 0. -1.
         -2   -1    0    0    0  501 -0.00000000000E+00 -0.00000000000E+00 -0.27240067768E+02  0.27240067768E+02  0.00000000000E+00 0.  1.
         25    2    1    2    0    0  0.39753104090E+02  0.34102526628E+01  0.25130147270E+03  0.28353476765E+03  0.12509034807E+03 0.  0.
          5    1    3    3  502    0 -0.47673904967E+01  0.29983809695E+02  0.22145156151E+03  0.22356212415E+03  0.41800000000E+01 0.  1.
         -5    1    3    3    0  502  0.44520494587E+02 -0.26573557032E+02  0.29849911182E+02  0.59972643506E+02  0.41800000000E+01 0.  1.
        -11    1    1    2    0    0 -0.28755378468E+02 -0.23357792163E+02  0.28849658900E+02  0.46954883284E+02  0.00000000000E+00 0.  1.
         11    1    1    2    0    0 -0.10997725622E+02  0.19947539500E+02  0.60568301432E+02  0.64709917627E+02  0.00000000000E+00 0. -1.
</event>
<event>
 7    1  0.2522928E-009  0.1254394E+03  0.7561462E-02  0.1234384E+00
         -3   -1    0    0    0  501 -0.00000000000E+00  0.00000000000E+00  0.78439907686E+02  0.78439907686E+02  0.00000000000E+00 0.  1.
          3   -1    0    0  501    0  0.00000000000E+00 -0.00000000000E+00 -0.29766223558E+03  0.29766223558E+03  0.00000000000E+00 0. -1.
         25    2    1    2    0    0  0.12259562517E+02 -0.10557203741E+03 -0.13270072513E+03  0.21107692832E+03  0.12509290653E+03 0.  0.
          5    1    3    3  502    0 -0.29898882519E+02 -0.90678304023E+02 -0.31949372057E+02  0.10077069401E+03  0.41800000000E+01 0. -1.
         -5    1    3    3    0  502  0.42158445037E+02 -0.14893733385E+02 -0.10075135307E+03  0.11030623431E+03  0.41800000000E+01 0. -1.
        -11    1    1    2    0    0  0.79036231431E+01  0.60620214746E+02 -0.96999226471E+02  0.11465656384E+03  0.00000000000E+00 0. -1.
         11    1    1    2    0    0 -0.20163185661E+02  0.44951822662E+02  0.10477623701E+02  0.50368651114E+02  0.00000000000E+00 0.  1.
</event>
<event>
 7    1  0.2522928E-009  0.1071424E+03  0.7561462E-02  0.1265955E+00
          1   -1    0    0  501    0  0.00000000000E+00  0.00000000000E+00  0.26771032923E+03  0.26771032923E+03  0.00000000000E+00 0. -1.
         -1   -1    0    0    0  501 -0.00000000000E+00 -0.00000000000E+00 -0.50565099733E+02  0.50565099733E+02  0.00000000000E+00 0.  1.
         25    2    1    2    0    0 -0.32996954757E+02  0.71770280780E+01  0.13820140343E+03  0.18943623038E+03  0.12508456625E+03 0.  0.
          5    1    3    3  502    0  0.21408366429E+02  0.49641150702E+02  0.90277843820E+02  0.10530965521E+03  0.41800000000E+01 0.  1.
         -5    1    3    3    0  502 -0.54405321186E+02 -0.42464122624E+02  0.47923559613E+02  0.84126575168E+02  0.41800000000E+01 0.  1.
        -11    1    1    2    0    0  0.73456413460E+01  0.38143535881E+02  0.61387135145E+01  0.39326474288E+02  0.00000000000E+00 0.  1.
         11    1    1    2    0    0  0.25651313411E+02 -0.45320563959E+02  0.72805112551E+02  0.89512724295E+02  0.00000000000E+00 0. -1.
</event>
<event>
 7    1  0.2522928E-009  0.1126678E+03  0.7561462E-02  0.1255708E+00
         -2   -1    0    0    0  501 -0.00000000000E+00  0.00000000000E+00  0.16235727008E+03  0.16235727008E+03  0.00000000000E+00 0.  1.
          2   -1    0    0  501    0  0.00000000000E+00 -0.00000000000E+00 -0.11242481917E+03  0.11242481917E+03  0.00000000000E+00 0. -1.
         25    2    1    2    0    0 -0.53184836136E+02  0.55664508400E+02  0.52593002740E+02  0.15601562022E+03  0.12509070919E+03 0.  0.
          5    1    3    3  502    0 -0.59502960656E+02  0.15583327373E+01 -0.21963977230E+02  0.63583955708E+02  0.41800000000E+01 0.  1.
         -5    1    3    3    0  502  0.63181245196E+01  0.54106175663E+02  0.74556979970E+02  0.92431664512E+02  0.41800000000E+01 0.  1.
        -11    1    1    2    0    0  0.74141536578E+02 -0.36524163220E+02 -0.20615447648E+02  0.85182032301E+02  0.00000000000E+00 0.  1.
         11    1    1    2    0    0 -0.20956700442E+02 -0.19140345180E+02  0.17954895812E+02  0.33584436733E+02  0.00000000000E+00 0. -1.
</event>
<event>
 7    1  0.2522928E-009  0.1102247E+03  0.7561462E-02  0.1260154E+00
         -2   -1    0    0    0  501 -0.00000000000E+00  0.00000000000E+00  0.11022125016E+02  0.11022125016E+02  0.00000000000E+00 0.  1.
          2   -1    0    0  501    0  0.00000000000E+00 -0.00000000000E+00 -0.16615596419E+04  0.16615596419E+04  0.00000000000E+00 0. -1.
         25    2    1    2    0    0 -0.92518198179E+01 -0.55460044563E+02 -0.12543024082E+04  0.12617775444E+04  0.12508648034E+03 0.  0.
          5    1    3    3  502    0  0.50875165659E+02 -0.50896702458E+02 -0.84025693994E+03  0.84334331937E+03  0.41800000000E+01 0. -1.
         -5    1    3    3    0  502 -0.60126985477E+02 -0.45633421055E+01 -0.41404546828E+03  0.41843422503E+03  0.41800000000E+01 0. -1.
        -11    1    1    2    0    0  0.27433473981E+02 -0.21415202942E+01 -0.34839807496E+02  0.44395875824E+02  0.00000000000E+00 0.  1.
         11    1    1    2    0    0 -0.18181654163E+02  0.57601564858E+02 -0.36139530121E+03  0.36640834674E+03  0.00000000000E+00 0. -1.
</event>
<event>
 7    1  0.2522928E-009  0.1205894E+03  0.7561462E-02  0.1242128E+00
          2   -1    0    0  501    0  0.00000000000E+00  0.00000000000E+00  0.10391696300E+04  0.10391696300E+04  0.00000000000E+00 0. -1.
         -2   -1    0    0    0  501 -0.00000000000E+00 -0.00000000000E+00 -0.18328878485E+02  0.18328878485E+02  0.00000000000E+00 0.  1.
         25    2    1    2    0    0 -0.57800462452E+02  0.22574248039E+01  0.79384727653E+03  0.80572162949E+03  0.12509139198E+03 0.  0.
          5    1    3    3  502    0 -0.50362866787E+02 -0.56880872065E+02  0.37573592765E+03  0.38336250689E+03  0.41800000000E+01 0. -1.
         -5    1    3    3    0  502 -0.74375956650E+01  0.59138296869E+02  0.41811134888E+03  0.42235912260E+03  0.41800000000E+01 0. -1.
        -11    1    1    2    0    0  0.26609557074E+02  0.42885580503E+02  0.14108332727E+03  0.14983906959E+03  0.00000000000E+00 0. -1.
         11    1    1    2    0    0  0.31190905378E+02 -0.45143005307E+02  0.85910147747E+02  0.10193780944E+03  0.00000000000E+00 0.  1.
</event>
<event>
 7    1  0.2522928E-009  0.6932516E+02  0.7561462E-02  0.1362403E+00
         -1   -1    0    0    0  501 -0.00000000000E+00  0.00000000000E+00  0.13032762862E+03  0.13032762862E+03  0.00000000000E+00 0.  1.
          1   -1    0    0  501    0  0.00000000000E+00 -0.00000000000E+00 -0.93004312917E+02  0.93004312917E+02  0.00000000000E+00 0. -1.
         25    2    1    2    0    0 -0.23167714298E+02 -0.26177531456E+01  0.15714456197E+02  0.12820973181E+03  0.12508875081E+03 0.  0.
          5    1    3    3  502    0  0.32280167183E+02  0.47535370494E+01 -0.38197886489E+02  0.50409882365E+02  0.41800000000E+01 0. -1.
         -5    1    3    3    0  502 -0.55447881481E+02 -0.73712901950E+01  0.53912342687E+02  0.77799849446E+02  0.41800000000E+01 0. -1.
        -11    1    1    2    0    0  0.26068774640E+02  0.19486724077E+02  0.51356681557E+02  0.60801498066E+02  0.00000000000E+00 0.  1.
         11    1    1    2    0    0 -0.29010603426E+01 -0.16868970931E+02 -0.29747822057E+02  0.34320711655E+02  0.00000000000E+00 0. -1.
</event>
<event>
 7    1  0.2932154E-009  0.1430867E+03  0.7561462E-02  0.1209235E+00
          2   -1    0    0  501    0  0.00000000000E+00  0.00000000000E+00  0.45842407199E+03  0.45842407199E+03  0.00000000000E+00 0. -1.
         -2   -1    0    0    0  501 -0.00000000000E+00 -0.00000000000E+00 -0.56648822172E+02  0.56648822172E+02  0.00000000000E+00 0.  1.
         25    2    1    2    0    0 -0.11355284831E+03  0.34807419127E+02  0.20440841967E+03  0.26746004570E+03  0.12508504397E+03 0.  0.
          5    1    3    3  502    0 -0.11843069875E+03  0.52331227118E+02  0.21106067600E+03  0.24764585418E+03  0.41800000000E+01 0.  1.
         -5    1    3    3    0  502  0.48778504353E+01 -0.17523807991E+02 -0.66522563271E+01  0.19814191521E+02  0.41800000000E+01 0.  1.
        -11    1    1    2    0    0  0.40478418327E+02 -0.48966109181E+02  0.44432861620E+02  0.77527165499E+02  0.00000000000E+00 0.  1.
         11    1    1    2    0    0  0.73074429983E+02  0.14158690055E+02  0.15293396853E+03  0.17008568297E+03  0.00000000000E+00 0. -1.
</event>
<event>
 7    1  0.2522928E-009  0.1084883E+03  0.7561462E-02  0.1263395E+00
         -2   -1    0    0    0  501 -0.00000000000E+00  0.00000000000E+00  0.60023237560E+02  0.60023237560E+02  0.00000000000E+00 0. -1.
          2   -1    0    0  501    0  0.00000000000E+00 -0.00000000000E+00 -0.33918454963E+03  0.33918454963E+03  0.00000000000E+00 0.  1.
         25    2    1    2    0    0 -0.72598637843E+02 -0.21433858254E+02 -0.23075507045E+03  0.27317614293E+03  0.12508928824E+03 0.  0.
          5    1    3    3  502    0 -0.82003617592E+02  0.30603086089E+02 -0.17781071579E+03  0.19823033377E+03  0.41800000000E+01 0.  1.
         -5    1    3    3    0  502  0.94049797491E+01 -0.52036944344E+02 -0.52944354668E+02  0.74945809168E+02  0.41800000000E+01 0.  1.
        -11    1    1    2    0    0  0.44559649034E+02  0.82375594003E+01  0.21057909163E+02  0.49968542556E+02  0.00000000000E+00 0. -1.
         11    1    1    2    0    0  0.28038988809E+02  0.13196298854E+02 -0.69464150782E+02  0.76063101703E+02  0.00000000000E+00 0.  1.
</event>
<event>
 7    1  0.2522928E-009  0.1331856E+03  0.7561462E-02  0.1222804E+00
          1   -1    0    0  501    0  0.00000000000E+00  0.00000000000E+00  0.45708366984E+02  0.45708366984E+02  0.00000000000E+00 0. -1.
         -1   -1    0    0    0  501 -0.00000000000E+00 -0.00000000000E+00 -0.69537310734E+03  0.69537310734E+03  0.00000000000E+00 0.  1.
         25    2    1    2    0    0  0.42077218646E+01 -0.11488512826E+03 -0.50772238395E+03  0.53539390859E+03  0.12509324749E+03 0.  0.
          5    1    3    3  502    0 -0.52484138755E+00 -0.12800685264E+03 -0.50446856855E+03  0.52047289923E+03  0.41800000000E+01 0. -1.
         -5    1    3    3    0  502  0.47325632521E+01  0.13121724377E+02 -0.32538154040E+01  0.14921009357E+02  0.41800000000E+01 0. -1.
        -11    1    1    2    0    0  0.18635970373E+02  0.26191308346E+02 -0.99837138779E+02  0.10488440449E+03  0.00000000000E+00 0.  1.
         11    1    1    2    0    0 -0.22843692238E+02  0.88693819918E+02 -0.42105217625E+02  0.10080316125E+03  0.00000000000E+00 0. -1.
</event>
<event>
 7    1  0.2522928E-009  0.7622235E+02  0.7561462E-02  0.1340127E+00
         -2   -1    0    0    0  501 -0.00000000000E+00  0.00000000000E+00  0.13767581060E+03  0.13767581060E+03  0.00000000000E+00 0. -1.
          2   -1    0    0  501    0  0.00000000000E+00 -0.00000000000E+00 -0.90437684476E+02  0.90437684476E+02  0.00000000000E+00 0.  1.
         25    2    1    2    0    0 -0.16982807290E+02  0.77866021710E+01  0.83938814070E+01  0.12675716470E+03  0.12509146510E+03 0.  0.
          5    1    3    3  502    0  0.26188008126E+02 -0.75318615052E+01  0.54845505797E+02  0.61384384117E+02  0.41800000000E+01 0. -1.
         -5    1    3    3    0  502 -0.43170815416E+02  0.15318463676E+02 -0.46451624390E+02  0.65372780586E+02  0.41800000000E+01 0. -1.
        -11    1    1    2    0    0  0.22156518537E+02 -0.40281984329E+02  0.48734897274E+02  0.66997311793E+02  0.00000000000E+00 0. -1.
         11    1    1    2    0    0 -0.51737112466E+01  0.32495382158E+02 -0.98906525576E+01  0.34359018579E+02  0.00000000000E+00 0.  1.
</event>
<event>
 7    1  0.2522928E-009  0.8854463E+02  0.7561462E-02  0.1306415E+00
         -2   -1    0    0    0  501 -0.00000000000E+00  0.00000000000E+00  0.63038900723E+02  0.63038900723E+02  0.00000000000E+00 0.  1.
          2   -1    0    0  501    0  0.00000000000E+00 -0.00000000000E+00 -0.23744112523E+03  0.23744112523E+03  0.00000000000E+00 0. -1.
         25    2    1    2    0    0 -0.47672276253E+02  0.13687334740E+02 -0.72139844194E+02  0.15268019341E+03  0.12508834992E+03 0.  0.
          5    1    3    3  502    0 -0.78513171288E+02 -0.94992727395E+01 -0.10569092333E+02  0.79898262566E+02  0.41800000000E+01 0. -1.
         -5    1    3    3    0  502  0.30840895035E+02  0.23186607480E+02 -0.61570751861E+02  0.72781930846E+02  0.41800000000E+01 0. -1.
        -11    1    1    2    0    0  0.15184248620E+02  0.10601424289E+02 -0.10549443348E+03  0.10710754922E+03  0.00000000000E+00 0. -1.
         11    1    1    2    0    0  0.32488027633E+02 -0.24288759030E+02  0.32320531670E+01  0.40692283327E+02  0.00000000000E+00 0.  1.
</event>
<event>
 7    1  0.2692693E-009  0.8994822E+02  0.7561462E-02  0.1302977E+00
         -1   -1    0    0    0  501 -0.00000000000E+00  0.00000000000E+00  0.42503785821E+02  0.42503785821E+02  0.00000000000E+00 0.  1.
          1   -1    0    0  501    0  0.00000000000E+00 -0.00000000000E+00 -0.39776770428E+03  0.39776770428E+03  0.00000000000E+00 0. -1.
         25    2    1    2    0    0  0.50637277052E+01 -0.40146473450E+02 -0.29674637454E+03  0.32456617059E+03  0.12508959836E+03 0.  0.
          5    1    3    3  502    0 -0.48277743238E+02  0.16717419128E+02 -0.14709332144E+03  0.15576947777E+03  0.41800000000E+01 0. -1.
         -5    1    3    3    0  502  0.53341470943E+02 -0.56863892578E+02 -0.14965305311E+03  0.16879669282E+03  0.41800000000E+01 0. -1.
        -11    1    1    2    0    0 -0.17766787409E+02  0.26581972127E+02 -0.80678827079E+02  0.86783253660E+02  0.00000000000E+00 0. -1.
         11    1    1    2    0    0  0.12703059704E+02  0.13564501323E+02  0.22161283161E+02  0.28922065855E+02  0.00000000000E+00 0.  1.
</event>
<event>
 7    1  0.2522928E-009  0.1051941E+03  0.7561462E-02  0.1269738E+00
          1   -1    0    0  501    0  0.00000000000E+00  0.00000000000E+00  0.20984015499E+03  0.20984015499E+03  0.00000000000E+00 0. -1.
         -1   -1    0    0    0  501 -0.00000000000E+00 -0.00000000000E+00 -0.86354671203E+02  0.86354671203E+02  0.00000000000E+00 0.  1.
         25    2    1    2    0    0  0.10859857915E+02  0.33962789604E+02  0.14648797337E+03  0.19590647507E+03  0.12509681467E+03 0.  0.
          5    1    3    3  502    0 -0.52065090845E+02 -0.88200991450E+01  0.48928517975E+02  0.72111303586E+02  0.41800000000E+01 0.  1.
         -5    1    3    3    0  502  0.62924948760E+02  0.42782888749E+02  0.97559455397E+02  0.12379517149E+03  0.41800000000E+01 0.  1.
        -11    1    1    2    0    0  0.26420647071E+02  0.54301185856E+01 -0.35544686405E+02  0.44620191743E+02  0.00000000000E+00 0.  1.
         11    1    1    2    0    0 -0.37280504986E+02 -0.39392908190E+02  0.12542196823E+02  0.55668159381E+02  0.00000000000E+00 0. -1.
</event>
<event>
 7    1  0.2522928E-009  0.2016573E+03  0.7561462E-02  0.1148348E+00
         -1   -1    0    0    0  501 -0.00000000000E+00  0.00000000000E+00  0.50678714564E+02  0.50678714564E+02  0.00000000000E+00 0.  1.
          1   -1    0    0  501    0  0.00000000000E+00 -0.00000000000E+00 -0.90651560605E+03  0.90651560605E+03  0.00000000000E+00 0. -1.
         25    2    1    2    0    0  0.12869141496E+03  0.11526539150E+03 -0.30220149397E+03  0.36989320570E+03  0.12509056679E+03 0.  0.
          5    1    3    3  502    0  0.12839621445E+02  0.93116005970E+02 -0.11491865931E+03  0.14852345641E+03  0.41800000000E+01 0. -1.
         -5    1    3    3    0  502  0.11585179351E+03  0.22149385526E+02 -0.18728283466E+03  0.22136974929E+03  0.41800000000E+01 0. -1.
        -11    1    1    2    0    0 -0.24771451124E+02 -0.76291726160E+02 -0.29810579631E+03  0.30870879169E+03  0.00000000000E+00 0.  1.
         11    1    1    2    0    0 -0.10391996383E+03 -0.38973665337E+02 -0.25552960121E+03  0.27859232324E+03  0.00000000000E+00 0. -1.
</event>
<event>
 7    1  0.2522928E-009  0.8058556E+02  0.7561462E-02  0.1327398E+00
         -1   -1    0    0    0  501 -0.00000000000E+00  0.00000000000E+00  0.32618048206E+03  0.32618048206E+03  0.00000000000E+00 0.  1.
          1   -1    0    0  501    0  0.00000000000E+00 -0.00000000000E+00 -0.38851251839E+02  0.38851251839E+02  0.00000000000E+00 0. -1.
         25    2    1    2    0    0  0.39022633721E+01 -0.24449636849E+02  0.13498271311E+03  0.18569204543E+03  0.12509272758E+03 0.  0.
          5    1    3    3  502    0  0.32658141247E+02 -0.14884908366E+02 -0.10020747621E+02  0.37496699450E+02  0.41800000000E+01 0. -1.
         -5    1    3    3    0  502 -0.28755877875E+02 -0.95647284828E+01  0.14500346074E+03  0.14819534597E+03  0.41800000000E+01 0. -1.
        -11    1    1    2    0    0  0.40618474195E+02  0.28682825889E+02  0.85641016609E+02  0.99030039244E+02  0.00000000000E+00 0. -1.
         11    1    1    2    0    0 -0.44520737567E+02 -0.42331890403E+01  0.66705500497E+02  0.80309649230E+02  0.00000000000E+00 0.  1.
</event>
<event>
 7    1  0.2522928E-009  0.1000616E+03  0.7561462E-02  0.1280166E+00
          1   -1    0    0  501    0  0.00000000000E+00  0.00000000000E+00  0.70413058626E+02  0.70413058626E+02  0.00000000000E+00 0. -1.
         -1   -1    0    0    0  501 -0.00000000000E+00 -0.00000000000E+00 -0.24697734081E+03  0.24697734081E+03  0.00000000000E+00 0.  1.
         25    2    1    2    0    0  0.50253693455E+02  0.33438318116E+02 -0.50036279723E+02  0.14762948357E+03  0.12508908947E+03 0.  0.
          5    1    3    3  502    0  0.90883720096E+02  0.34005736416E+02 -0.27352231282E+02  0.10090519136E+03  0.41800000000E+01 0.  1.
         -5    1    3    3    0  502 -0.40630026641E+02 -0.56741830014E+00 -0.22684048441E+02  0.46724292205E+02  0.41800000000E+01 0.  1.
        -11    1    1    2    0    0 -0.26569841567E+02 -0.88428371914E+01 -0.13221317291E+03  0.13514612589E+03  0.00000000000E+00 0.  1.
         11    1    1    2    0    0 -0.23683851888E+02 -0.24595480924E+02  0.56851704558E+01  0.34614789979E+02  0.00000000000E+00 0. -1.
</event>
<event>
 7    1  0.2522928E-009  0.1104567E+03  0.7561462E-02  0.1259727E+00
         -4   -1    0    0    0  501 -0.00000000000E+00  0.00000000000E+00  0.73468921222E+02  0.73468921222E+02  0.00000000000E+00 0.  1.
          4   -1    0    0  501    0  0.00000000000E+00 -0.00000000000E+00 -0.28221616004E+03  0.28221616004E+03  0.00000000000E+00 0. -1.
         25    2    1    2    0    0  0.78838291013E+02  0.30345921960E+02 -0.63447412473E+02  0.16373876026E+03  0.12509379023E+03 0.  0.
          5    1    3    3  502    0  0.70872794014E+02  0.80553671340E+01 -0.98224258666E+02  0.12146324243E+03  0.41800000000E+01 0.  1.
         -5    1    3    3    0  502  0.79654969991E+01  0.22290554826E+02  0.34776846194E+02  0.42275517833E+02  0.41800000000E+01 0.  1.
        -11    1    1    2    0    0 -0.99978303948E+02 -0.20297163669E+02 -0.11810416887E+03  0.15606482890E+03  0.00000000000E+00 0. -1.
         11    1    1    2    0    0  0.21140012935E+02 -0.10048758291E+02 -0.27195657476E+02  0.35881492104E+02  0.00000000000E+00 0.  1.
</event>
<event>
 7    1  0.2522928E-009  0.1523099E+03  0.7561462E-02  0.1197663E+00
         -1   -1    0    0    0  501 -0.00000000000E+00  0.00000000000E+00  0.15606393367E+03  0.15606393367E+03  0.00000000000E+00 0.  1.
          1   -1    0    0  501    0  0.00000000000E+00 -0.00000000000E+00 -0.30745203061E+03  0.30745203061E+03  0.00000000000E+00 0. -1.
         25    2    1    2    0    0  0.10219709459E+03  0.95616901656E+02 -0.21540252904E+03  0.28571380006E+03  0.12508912026E+03 0.  0.
          5    1    3    3  502    0  0.14552082370E+02  0.46225568602E+02 -0.16710190149E+03  0.17403759414E+03  0.41800000000E+01 0. -1.
         -5    1    3    3    0  502  0.87645012216E+02  0.49391333054E+02 -0.48300627552E+02  0.11167620592E+03  0.41800000000E+01 0. -1.
        -11    1    1    2    0    0  0.64545287069E+01 -0.24724691008E+02  0.37512619477E+02  0.45389072543E+02  0.00000000000E+00 0.  1.
         11    1    1    2    0    0 -0.10865162329E+03 -0.70892210647E+02  0.26501812629E+02  0.13241309168E+03  0.00000000000E+00 0. -1.
</event>
<event>
 7    1  0.2522928E-009  0.1010523E+03  0.7561462E-02  0.1278099E+00
          1   -1    0    0  501    0  0.00000000000E+00  0.00000000000E+00  0.33985297997E+02  0.33985297997E+02  0.00000000000E+00 0. -1.
         -1   -1    0    0    0  501 -0.00000000000E+00 -0.00000000000E+00 -0.41958542821E+03  0.41958542821E+03  0.00000000000E+00 0.  1.
         25    2    1    2    0    0  0.36858788561E+02  0.18114301577E+02 -0.27016214722E+03  0.30053677723E+03  0.12509224781E+03 0.  0.
          5    1    3    3  502    0  0.95303435497E+00 -0.36936683516E+02 -0.20763223433E+02  0.42588856653E+02  0.41800000000E+01 0. -1.
         -5    1    3    3    0  502  0.35905754206E+02  0.55050985093E+02 -0.24939892379E+03  0.25794792058E+03  0.41800000000E+01 0. -1.
        -11    1    1    2    0    0 -0.56477648541E+02 -0.40348150395E+02 -0.91949928244E+02  0.11520628164E+03  0.00000000000E+00 0. -1.
         11    1    1    2    0    0  0.19618859980E+02  0.22233848818E+02 -0.23488054747E+02  0.37827667334E+02  0.00000000000E+00 0.  1.
</event>
<event>
 7    1  0.2522928E-009  0.1198905E+03  0.7561462E-02  0.1243278E+00
         -2   -1    0    0    0  501 -0.00000000000E+00  0.00000000000E+00  0.19058623922E+03  0.19058623922E+03  0.00000000000E+00 0.  1.
          2   -1    0    0  501    0  0.00000000000E+00 -0.00000000000E+00 -0.13119685613E+03  0.13119685613E+03  0.00000000000E+00 0. -1.
         25    2    1    2    0    0  0.86438786762E+02 -0.90755022540E+01  0.10748396472E+03  0.18642277061E+03  0.12508644265E+03 0.  0.
          5    1    3    3  502    0 -0.19377196982E+02  0.31787772687E+02  0.37862362665E+02  0.53263206455E+02  0.41800000000E+01 0.  1.
         -5    1    3    3    0  502  0.10581598374E+03 -0.40863274941E+02  0.69621602053E+02  0.13315956416E+03  0.41800000000E+01 0.  1.
        -11    1    1    2    0    0 -0.73044277132E+02  0.76821658315E+00  0.11293619350E+02  0.73916185078E+02  0.00000000000E+00 0.  1.
         11    1    1    2    0    0 -0.13394509630E+02  0.83072856708E+01 -0.59388200971E+02  0.61444139656E+02  0.00000000000E+00 0. -1.
</event>
<event>
 7    1  0.2522928E-009  0.7843354E+02  0.7561462E-02  0.1333557E+00
          1   -1    0    0  501    0  0.00000000000E+00  0.00000000000E+00  0.41311275877E+02  0.41311275877E+02  0.00000000000E+00 0. -1.
         -1   -1    0    0    0  501 -0.00000000000E+00 -0.00000000000E+00 -0.29172600938E+03  0.29172600938E+03  0.00000000000E+00 0.  1.
         25    2    1    2    0    0 -0.60678651519E+01 -0.90793983878E+01 -0.16408978858E+03  0.20662039039E+03  0.12508905846E+03 0.  0.
          5    1    3    3  502    0  0.42867908796E+02 -0.77615023346E+01 -0.10007604719E+02  0.44894577348E+02  0.41800000000E+01 0. -1.
         -5    1    3    3    0  502 -0.48935773948E+02 -0.13178960532E+01 -0.15408218386E+03  0.16172581304E+03  0.41800000000E+01 0. -1.
        -11    1    1    2    0    0 -0.25131484673E+02 -0.10390174843E+02  0.52827723039E+01  0.27702977067E+02  0.00000000000E+00 0. -1.
         11    1    1    2    0    0  0.31199349825E+02  0.19469573231E+02 -0.91607717225E+02  0.98713917795E+02  0.00000000000E+00 0.  1.
</event>
<event>
 7    1  0.2522928E-009  0.8973742E+02  0.7561462E-02  0.1303489E+00
          2   -1    0    0  501    0  0.00000000000E+00  0.00000000000E+00  0.71954545081E+03  0.71954545081E+03  0.00000000000E+00 0. -1.
         -2   -1    0    0    0  501 -0.00000000000E+00 -0.00000000000E+00 -0.20237767350E+02  0.20237767350E+02  0.00000000000E+00 0.  1.
         25    2    1    2    0    0  0.17209514064E+01 -0.39304450467E+02  0.48283062097E+03  0.50032066554E+03  0.12509020074E+03 0.  0.
          5    1    3    3  502    0  0.13823046566E+02  0.18397734045E+02  0.12944433052E+02  0.26731703676E+02  0.41800000000E+01 0.  1.
         -5    1    3    3    0  502 -0.12102095159E+02 -0.57702184512E+02  0.46988618792E+03  0.47358896187E+03  0.41800000000E+01 0.  1.
        -11    1    1    2    0    0  0.30596968391E+01  0.67909724944E+02  0.18273332791E+03  0.19496810410E+03  0.00000000000E+00 0. -1.
         11    1    1    2    0    0 -0.47806482455E+01 -0.28605274478E+02  0.33743734577E+02  0.44494448516E+02  0.00000000000E+00 0.  1.
</event>
<event>
 7    1  0.2522928E-009  0.1455497E+03  0.7561462E-02  0.1206051E+00
         -2   -1    0    0    0  501 -0.00000000000E+00  0.00000000000E+00  0.83669692678E+02  0.83669692678E+02  0.00000000000E+00 0.  1.
          2   -1    0    0  501    0  0.00000000000E+00 -0.00000000000E+00 -0.36182282857E+03  0.36182282857E+03  0.00000000000E+00 0. -1.
         25    2    1    2    0    0 -0.11462247282E+03  0.67921943255E+02 -0.11749514053E+03  0.21726538762E+03  0.12508972364E+03 0.  0.
          5    1    3    3  502    0 -0.78122411939E+02  0.16603547614E+01 -0.11789292995E+03  0.14149941115E+03  0.41800000000E+01 0. -1.
         -5    1    3    3    0  502 -0.36500060879E+02  0.66261588494E+02  0.39778941801E+00  0.75765976469E+02  0.41800000000E+01 0. -1.
        -11    1    1    2    0    0  0.70751901174E+02 -0.23257327640E+02 -0.24562720419E+02  0.78422331278E+02  0.00000000000E+00 0.  1.
         11    1    1    2    0    0  0.43870571643E+02 -0.44664615616E+02 -0.13609527494E+03  0.14980480235E+03  0.00000000000E+00 0. -1.
</event>
<event>
 7    1  0.2522928E-009  0.1364875E+03  0.7561462E-02  0.1218135E+00
          2   -1    0    0  501    0  0.00000000000E+00  0.00000000000E+00  0.51903207370E+03  0.51903207370E+03  0.00000000000E+00 0. -1.
         -2   -1    0    0    0  501 -0.00000000000E+00 -0.00000000000E+00 -0.42960196581E+02  0.42960196581E+02  0.00000000000E+00 0.  1.
         25    2    1    2    0    0  0.84569656351E+02  0.40150847150E+02  0.18171428647E+03  0.23964974346E+03  0.12509116809E+03 0.  0.
          5    1    3    3  502    0  0.10325286268E+03  0.66345099244E+02  0.13204354109E+03  0.18032136587E+03  0.41800000000E+01 0.  1.
         -5    1    3    3    0  502 -0.18683206331E+02 -0.26194252094E+02  0.49670745380E+02  0.59328377595E+02  0.41800000000E+01 0.  1.
        -11    1    1    2    0    0  0.99639379457E+01  0.69128895356E+01  0.30785655831E+01  0.12511821097E+02  0.00000000000E+00 0.  1.
         11    1    1    2    0    0 -0.94533594296E+02 -0.47063736686E+02  0.29127902507E+03  0.30983070572E+03  0.00000000000E+00 0. -1.
</event>
<event>
 7    1  0.2522928E-009  0.1241062E+03  0.7561462E-02  0.1236473E+00
          2   -1    0    0  501    0  0.00000000000E+00  0.00000000000E+00  0.80737100148E+03  0.80737100148E+03  0.00000000000E+00 0. -1.
         -2   -1    0    0    0  501 -0.00000000000E+00 -0.00000000000E+00 -0.30093231224E+02  0.30093231224E+02  0.00000000000E+00 0.  1.
         25    2    1    2    0    0  0.76887483038E+02  0.50443945390E+02  0.25064280994E+03  0.29483237119E+03  0.12509209510E+03 0.  0.
          5    1    3    3  502    0  0.86653701897E+01  0.48609653580E+02  0.18604917847E+02  0.52930165594E+02  0.41800000000E+01 0. -1.
         -5    1    3    3    0  502  0.68222112848E+02  0.18342918099E+01  0.23203789209E+03  0.24190220560E+03  0.41800000000E+01 0. -1.
        -11    1    1    2    0    0 -0.84610406314E+02 -0.69646255610E+02  0.42420076278E+03  0.43812761717E+03  0.00000000000E+00 0.  1.
         11    1    1    2    0    0  0.77229232759E+01  0.19202310220E+02  0.10243419754E+03  0.10450424435E+03  0.00000000000E+00 0. -1.
</event>
<event>
 7    1  0.2522928E-009  0.1266418E+03  0.7561462E-02  0.1232526E+00
         -1   -1    0    0    0  501 -0.00000000000E+00  0.00000000000E+00  0.20284195681E+03  0.20284195681E+03  0.00000000000E+00 0.  1.
          1   -1    0    0  501    0  0.00000000000E+00 -0.00000000000E+00 -0.13131553020E+03  0.13131553020E+03  0.00000000000E+00 0. -1.
         25    2    1    2    0    0  0.10187852474E+03 -0.44841182886E+02 -0.11879508599E+02  0.16786345343E+03  0.12508817205E+03 0.  0.
          5    1    3    3  502    0  0.30058518309E+02 -0.36197307454E+01  0.53942311432E+02  0.61998889798E+02  0.41800000000E+01 0. -1.
         -5    1    3    3    0  502  0.71820006432E+02 -0.41221452141E+02 -0.65821820031E+02  0.10586456363E+03  0.41800000000E+01 0. -1.
        -11    1    1    2    0    0 -0.94266348422E+02 -0.58064614091E-01  0.73880773823E+02  0.11976859587E+03  0.00000000000E+00 0.  1.
         11    1    1    2    0    0 -0.76121763191E+01  0.44899247500E+02  0.95251613899E+01  0.46525437708E+02  0.00000000000E+00 0. -1.
</event>
<event>
 7    1  0.2522928E-009  0.8473889E+02  0.7561462E-02  0.1316117E+00
         -4   -1    0    0    0  501 -0.00000000000E+00  0.00000000000E+00  0.71939520035E+02  0.71939520035E+02  0.00000000000E+00 0.  1.
          4   -1    0    0  501    0  0.00000000000E+00 -0.00000000000E+00 -0.21278392171E+03  0.21278392171E+03  0.00000000000E+00 0. -1.
         25    2    1    2    0    0 -0.26556565704E+02  0.37089789023E+02 -0.36480827999E+02  0.13805494844E+03  0.12508962525E+03 0.  0.
          5    1    3    3  502    0 -0.23774429314E+02 -0.34631067680E+02  0.19918131309E+02  0.46676961049E+02  0.41800000000E+01 0.  1.
         -5    1    3    3    0  502 -0.27821363894E+01  0.71720856703E+02 -0.56398959308E+02  0.91377987394E+02  0.41800000000E+01 0.  1.
        -11    1    1    2    0    0 -0.38787492778E+01 -0.20181592704E+02 -0.10955598669E+03  0.11146683632E+03  0.00000000000E+00 0. -1.
         11    1    1    2    0    0  0.30435314982E+02 -0.16908196319E+02  0.51924130189E+01  0.35201656975E+02  0.00000000000E+00 0.  1.
</event>
<event>
 7    1  0.2522928E-009  0.1213886E+03  0.7561462E-02  0.1240824E+00
          1   -1    0    0  501    0  0.00000000000E+00  0.00000000000E+00  0.53393434729E+02  0.53393434729E+02  0.00000000000E+00 0. -1.
         -1   -1    0    0    0  501 -0.00000000000E+00 -0.00000000000E+00 -0.57400297679E+03  0.57400297679E+03  0.00000000000E+00 0.  1.
         25    2    1    2    0    0  0.91570461881E+02 -0.27777051163E+02 -0.45822023941E+03  0.48453115309E+03  0.12509171216E+03 0.  0.
          5    1    3    3  502    0 -0.21440628689E+02 -0.25970211968E+02 -0.19663043750E+03  0.19953734943E+03  0.41800000000E+01 0. -1.
         -5    1    3    3    0  502  0.11301109057E+03 -0.18068391943E+01 -0.26158980191E+03  0.28499380366E+03  0.41800000000E+01 0. -1.
        -11    1    1    2    0    0 -0.50067603118E+02  0.13606908753E+02 -0.80209820135E+02  0.95527630002E+02  0.00000000000E+00 0.  1.
         11    1    1    2    0    0 -0.41502858763E+02  0.14170142410E+02  0.17820517484E+02  0.47337628424E+02  0.00000000000E+00 0. -1.
</event>
<event>
 7    1  0.2522928E-009  0.1191259E+03  0.7561462E-02  0.1244546E+00
         -2   -1    0    0    0  501 -0.00000000000E+00  0.00000000000E+00  0.61355818945E+02  0.61355818945E+02  0.00000000000E+00 0.  1.
          2   -1    0    0  501    0  0.00000000000E+00 -0.00000000000E+00 -0.29079385131E+03  0.29079385131E+03  0.00000000000E+00 0. -1.
         25    2    1    2    0    0  0.38195170574E+02  0.56335376025E+02 -0.17594606035E+03  0.22635479558E+03  0.12508769597E+03 0.  0.
          5    1    3    3  502    0  0.24464425443E+02  0.96534173153E+02 -0.12047051863E+03  0.15635847581E+03  0.41800000000E+01 0. -1.
         -5    1    3    3    0  502  0.13730745132E+02 -0.40198797128E+02 -0.55475541717E+02  0.69996319769E+02  0.41800000000E+01 0. -1.
        -11    1    1    2    0    0 -0.56132533363E+00 -0.58210648881E+02  0.25431681612E+01  0.58268880490E+02  0.00000000000E+00 0.  1.
         11    1    1    2    0    0 -0.37633845241E+02  0.18752728556E+01 -0.56035140180E+02  0.67525994186E+02  0.00000000000E+00 0. -1.
</event>
<event>
 7    1  0.2522928E-009  0.9968076E+02  0.7561462E-02  0.1280969E+00
         -1   -1    0    0    0  501 -0.00000000000E+00  0.00000000000E+00  0.28570556928E+02  0.28570556928E+02  0.00000000000E+00 0.  1.
          1   -1    0    0  501    0  0.00000000000E+00 -0.00000000000E+00 -0.41867228212E+03  0.41867228212E+03  0.00000000000E+00 0. -1.
         25    2    1    2    0    0 -0.99435347956E+01 -0.16391340207E+02 -0.24055033700E+03  0.27180641407E+03  0.12508681857E+03 0.  0.
          5    1    3    3  502    0 -0.30907905145E+02 -0.63562434695E+02 -0.10444720580E+03  0.12618309278E+03  0.41800000000E+01 0. -1.
         -5    1    3    3    0  502  0.20964370349E+02  0.47171094488E+02 -0.13610313120E+03  0.14562332129E+03  0.41800000000E+01 0. -1.
        -11    1    1    2    0    0  0.32187932197E+02 -0.17189517706E+02 -0.24233584909E+02  0.43804213674E+02  0.00000000000E+00 0.  1.
         11    1    1    2    0    0 -0.22244397401E+02  0.33580857913E+02 -0.12531780328E+03  0.13163221130E+03  0.00000000000E+00 0. -1.
</event>
<event>
 7    1  0.2522928E-009  0.7078118E+02  0.7561462E-02  0.1357457E+00
         -3   -1    0    0    0  501 -0.00000000000E+00  0.00000000000E+00  0.62089277234E+02  0.62089277234E+02  0.00000000000E+00 0.  1.
          3   -1    0    0  501    0  0.00000000000E+00 -0.00000000000E+00 -0.18734902332E+03  0.18734902332E+03  0.00000000000E+00 0. -1.
         25    2    1    2    0    0 -0.10717769614E+02 -0.54530942902E+01 -0.51665713629E+02  0.13587313417E+03  0.12509019067E+03 0.  0.
          5    1    3    3  502    0  0.36793712683E+02 -0.13506879017E+02 -0.73035086429E+02  0.82992826940E+02  0.41800000000E+01 0. -1.
         -5    1    3    3    0  502 -0.47511482298E+02  0.80537847272E+01  0.21369372800E+02  0.52880307227E+02  0.41800000000E+01 0. -1.
        -11    1    1    2    0    0  0.12621828533E+02  0.28227797612E+02  0.53490925588E+01  0.31380438250E+02  0.00000000000E+00 0.  1.
         11    1    1    2    0    0 -0.19040589185E+01 -0.22774703322E+02 -0.78943125013E+02  0.82184728135E+02  0.00000000000E+00 0. -1.
</event>
<event>
 7    1  0.2522928E-009  0.1205430E+03  0.7561462E-02  0.1242204E+00
         -2   -1    0    0    0  501 -0.00000000000E+00  0.00000000000E+00  0.28275609534E+03  0.28275609534E+03  0.00000000000E+00 0.  1.
          2   -1    0    0  501    0  0.00000000000E+00 -0.00000000000E+00 -0.13754873406E+03  0.13754873406E+03  0.00000000000E+00 0. -1.
         25    2    1    2    0    0  0.83319396491E+02 -0.69922011083E+02  0.20693418013E+03  0.26513954981E+03  0.12508403775E+03 0.  0.
          5    1    3    3  502    0  0.23710027074E+02 -0.29832281852E+02  0.18641121848E+03  0.19031223082E+03  0.41800000000E+01 0. -1.
         -5    1    3    3    0  502  0.59609369417E+02 -0.40089729231E+02  0.20522961651E+02  0.74827318989E+02  0.41800000000E+01 0. -1.
        -11    1    1    2    0    0 -0.79910422551E+02  0.84217785177E+02 -0.72561259117E+02  0.13690671020E+03  0.00000000000E+00 0. -1.
         11    1    1    2    0    0 -0.34089739403E+01 -0.14295774094E+02  0.10834440270E+02  0.18258569392E+02  0.00000000000E+00 0.  1.
</event>
<event>
 7    1  0.2522928E-009  0.1399968E+03  0.7561462E-02  0.1213333E+00
         -2   -1    0    0    0  501 -0.00000000000E+00  0.00000000000E+00  0.46763739049E+02  0.46763739049E+02  0.00000000000E+00 0.  1.
          2   -1    0    0  501    0  0.00000000000E+00 -0.00000000000E+00 -0.52395318632E+03  0.52395318632E+03  0.00000000000E+00 0. -1.
         25    2    1    2    0    0  0.41882375219E+01 -0.93748375755E+02 -0.36865638106E+03  0.40045117388E+03  0.12508923245E+03 0.  0.
          5    1    3    3  502    0  0.25493099047E+02  0.22093260189E+02 -0.47970286810E+02  0.58793120868E+02  0.41800000000E+01 0. -1.
         -5    1    3    3    0  502 -0.21304861525E+02 -0.11584163594E+03 -0.32068609425E+03  0.34165805301E+03  0.41800000000E+01 0. -1.
        -11    1    1    2    0    0  0.74596817189E+01 -0.16065380068E+02 -0.29713426587E+02  0.34592354757E+02  0.00000000000E+00 0. -1.
         11    1    1    2    0    0 -0.11647919241E+02  0.10981375582E+03 -0.78819639626E+02  0.13567339673E+03  0.00000000000E+00 0.  1.
</event>
<event>
 7    1  0.2522928E-009  0.1406173E+03  0.7561462E-02  0.1212501E+00
          2   -1    0    0  501    0  0.00000000000E+00  0.00000000000E+00  0.23932796040E+03  0.23932796040E+03  0.00000000000E+00 0. -1.
         -2   -1    0    0    0  501 -0.00000000000E+00 -0.00000000000E+00 -0.92590863131E+02  0.92590863131E+02  0.00000000000E+00 0.  1.
         25    2    1    2    0    0  0.81562631702E+02 -0.54583678706E+02  0.52901209170E+02  0.16756088637E+03  0.12508505842E+03 0.  0.
          5    1    3    3  502    0  0.81662407212E+02  0.99171612472E+01 -0.25357213634E+01  0.82407530734E+02  0.41800000000E+01 0. -1.
         -5    1    3    3    0  502 -0.99775510004E-01 -0.64500839953E+02  0.55436930533E+02  0.85153355640E+02  0.41800000000E+01 0. -1.
        -11    1    1    2    0    0  0.18200664553E+02  0.23524959209E+02  0.14064421323E+02  0.32901304581E+02  0.00000000000E+00 0.  1.
         11    1    1    2    0    0 -0.99763296255E+02  0.31058719497E+02  0.79771466775E+02  0.13145663257E+03  0.00000000000E+00 0. -1.
</event>
<event>
 7    1  0.2522928E-009  0.1458665E+03  0.7561462E-02  0.1205646E+00
          4   -1    0    0  501    0  0.00000000000E+00  0.00000000000E+00  0.11535154657E+03  0.11535154657E+03  0.00000000000E+00 0. -1.
         -4   -1    0    0    0  501 -0.00000000000E+00 -0.00000000000E+00 -0.22078546135E+03  0.22078546135E+03  0.00000000000E+00 0.  1.
         25    2    1    2    0    0  0.11455379924E+03  0.15185456171E+02 -0.70458518707E+02  0.18429630640E+03  0.12509018624E+03 0.  0.
          5    1    3    3  502    0  0.78103390717E+01  0.48259688006E+02  0.51066016547E+01  0.49331011172E+02  0.41800000000E+01 0. -1.
         -5    1    3    3    0  502  0.10674346017E+03 -0.33074231835E+02 -0.75565120362E+02  0.13496529523E+03  0.41800000000E+01 0. -1.
        -11    1    1    2    0    0 -0.60746280494E+02 -0.38797056734E+02 -0.54016112813E+02  0.90072541036E+02  0.00000000000E+00 0.  1.
         11    1    1    2    0    0 -0.53807518750E+02  0.23611600564E+02  0.19040716735E+02  0.61768160479E+02  0.00000000000E+00 0. -1.
</event>
<event>
 7    1  0.2522928E-009  0.1330469E+03  0.7561462E-02  0.1223003E+00
          1   -1    0    0  501    0  0.00000000000E+00  0.00000000000E+00  0.90281476922E+02  0.90281476922E+02  0.00000000000E+00 0.  1.
         -1   -1    0    0    0  501 -0.00000000000E+00 -0.00000000000E+00 -0.30480706978E+03  0.30480706978E+03  0.00000000000E+00 0. -1.
         25    2    1    2    0    0 -0.11655753945E+03  0.26315699236E+02 -0.68896794606E+02  0.18620430967E+03  0.12508837117E+03 0.  0.
          5    1    3    3  502    0 -0.62901109756E+02  0.56709763232E+02 -0.87312537710E+02  0.12171071644E+03  0.41800000000E+01 0. -1.
         -5    1    3    3    0  502 -0.53656429698E+02 -0.30394063995E+02  0.18415743103E+02  0.64493593233E+02  0.41800000000E+01 0. -1.
        -11    1    1    2    0    0  0.12939704662E+02 -0.29177710643E+01  0.12606496829E+02  0.18299538437E+02  0.00000000000E+00 0.  1.
         11    1    1    2    0    0  0.10361783479E+03 -0.23397928172E+02 -0.15823529508E+03  0.19058469860E+03  0.00000000000E+00 0. -1.
</event>
<event>
 7    1  0.2522928E-009  0.1338748E+03  0.7561462E-02  0.1221817E+00
          1   -1    0    0  501    0  0.00000000000E+00  0.00000000000E+00  0.12716486896E+03  0.12716486896E+03  0.00000000000E+00 0. -1.
         -1   -1    0    0    0  501 -0.00000000000E+00 -0.00000000000E+00 -0.17360886282E+03  0.17360886282E+03  0.00000000000E+00 0.  1.
         25    2    1    2    0    0 -0.78341297408E+02  0.67423481637E+02 -0.24633651264E+02  0.16412370692E+03  0.12508592903E+03 0.  0.
          5    1    3    3  502    0 -0.37510347827E+02  0.99928621346E+02 -0.13602332449E+01  0.10682732887E+03  0.41800000000E+01 0. -1.
         -5    1    3    3    0  502 -0.40830949581E+02 -0.32505139709E+02 -0.23273418019E+02  0.57296378049E+02  0.41800000000E+01 0. -1.
        -11    1    1    2    0    0  0.62656597855E+02 -0.33157453731E+02  0.26235354741E+02  0.75588093184E+02  0.00000000000E+00 0.  1.
         11    1    1    2    0    0  0.15684699553E+02 -0.34266027906E+02 -0.48045697336E+02  0.61061931684E+02  0.00000000000E+00 0. -1.
</event>
<event>
 7    1  0.2522928E-009  0.5806808E+02  0.7561462E-02  0.1406123E+00
         -1   -1    0    0    0  501 -0.00000000000E+00  0.00000000000E+00  0.78574428748E+02  0.78574428748E+02  0.00000000000E+00 0.  1.
          1   -1    0    0  501    0  0.00000000000E+00 -0.00000000000E+00 -0.23337628834E+03  0.23337628834E+03  0.00000000000E+00 0. -1.
         25    2    1    2    0    0 -0.98195770242E+01 -0.28416110472E+02 -0.16655598043E+03  0.21045543334E+03  0.12508675140E+03 0.  0.
          5    1    3    3  502    0 -0.17590264028E+02 -0.22335745828E+02  0.12314866370E+02  0.31263897134E+02  0.41800000000E+01 0.  1.
         -5    1    3    3    0  502  0.77706870041E+01 -0.60803646439E+01 -0.17887084680E+03  0.17919153620E+03  0.41800000000E+01 0.  1.
        -11    1    1    2    0    0 -0.51648514304E+01  0.50078534729E+02  0.38936776061E+02  0.63644385934E+02  0.00000000000E+00 0.  1.
         11    1    1    2    0    0  0.14984428455E+02 -0.21662424257E+02 -0.27182655217E+02  0.37850897816E+02  0.00000000000E+00 0. -1.
</event>
<event>
 7    1  0.2522928E-009  0.1055171E+03  0.7561462E-02  0.1269104E+00
         -2   -1    0    0    0  501 -0.00000000000E+00  0.00000000000E+00  0.29681272351E+02  0.29681272351E+02  0.00000000000E+00 0. -1.
          2   -1    0    0  501    0  0.00000000000E+00 -0.00000000000E+00 -0.46751141953E+03  0.46751141953E+03  0.00000000000E+00 0.  1.
         25    2    1    2    0    0  0.38136077991E+02  0.17222728044E+02 -0.35057254222E+03  0.37456671362E+03  0.12509249692E+03 0.  0.
          5    1    3    3  502    0  0.25146921717E+02 -0.52821106368E+02 -0.19011863895E+03  0.19895981058E+03  0.41800000000E+01 0.  1.
         -5    1    3    3    0  502  0.12989156273E+02  0.70043834412E+02 -0.16045390327E+03  0.17560690304E+03  0.41800000000E+01 0.  1.
        -11    1    1    2    0    0 -0.35406274609E+02  0.22013629017E+02 -0.23909563303E+02  0.48061121102E+02  0.00000000000E+00 0.  1.
         11    1    1    2    0    0 -0.27298033815E+01 -0.39236357061E+02 -0.63348041653E+02  0.74564857159E+02  0.00000000000E+00 0. -1.
</event>
<event>
 7    1  0.3023049E-009  0.1795886E+03  0.7561462E-02  0.1168202E+00
         -2   -1    0    0    0  501 -0.00000000000E+00  0.00000000000E+00  0.50018588605E+02  0.50018588605E+02  0.00000000000E+00 0.  1.
          2   -1    0    0  501    0  0.00000000000E+00 -0.00000000000E+00 -0.72651103652E+03  0.72651103652E+03  0.00000000000E+00 0. -1.
         25    2    1    2    0    0  0.69150057268E+02  0.13336513785E+03 -0.26670794600E+03  0.33066741315E+03  0.12505926292E+03 0.  0.
          5    1    3    3  502    0  0.92453560392E+02  0.64244755961E+02 -0.10854051108E+03  0.15644029034E+03  0.41800000000E+01 0.  1.
         -5    1    3    3    0  502 -0.23303503123E+02  0.69120381889E+02 -0.15816743492E+03  0.17422712280E+03  0.41800000000E+01 0.  1.
        -11    1    1    2    0    0 -0.51717193075E+02 -0.15052260031E+02 -0.96282082996E+02  0.11032442204E+03  0.00000000000E+00 0.  1.
         11    1    1    2    0    0 -0.17432864193E+02 -0.11831287782E+03 -0.31350241891E+03  0.33553778994E+03  0.00000000000E+00 0. -1.
</event>
<event>
 7    1  0.2522928E-009  0.1623617E+03  0.7561462E-02  0.1186056E+00
         -1   -1    0    0    0  501 -0.00000000000E+00  0.00000000000E+00  0.74566947477E+02  0.74566947477E+02  0.00000000000E+00 0.  1.
          1   -1    0    0  501    0  0.00000000000E+00 -0.00000000000E+00 -0.39840012510E+03  0.39840012510E+03  0.00000000000E+00 0. -1.
         25    2    1    2    0    0  0.29090726072E+02  0.13004615659E+03 -0.17626710651E+03  0.25392000623E+03  0.12508798320E+03 0.  0.
          5    1    3    3  502    0  0.77931560450E+01 -0.24680946614E+02 -0.20332700097E+02  0.33177906808E+02  0.41800000000E+01 0.  1.
         -5    1    3    3    0  502  0.21297570027E+02  0.15472710320E+03 -0.15593440641E+03  0.22074209943E+03  0.41800000000E+01 0.  1.
        -11    1    1    2    0    0  0.11309393387E+02 -0.62839647323E+02 -0.11999805087E+03  0.13592739190E+03  0.00000000000E+00 0. -1.
         11    1    1    2    0    0 -0.40400119459E+02 -0.67206509267E+02 -0.27568020236E+02  0.83119674446E+02  0.00000000000E+00 0.  1.
</event>
<event>
 7    1  0.2522928E-009  0.1060436E+03  0.7561462E-02  0.1268077E+00
          1   -1    0    0  501    0  0.00000000000E+00  0.00000000000E+00  0.37214739297E+03  0.37214739297E+03  0.00000000000E+00 0. -1.
         -1   -1    0    0    0  501 -0.00000000000E+00 -0.00000000000E+00 -0.34715931108E+02  0.34715931108E+02  0.00000000000E+00 0.  1.
         25    2    1    2    0    0 -0.20935431370E+02 -0.29378425751E+02  0.21528997294E+03  0.25159236939E+03  0.12509022225E+03 0.  0.
          5    1    3    3  502    0 -0.72942744829E+02 -0.24223494514E+02  0.11426425488E+03  0.13777232688E+03  0.41800000000E+01 0. -1.
         -5    1    3    3    0  502  0.52007313459E+02 -0.51549312366E+01  0.10102571806E+03  0.11382004251E+03  0.41800000000E+01 0. -1.
        -11    1    1    2    0    0 -0.90511109093E+01 -0.21667973023E+02  0.77904589444E+02  0.81366754390E+02  0.00000000000E+00 0. -1.
         11    1    1    2    0    0  0.29986542280E+02  0.51046398774E+02  0.44236899482E+02  0.73904200297E+02  0.00000000000E+00 0.  1.
</event>
<event>
 7    1  0.2522928E-009  0.1507204E+03  0.7561462E-02  0.1199591E+00
          2   -1    0    0  501    0  0.00000000000E+00  0.00000000000E+00  0.76515237980E+03  0.76515237980E+03  0.00000000000E+00 0. -1.
         -2   -1    0    0    0  501 -0.00000000000E+00 -0.00000000000E+00 -0.42489241418E+02  0.42489241418E+02  0.00000000000E+00 0.  1.
         25    2    1    2    0    0  0.55433000938E+02  0.11646310138E+03  0.52799718704E+03  0.55773255478E+03  0.12509237212E+03 0.  0.
          5    1    3    3  502    0  0.14317559018E+02 -0.57456859662E+01  0.25803331633E+03  0.25852789045E+03  0.41800000000E+01 0. -1.
         -5    1    3    3    0  502  0.41115441920E+02  0.12220878735E+03  0.26996387071E+03  0.29920466433E+03  0.41800000000E+01 0. -1.
        -11    1    1    2    0    0 -0.68250073035E+02 -0.40393462325E+02  0.10595040037E+03  0.13234497197E+03  0.00000000000E+00 0. -1.
         11    1    1    2    0    0  0.12817072097E+02 -0.76069639057E+02  0.88715550979E+02  0.11756409447E+03  0.00000000000E+00 0.  1.
</event>
<event>
 7    1  0.2522928E-009  0.1036334E+03  0.7561462E-02  0.1272836E+00
         -1   -1    0    0    0  501 -0.00000000000E+00  0.00000000000E+00  0.20509209757E+03  0.20509209757E+03  0.00000000000E+00 0.  1.
          1   -1    0    0  501    0  0.00000000000E+00 -0.00000000000E+00 -0.61378542969E+02  0.61378542969E+02  0.00000000000E+00 0. -1.
         25    2    1    2    0    0 -0.19639865900E+02  0.53912424934E+01  0.11082385342E+03  0.16835749760E+03  0.12509009027E+03 0.  0.
          5    1    3    3  502    0 -0.18393201260E+02  0.59890805907E+02  0.27159919595E+02  0.68413099017E+02  0.41800000000E+01 0. -1.
         -5    1    3    3    0  502 -0.12466646404E+01 -0.54499563413E+02  0.83663933828E+02  0.99944398585E+02  0.41800000000E+01 0. -1.
        -11    1    1    2    0    0  0.29770962881E+02  0.36271800592E+02  0.28760972092E+02  0.55037689493E+02  0.00000000000E+00 0.  1.
         11    1    1    2    0    0 -0.10131096981E+02 -0.41663043086E+02  0.41287290833E+01  0.43075453440E+02  0.00000000000E+00 0. -1.
</event>
<event>
 7    1  0.2522928E-009  0.1529808E+03  0.7561462E-02  0.1196857E+00
         -1   -1    0    0    0  501 -0.00000000000E+00  0.00000000000E+00  0.11407740805E+03  0.11407740805E+03  0.00000000000E+00 0.  1.
          1   -1    0    0  501    0  0.00000000000E+00 -0.00000000000E+00 -0.25928232560E+03  0.25928232560E+03  0.00000000000E+00 0. -1.
         25    2    1    2    0    0  0.12452460249E+03 -0.28484529032E+02 -0.38605141358E+02  0.18290577867E+03  0.12508565830E+03 0.  0.
          5    1    3    3  502    0  0.43051493651E+01 -0.54477548540E+02 -0.34536843838E+01  0.54915734920E+02  0.41800000000E+01 0.  1.
         -5    1    3    3    0  502  0.12021945312E+03  0.25993019507E+02 -0.35151456974E+02  0.12799004375E+03  0.41800000000E+01 0.  1.
        -11    1    1    2    0    0 -0.76141405881E+02  0.12699465493E+02 -0.56483457514E+01  0.77399573145E+02  0.00000000000E+00 0.  1.
         11    1    1    2    0    0 -0.48383196606E+02  0.15785063539E+02 -0.10095143044E+03  0.11305438184E+03  0.00000000000E+00 0. -1.
</event>
<event>
 7    1  0.2522928E-009  0.1246835E+03  0.7561462E-02  0.1235565E+00
         -2   -1    0    0    0  501 -0.00000000000E+00  0.00000000000E+00  0.70193208747E+02  0.70193208747E+02  0.00000000000E+00 0.  1.
          2   -1    0    0  501    0  0.00000000000E+00 -0.00000000000E+00 -0.27066288791E+03  0.27066288791E+03  0.00000000000E+00 0. -1.
         25    2    1    2    0    0  0.53733356661E+02  0.32358708057E+02 -0.38694755345E+02  0.14518699592E+03  0.12509044763E+03 0.  0.
          5    1    3    3  502    0  0.94264809683E+02  0.30431675753E+02 -0.27287537406E+02  0.10283007017E+03  0.41800000000E+01 0.  1.
         -5    1    3    3    0  502 -0.40531453022E+02  0.19270323035E+01 -0.11407217938E+02  0.42356925746E+02  0.41800000000E+01 0.  1.
        -11    1    1    2    0    0 -0.61360510503E+02  0.13595672230E+02 -0.82370872687E+02  0.10360943596E+03  0.00000000000E+00 0.  1.
         11    1    1    2    0    0  0.76271538424E+01 -0.45954380286E+02 -0.79404051130E+02  0.92059664779E+02  0.00000000000E+00 0. -1.
</event>
<event>
 7    1  0.2522928E-009  0.8350697E+02  0.7561462E-02  0.1319384E+00
          2   -1    0    0  501    0  0.00000000000E+00  0.00000000000E+00  0.28804399558E+03  0.28804399558E+03  0.00000000000E+00 0. -1.
         -2   -1    0    0    0  501 -0.00000000000E+00 -0.00000000000E+00 -0.55625191199E+02  0.55625191199E+02  0.00000000000E+00 0.  1.
         25    2    1    2    0    0 -0.12851912782E+01  0.51570643986E+01  0.21727533791E+03  0.25076818087E+03  0.12509141075E+03 0.  0.
          5    1    3    3  502    0 -0.35583759339E+02 -0.25089670452E+02  0.19779828527E+02  0.48004265525E+02  0.41800000000E+01 0. -1.
         -5    1    3    3    0  502  0.34298568061E+02  0.30246734850E+02  0.19749550938E+03  0.20276391534E+03  0.41800000000E+01 0. -1.
        -11    1    1    2    0    0 -0.43739260596E+01 -0.40916094056E+02 -0.16965782317E+02  0.44509501813E+02  0.00000000000E+00 0.  1.
         11    1    1    2    0    0  0.56591173379E+01  0.35759029658E+02  0.32109248794E+02  0.48391504102E+02  0.00000000000E+00 0. -1.
</event>
<event>
 7    1  0.2522928E-009  0.1306190E+03  0.7561462E-02  0.1226540E+00
          1   -1    0    0  501    0  0.00000000000E+00  0.00000000000E+00  0.49701495261E+03  0.49701495261E+03  0.00000000000E+00 0. -1.
         -1   -1    0    0    0  501 -0.00000000000E+00 -0.00000000000E+00 -0.43727983315E+02  0.43727983315E+02  0.00000000000E+00 0.  1.
         25    2    1    2    0    0  0.48139416126E+02 -0.54503202299E+02  0.26898184243E+03  0.30542416599E+03  0.12507872387E+03 0.  0.
          5    1    3    3  502    0 -0.23862629198E+02  0.73897194082E+00  0.16739304034E+03  0.16913862216E+03  0.41800000000E+01 0. -1.
         -5    1    3    3    0  502  0.72002045324E+02 -0.55242174240E+02  0.10158880209E+03  0.13628554383E+03  0.41800000000E+01 0. -1.
        -11    1    1    2    0    0 -0.43795884378E+02 -0.35295751129E+02  0.65665466452E+02  0.86462841849E+02  0.00000000000E+00 0. -1.
         11    1    1    2    0    0 -0.43435317485E+01  0.89798953428E+02  0.11863966041E+03  0.14885592809E+03  0.00000000000E+00 0.  1.
</event>
<event>
 7    1  0.2522928E-009  0.1075136E+03  0.7561462E-02  0.1265245E+00
         -2   -1    0    0    0  501 -0.00000000000E+00  0.00000000000E+00  0.42708505744E+02  0.42708505744E+02  0.00000000000E+00 0.  1.
          2   -1    0    0  501    0  0.00000000000E+00 -0.00000000000E+00 -0.53014929554E+03  0.53014929554E+03  0.00000000000E+00 0. -1.
         25    2    1    2    0    0  0.65355309870E+02 -0.49955235534E+01 -0.11132774878E+03  0.17982198512E+03  0.12508319992E+03 0.  0.
          5    1    3    3  502    0  0.21717359197E+02 -0.40099012979E+02  0.93301308590E+01  0.46734337208E+02  0.41800000000E+01 0. -1.
         -5    1    3    3    0  502  0.43637950673E+02  0.35103489426E+02 -0.12065787963E+03  0.13308764791E+03  0.41800000000E+01 0. -1.
        -11    1    1    2    0    0 -0.64251260208E+02  0.41541327044E+02 -0.22882006599E+03  0.24127272720E+03  0.00000000000E+00 0.  1.
         11    1    1    2    0    0 -0.11040496619E+01 -0.36545803490E+02 -0.14729297504E+03  0.15176308897E+03  0.00000000000E+00 0. -1.
</event>
<event>
 7    1  0.2522928E-009  0.1148884E+03  0.7561462E-02  0.1251776E+00
         -2   -1    0    0    0  501 -0.00000000000E+00  0.00000000000E+00  0.71012830212E+02  0.71012830212E+02  0.00000000000E+00 0.  1.
          2   -1    0    0  501    0  0.00000000000E+00 -0.00000000000E+00 -0.20443092741E+03  0.20443092741E+03  0.00000000000E+00 0. -1.
         25    2    1    2    0    0 -0.46877150090E+02 -0.42191667483E+01 -0.10403059816E+03  0.16936098201E+03  0.12508200632E+03 0.  0.
          5    1    3    3  502    0  0.86466973880E+01  0.52270093167E+02 -0.30904414514E+02  0.61477501998E+02  0.41800000000E+01 0. -1.
         -5    1    3    3    0  502 -0.55523847478E+02 -0.56489259915E+02 -0.73126183648E+02  0.10788348001E+03  0.41800000000E+01 0. -1.
        -11    1    1    2    0    0  0.10894215856E+02  0.43030354233E+02  0.22097303374E+01  0.44442977316E+02  0.00000000000E+00 0.  1.
         11    1    1    2    0    0  0.35982934234E+02 -0.38811187485E+02 -0.31597229377E+02  0.61639798299E+02  0.00000000000E+00 0. -1.
</event>
<event>
 7    1  0.2522928E-009  0.1607406E+03  0.7561462E-02  0.1187863E+00
         -4   -1    0    0    0  501 -0.00000000000E+00  0.00000000000E+00  0.65071051749E+02  0.65071051749E+02  0.00000000000E+00 0.  1.
          4   -1    0    0  501    0  0.00000000000E+00 -0.00000000000E+00 -0.41264277937E+03  0.41264277937E+03  0.00000000000E+00 0. -1.
         25    2    1    2    0    0  0.50854833219E+02  0.10925501821E+03 -0.15236595848E+03  0.23105285600E+03  0.12508862416E+03 0.  0.
          5    1    3    3  502    0  0.43661790885E+02  0.13626934791E+03 -0.13988934382E+03  0.20015540982E+03  0.41800000000E+01 0.  1.
         -5    1    3    3    0  502  0.71930423338E+01 -0.27014329700E+02 -0.12476614658E+02  0.30897446181E+02  0.41800000000E+01 0.  1.
        -11    1    1    2    0    0 -0.49631224611E+02 -0.97894647502E+01 -0.77540402829E+02  0.92582968992E+02  0.00000000000E+00 0. -1.
         11    1    1    2    0    0 -0.12236086077E+01 -0.99465553464E+02 -0.11766536632E+03  0.15407800614E+03  0.00000000000E+00 0.  1.
</event>
<event>
 7    1  0.2522928E-009  0.8495398E+02  0.7561462E-02  0.1315553E+00
          2   -1    0    0  501    0  0.00000000000E+00  0.00000000000E+00  0.69200512099E+03  0.69200512099E+03  0.00000000000E+00 0. -1.
         -2   -1    0    0    0  501 -0.00000000000E+00 -0.00000000000E+00 -0.20591061037E+02  0.20591061037E+02  0.00000000000E+00 0.  1.
         25    2    1    2    0    0 -0.46379798049E+02  0.94094562397E+01  0.43641765940E+03  0.45645064293E+03  0.12508873834E+03 0.  0.
          5    1    3    3  502    0 -0.29041595881E+02 -0.19586719644E+02  0.41442184876E+03  0.41592065951E+03  0.41800000000E+01 0.  1.
         -5    1    3    3    0  502 -0.17338202167E+02  0.28996175884E+02  0.21995810643E+02  0.40529983421E+02  0.41800000000E+01 0.  1.
        -11    1    1    2    0    0  0.25178294732E+02 -0.49331516055E+02  0.10856676492E+03  0.12187816641E+03  0.00000000000E+00 0. -1.
         11    1    1    2    0    0  0.21201503317E+02  0.39922059815E+02  0.12642963563E+03  0.13426737269E+03  0.00000000000E+00 0.  1.
</event>
<event>
 7    1  0.2522928E-009  0.1955270E+03  0.7561462E-02  0.1153569E+00
          2   -1    0    0  501    0  0.00000000000E+00  0.00000000000E+00  0.13276579486E+04  0.13276579486E+04  0.00000000000E+00 0. -1.
         -2   -1    0    0    0  501 -0.00000000000E+00 -0.00000000000E+00 -0.31224861106E+02  0.31224861106E+02  0.00000000000E+00 0.  1.
         25    2    1    2    0    0  0.13598249703E+03  0.10254420319E+03  0.75696082093E+03  0.78590293541E+03  0.12508871394E+03 0.  0.
          5    1    3    3  502    0  0.12850960809E+03  0.12835997709E+03  0.69255716597E+03  0.71599155276E+03  0.41800000000E+01 0.  1.
         -5    1    3    3    0  502  0.74728889360E+01 -0.25815773903E+02  0.64403654958E+02  0.69911382644E+02  0.41800000000E+01 0.  1.
        -11    1    1    2    0    0 -0.59147622164E+02 -0.84675031277E+02  0.39602604990E+03  0.40927366679E+03  0.00000000000E+00 0. -1.
         11    1    1    2    0    0 -0.76834874863E+02 -0.17869171910E+02  0.14344621663E+03  0.16370620748E+03  0.00000000000E+00 0.  1.
</event>
<event>
 7    1  0.2522928E-009  0.2477241E+03  0.7561462E-02  0.1114752E+00
          1   -1    0    0  501    0  0.00000000000E+00  0.00000000000E+00  0.77504391230E+02  0.77504391230E+02  0.00000000000E+00 0. -1.
         -1   -1    0    0    0  501 -0.00000000000E+00 -0.00000000000E+00 -0.88319785189E+03  0.88319785189E+03  0.00000000000E+00 0.  1.
         25    2    1    2    0    0 -0.21648107601E+03 -0.98126781352E+02 -0.41115278888E+03  0.49110852267E+03  0.12509214103E+03 0.  0.
          5    1    3    3  502    0 -0.13664348918E+03 -0.32248402632E+02 -0.33278377777E+03  0.36121173535E+03  0.41800000000E+01 0. -1.
         -5    1    3    3    0  502 -0.79837586834E+02 -0.65878378720E+02 -0.78369011111E+02  0.12989678732E+03  0.41800000000E+01 0. -1.
        -11    1    1    2    0    0  0.12833549509E+03  0.13231114577E+02 -0.23985013996E+03  0.27234748270E+03  0.00000000000E+00 0.  1.
         11    1    1    2    0    0  0.88145580918E+02  0.84895666775E+02 -0.15469053182E+03  0.19724623775E+03  0.00000000000E+00 0. -1.
</event>
<event>
 7    1  0.2522928E-009  0.7220719E+02  0.7561462E-02  0.1352744E+00
         -2   -1    0    0    0  501 -0.00000000000E+00  0.00000000000E+00  0.18725108446E+03  0.18725108446E+03  0.00000000000E+00 0.  1.
          2   -1    0    0  501    0  0.00000000000E+00 -0.00000000000E+00 -0.82436450106E+02  0.82436450106E+02  0.00000000000E+00 0. -1.
         25    2    1    2    0    0  0.29593476219E+02 -0.46041036780E+02  0.44036039694E+02  0.14347119764E+03  0.12509700580E+03 0.  0.
          5    1    3    3  502    0  0.19922987316E+02 -0.39927719509E+02  0.87512239017E+02  0.98320967177E+02  0.41800000000E+01 0. -1.
         -5    1    3    3    0  502  0.96704889031E+01 -0.61133172715E+01 -0.43476199324E+02  0.45150230468E+02  0.41800000000E+01 0. -1.
        -11    1    1    2    0    0 -0.12704079013E+02  0.62533002930E+02  0.30903605408E+01  0.63885212744E+02  0.00000000000E+00 0. -1.
         11    1    1    2    0    0 -0.16889397206E+02 -0.16491966150E+02  0.57688234120E+02  0.62331124179E+02  0.00000000000E+00 0.  1.
</event>
<event>
 7    1  0.2522928E-009  0.5102662E+03  0.7561462E-02  0.1011133E+00
         -2   -1    0    0    0  501 -0.00000000000E+00  0.00000000000E+00  0.35647519648E+03  0.35647519648E+03  0.00000000000E+00 0.  1.
          2   -1    0    0  501    0  0.00000000000E+00 -0.00000000000E+00 -0.80812232787E+03  0.80812232787E+03  0.00000000000E+00 0. -1.
         25    2    1    2    0    0 -0.22725033120E+03  0.44580628237E+03 -0.53356073656E+02  0.51853698551E+03  0.12509108808E+03 0.  0.
          5    1    3    3  502    0 -0.16372742312E+03  0.18896095441E+03 -0.89574559118E+01  0.25022114177E+03  0.41800000000E+01 0.  1.
         -5    1    3    3    0  502 -0.63522908083E+02  0.25684532795E+03 -0.44398617744E+02  0.26831584374E+03  0.41800000000E+01 0.  1.
        -11    1    1    2    0    0  0.85236651789E+02 -0.96333263863E+02 -0.72684357153E+02  0.14774437488E+03  0.00000000000E+00 0.  1.
         11    1    1    2    0    0  0.14201367941E+03 -0.34947301850E+03 -0.32560670058E+03  0.49831616396E+03  0.00000000000E+00 0. -1.
</event>
<event>
 7    1  0.2522928E-009  0.1160009E+03  0.7561462E-02  0.1249844E+00
          1   -1    0    0  501    0  0.00000000000E+00  0.00000000000E+00  0.68825706205E+03  0.68825706205E+03  0.00000000000E+00 0. -1.
         -1   -1    0    0    0  501 -0.00000000000E+00 -0.00000000000E+00 -0.20553114694E+02  0.20553114694E+02  0.00000000000E+00 0.  1.
         25    2    1    2    0    0  0.24622181213E+02 -0.44443837202E+02  0.31815559043E+03  0.34561893821E+03  0.12509182328E+03 0.  0.
          5    1    3    3  502    0 -0.39554480714E+02 -0.55503752536E+02  0.18808085556E+03  0.20009273879E+03  0.41800000000E+01 0. -1.
         -5    1    3    3    0  502  0.64176661927E+02  0.11059915335E+02  0.13007473488E+03  0.14552619942E+03  0.41800000000E+01 0. -1.
        -11    1    1    2    0    0 -0.91165986240E+01  0.68901793098E+02  0.23744967713E+03  0.24741244640E+03  0.00000000000E+00 0.  1.
         11    1    1    2    0    0 -0.15505582589E+02 -0.24457955896E+02  0.11209867979E+03  0.11577879214E+03  0.00000000000E+00 0. -1.
</event>
<event>
 7    1  0.2522928E-009  0.9481627E+02  0.7561462E-02  0.1291590E+00
         -3   -1    0    0    0  501 -0.00000000000E+00  0.00000000000E+00  0.10099615410E+03  0.10099615410E+03  0.00000000000E+00 0.  1.
          3   -1    0    0  501    0  0.00000000000E+00 -0.00000000000E+00 -0.17575787339E+03  0.17575787339E+03  0.00000000000E+00 0. -1.
         25    2    1    2    0    0  0.58435627386E+02  0.33623308898E+02 -0.24715719622E+01  0.14212588499E+03  0.12509360123E+03 0.  0.
          5    1    3    3  502    0 -0.21997635078E+01  0.22040672236E+02  0.53900165632E+02  0.58423714767E+02  0.41800000000E+01 0.  1.
         -5    1    3    3    0  502  0.60635390894E+02  0.11582636663E+02 -0.56371737594E+02  0.83702170225E+02  0.41800000000E+01 0.  1.
        -11    1    1    2    0    0  0.17976549879E+02  0.62453728112E+01 -0.36780008248E+02  0.41411713727E+02  0.00000000000E+00 0. -1.
         11    1    1    2    0    0 -0.76412177265E+02 -0.39868681709E+02 -0.35510139080E+02  0.93216428773E+02  0.00000000000E+00 0.  1.
</event>
<event>
 7    1  0.2522928E-009  0.1858623E+03  0.7561462E-02  0.1162247E+00
          1   -1    0    0  501    0  0.00000000000E+00  0.00000000000E+00  0.12908857264E+03  0.12908857264E+03  0.00000000000E+00 0. -1.
         -1   -1    0    0    0  501 -0.00000000000E+00 -0.00000000000E+00 -0.37661192139E+03  0.37661192139E+03  0.00000000000E+00 0.  1.
         25    2    1    2    0    0 -0.49550893875E+01  0.16703441143E+03 -0.20688375202E+02  0.20976269131E+03  0.12508928924E+03 0.  0.
          5    1    3    3  502    0 -0.29112699303E+02  0.23498488649E+02  0.37329024128E+02  0.53015626676E+02  0.41800000000E+01 0.  1.
         -5    1    3    3    0  502  0.24157609915E+02  0.14353592278E+03 -0.58017399330E+02  0.15674706463E+03  0.41800000000E+01 0.  1.
        -11    1    1    2    0    0  0.45433640847E+02 -0.10479013816E+03 -0.15580707677E+03  0.19318652631E+03  0.00000000000E+00 0. -1.
         11    1    1    2    0    0 -0.40478551460E+02 -0.62244273272E+02 -0.71027896773E+02  0.10275127641E+03  0.00000000000E+00 0.  1.
</event>
<event>
 7    1  0.2522928E-009  0.1217593E+03  0.7561462E-02  0.1240223E+00
         -1   -1    0    0    0  501 -0.00000000000E+00  0.00000000000E+00  0.16539183598E+03  0.16539183598E+03  0.00000000000E+00 0.  1.
          1   -1    0    0  501    0  0.00000000000E+00 -0.00000000000E+00 -0.14622798389E+03  0.14622798389E+03  0.00000000000E+00 0. -1.
         25    2    1    2    0    0 -0.10323871535E+03  0.42203610863E+02 -0.14082800827E+02  0.16818272489E+03  0.12509087319E+03 0.  0.
          5    1    3    3  502    0 -0.56569829706E+02  0.59215024312E+02  0.42841777316E+02  0.92517322815E+02  0.41800000000E+01 0.  1.
         -5    1    3    3    0  502 -0.46668885642E+02 -0.17011413449E+02 -0.56924578142E+02  0.75665402076E+02  0.41800000000E+01 0.  1.
        -11    1    1    2    0    0  0.70989903397E+02 -0.26217640441E+02 -0.20817292742E+02  0.78487519592E+02  0.00000000000E+00 0. -1.
         11    1    1    2    0    0  0.32248811951E+02 -0.15985970422E+02  0.54063945664E+02  0.64949575390E+02  0.00000000000E+00 0.  1.
</event>
<event>
 7    1  0.2522928E-009  0.8811405E+02  0.7561462E-02  0.1307484E+00
          1   -1    0    0  501    0  0.00000000000E+00  0.00000000000E+00  0.28176953276E+03  0.28176953276E+03  0.00000000000E+00 0. -1.
         -1   -1    0    0    0  501 -0.00000000000E+00 -0.00000000000E+00 -0.50147726547E+02  0.50147726547E+02  0.00000000000E+00 0.  1.
         25    2    1    2    0    0  0.21972649317E+02 -0.18519811316E+02  0.72922000130E+02  0.14762046114E+03  0.12509357184E+03 0.  0.
          5    1    3    3  502    0  0.84129428230E+01 -0.56334356329E+02  0.87662449136E+02  0.10462559294E+03  0.41800000000E+01 0. -1.
         -5    1    3    3    0  502  0.13559706494E+02  0.37814545013E+02 -0.14740449006E+02  0.42994868201E+02  0.41800000000E+01 0. -1.
        -11    1    1    2    0    0 -0.42062458632E+02 -0.10573563386E+02  0.13483970321E+03  0.14164320044E+03  0.00000000000E+00 0. -1.
         11    1    1    2    0    0  0.20089809315E+02  0.29093374702E+02  0.23860102875E+02  0.42653597727E+02  0.00000000000E+00 0.  1.
</event>
<event>
 7    1  0.2522928E-009  0.1199361E+03  0.7561462E-02  0.1243203E+00
         -1   -1    0    0    0  501 -0.00000000000E+00  0.00000000000E+00  0.56634161434E+02  0.56634161434E+02  0.00000000000E+00 0.  1.
          1   -1    0    0  501    0  0.00000000000E+00 -0.00000000000E+00 -0.30402201633E+03  0.30402201633E+03  0.00000000000E+00 0. -1.
         25    2    1    2    0    0 -0.24485930028E+02 -0.20706379153E+02 -0.20423654758E+03  0.24163652049E+03  0.12508927116E+03 0.  0.
          5    1    3    3  502    0  0.27348758078E+02  0.40242146614E+02 -0.83606715647E+02  0.96824275023E+02  0.41800000000E+01 0. -1.
         -5    1    3    3    0  502 -0.51834688106E+02 -0.60948525767E+02 -0.12062983193E+03  0.14481224547E+03  0.41800000000E+01 0. -1.
        -11    1    1    2    0    0  0.51304548274E+02 -0.25653000606E+02 -0.22788262950E+02  0.61721455281E+02  0.00000000000E+00 0.  1.
         11    1    1    2    0    0 -0.26818618246E+02  0.46359379759E+02 -0.20363044369E+02  0.57298201999E+02  0.00000000000E+00 0. -1.
</event>
<event>
 7    1  0.2522928E-009  0.1016072E+03  0.7561462E-02  0.1276952E+00
          2   -1    0    0  501    0  0.00000000000E+00  0.00000000000E+00  0.68366098058E+02  0.68366098058E+02  0.00000000000E+00 0. -1.
         -2   -1    0    0    0  501 -0.00000000000E+00 -0.00000000000E+00 -0.22461849247E+03  0.22461849247E+03  0.00000000000E+00 0.  1.
         25    2    1    2    0    0 -0.48083608351E+02  0.19161265828E+02 -0.52304896870E+02  0.14513127908E+03  0.12509235960E+03 0.  0.
          5    1    3    3  502    0 -0.64529485531E+02 -0.27992961456E+02 -0.62270105740E+02  0.94035625498E+02  0.41800000000E+01 0. -1.
         -5    1    3    3    0  502  0.16445877180E+02  0.47154227284E+02  0.99652088706E+01  0.51095653581E+02  0.41800000000E+01 0. -1.
        -11    1    1    2    0    0  0.61101584582E+02 -0.20501499067E+01 -0.10971011466E+03  0.12559425151E+03  0.00000000000E+00 0.  1.
         11    1    1    2    0    0 -0.13017976231E+02 -0.17111115921E+02  0.57626171206E+01  0.22259059938E+02  0.00000000000E+00 0. -1.
</event>
<event>
 7    1  0.2522928E-009  0.1447652E+03  0.7561462E-02  0.1207057E+00
          2   -1    0    0  501    0  0.00000000000E+00  0.00000000000E+00  0.37438803275E+03  0.37438803275E+03  0.00000000000E+00 0. -1.
         -2   -1    0    0    0  501 -0.00000000000E+00 -0.00000000000E+00 -0.73268643001E+02  0.73268643001E+02  0.00000000000E+00 0.  1.
         25    2    1    2    0    0  0.19499930923E+02 -0.11808301452E+03  0.11383944762E+03  0.20719493532E+03  0.12508587356E+03 0.  0.
          5    1    3    3  502    0 -0.33771057130E+02 -0.39160729352E+02  0.97571377438E+02  0.11050652975E+03  0.41800000000E+01 0.  1.
         -5    1    3    3    0  502  0.53270988052E+02 -0.78922285165E+02  0.16268070182E+02  0.96688405567E+02  0.41800000000E+01 0.  1.
        -11    1    1    2    0    0 -0.12186988657E+02  0.12879507038E+03  0.18712364634E+03  0.22749055336E+03  0.00000000000E+00 0. -1.
         11    1    1    2    0    0 -0.73129422658E+01 -0.10712055866E+02  0.15629578040E+00  0.12971187063E+02  0.00000000000E+00 0.  1.
</event>
<event>
 7    1  0.2522928E-009  0.1278163E+03  0.7561462E-02  0.1230732E+00
         -2   -1    0    0    0  501 -0.00000000000E+00  0.00000000000E+00  0.45864233201E+02  0.45864233201E+02  0.00000000000E+00 0.  1.
          2   -1    0    0  501    0  0.00000000000E+00 -0.00000000000E+00 -0.52501358891E+03  0.52501358891E+03  0.00000000000E+00 0. -1.
         25    2    1    2    0    0  0.96406079199E+02  0.47113764809E+01 -0.35875696318E+03  0.39200823856E+03  0.12509025261E+03 0.  0.
          5    1    3    3  502    0  0.11769867474E+03  0.18238474678E+02 -0.34004038749E+03  0.36032007649E+03  0.41800000000E+01 0.  1.
         -5    1    3    3    0  502 -0.21292595539E+02 -0.13527098197E+02 -0.18716575685E+02  0.31688162076E+02  0.41800000000E+01 0.  1.
        -11    1    1    2    0    0 -0.19425740211E+02 -0.24631514051E+02  0.35948927556E+01  0.31575213714E+02  0.00000000000E+00 0.  1.
         11    1    1    2    0    0 -0.76980338987E+02  0.19920137570E+02 -0.12398728529E+03  0.14729436983E+03  0.00000000000E+00 0. -1.
</event>
<event>
 7    1  0.2522928E-009  0.1292969E+03  0.7561462E-02  0.1228503E+00
          2   -1    0    0  501    0  0.00000000000E+00  0.00000000000E+00  0.43832341481E+02  0.43832341481E+02  0.00000000000E+00 0. -1.
         -2   -1    0    0    0  501 -0.00000000000E+00 -0.00000000000E+00 -0.42218556238E+03  0.42218556238E+03  0.00000000000E+00 0.  1.
         25    2    1    2    0    0 -0.59015993877E+02  0.45588633441E+02 -0.26913950805E+03  0.30601527265E+03  0.12509221107E+03 0.  0.
          5    1    3    3  502    0  0.66443349746E+01  0.73179477558E+02 -0.15152350438E+03  0.16845244997E+03  0.41800000000E+01 0. -1.
         -5    1    3    3    0  502 -0.65660328852E+02 -0.27590844117E+02 -0.11761600367E+03  0.13756282268E+03  0.41800000000E+01 0. -1.
        -11    1    1    2    0    0  0.72460020837E+02 -0.70126176610E+01 -0.87213141779E+02  0.11360353659E+03  0.00000000000E+00 0.  1.
         11    1    1    2    0    0 -0.13444026960E+02 -0.38576015780E+02 -0.22000571074E+02  0.46399094624E+02  0.00000000000E+00 0. -1.
</event>
<event>
 7    1  0.2522928E-009  0.1839253E+03  0.7561462E-02  0.1164057E+00
          2   -1    0    0  501    0  0.00000000000E+00  0.00000000000E+00  0.16928905436E+04  0.16928905436E+04  0.00000000000E+00 0. -1.
         -2   -1    0    0    0  501 -0.00000000000E+00 -0.00000000000E+00 -0.29388384474E+02  0.29388384474E+02  0.00000000000E+00 0.  1.
         25    2    1    2    0    0 -0.18087573492E+02  0.14977602724E+03  0.13285169872E+04  0.13428942057E+04  0.12508974259E+03 0.  0.
          5    1    3    3  502    0 -0.66311924027E+02  0.59906368359E+02  0.76428180081E+03  0.76949995952E+03  0.41800000000E+01 0. -1.
         -5    1    3    3    0  502  0.48224350534E+02  0.89869658880E+02  0.56423518642E+03  0.57339424619E+03  0.41800000000E+01 0. -1.
        -11    1    1    2    0    0 -0.35637385590E+02 -0.84913668874E+02  0.20156411315E+03  0.22160425565E+03  0.00000000000E+00 0. -1.
         11    1    1    2    0    0  0.53724959083E+02 -0.64862358365E+02  0.13342105876E+03  0.15778046673E+03  0.00000000000E+00 0.  1.
</event>
<event>
 7    1  0.2522928E-009  0.1368377E+03  0.7561462E-02  0.1217648E+00
         -4   -1    0    0    0  501 -0.00000000000E+00  0.00000000000E+00  0.10056473399E+03  0.10056473399E+03  0.00000000000E+00 0.  1.
          4   -1    0    0  501    0  0.00000000000E+00 -0.00000000000E+00 -0.22250270058E+03  0.22250270058E+03  0.00000000000E+00 0. -1.
         25    2    1    2    0    0 -0.90478237657E+02 -0.17133856128E+02 -0.81793013558E+01  0.15554639922E+03  0.12509156976E+03 0.  0.
          5    1    3    3  502    0 -0.12054528561E+03 -0.28570521406E+01  0.13996240135E+01  0.12065968662E+03  0.41800000000E+01 0.  1.
         -5    1    3    3    0  502  0.30067047950E+02 -0.14276803987E+02 -0.95789253693E+01  0.34886712596E+02  0.41800000000E+01 0.  1.
        -11    1    1    2    0    0  0.96850654195E+02  0.33049263851E+02 -0.80865224976E+02  0.13042809387E+03  0.00000000000E+00 0.  1.
         11    1    1    2    0    0 -0.63724165387E+01 -0.15915407723E+02 -0.32893440255E+02  0.37092941476E+02  0.00000000000E+00 0. -1.
</event>
<event>
 7    1  0.2522928E-009  0.8311982E+02  0.7561462E-02  0.1320424E+00
         -2   -1    0    0    0  501 -0.00000000000E+00  0.00000000000E+00  0.10251236758E+03  0.10251236758E+03  0.00000000000E+00 0.  1.
          2   -1    0    0  501    0  0.00000000000E+00 -0.00000000000E+00 -0.15641739411E+03  0.15641739411E+03  0.00000000000E+00 0. -1.
         25    2    1    2    0    0 -0.79747222796E+01 -0.15723746143E+01 -0.97125751732E+02  0.15857911487E+03  0.12509138846E+03 0.  0.
          5    1    3    3  502    0 -0.43172710608E+02  0.22926760155E+02 -0.10395751541E+03  0.11495284547E+03  0.41800000000E+01 0. -1.
         -5    1    3    3    0  502  0.35197988328E+02 -0.24499134769E+02  0.68317636779E+01  0.43626269400E+02  0.41800000000E+01 0. -1.
        -11    1    1    2    0    0 -0.53379130798E+01 -0.34878542064E+02 -0.79110884525E+01  0.36160632365E+02  0.00000000000E+00 0. -1.
         11    1    1    2    0    0  0.13312635359E+02  0.36450916678E+02  0.51131813655E+02  0.64190014445E+02  0.00000000000E+00 0.  1.
</event>
<event>
 7    1  0.2522928E-009  0.1356239E+03  0.7561462E-02  0.1219342E+00
         -3   -1    0    0    0  501 -0.00000000000E+00  0.00000000000E+00  0.25489715136E+02  0.25489715136E+02  0.00000000000E+00 0.  1.
          3   -1    0    0  501    0  0.00000000000E+00 -0.00000000000E+00 -0.92793571760E+03  0.92793571760E+03  0.00000000000E+00 0. -1.
         25    2    1    2    0    0  0.96896542847E+02 -0.12462529652E+02 -0.33939043099E+03  0.37467181454E+03  0.12509536082E+03 0.  0.
          5    1    3    3  502    0 -0.16479339572E+02  0.12995428763E+02 -0.15645384099E+03  0.15791050175E+03  0.41800000000E+01 0. -1.
         -5    1    3    3    0  502  0.11337588242E+03 -0.25457958415E+02 -0.18293659000E+03  0.21676131279E+03  0.41800000000E+01 0. -1.
        -11    1    1    2    0    0  0.15098108607E+02  0.15366126695E+02 -0.10610495519E+03  0.10826971990E+03  0.00000000000E+00 0.  1.
         11    1    1    2    0    0 -0.11199465145E+03 -0.29035970428E+01 -0.45695061629E+03  0.47048389829E+03  0.00000000000E+00 0. -1.
</event>
<event>
 7    1  0.2522928E-009  0.9625255E+02  0.7561462E-02  0.1288380E+00
          1   -1    0    0  501    0  0.00000000000E+00  0.00000000000E+00  0.25948537605E+03  0.25948537605E+03  0.00000000000E+00 0. -1.
         -1   -1    0    0    0  501 -0.00000000000E+00 -0.00000000000E+00 -0.55883944707E+02  0.55883944707E+02  0.00000000000E+00 0.  1.
         25    2    1    2    0    0 -0.10503362947E+02 -0.74479594994E+01  0.17881891648E+03  0.21860163423E+03  0.12507868269E+03 0.  0.
          5    1    3    3  502    0 -0.14961918828E+01 -0.65340470879E+02  0.11102105421E+03  0.12889826455E+03  0.41800000000E+01 0.  1.
         -5    1    3    3    0  502 -0.90071710642E+01  0.57892511380E+02  0.67797862264E+02  0.89703369680E+02  0.41800000000E+01 0.  1.
        -11    1    1    2    0    0 -0.28682603935E+02  0.31164809797E+01 -0.21491594363E+02  0.35976281776E+02  0.00000000000E+00 0.  1.
         11    1    1    2    0    0  0.39185966882E+02  0.43314785197E+01  0.46274109224E+02  0.60791404747E+02  0.00000000000E+00 0. -1.
</event>
<event>
 7    1  0.2522928E-009  0.1390785E+03  0.7561462E-02  0.1214574E+00
         -2   -1    0    0    0  501 -0.00000000000E+00  0.00000000000E+00  0.50438271698E+02  0.50438271698E+02  0.00000000000E+00 0. -1.
          2   -1    0    0  501    0  0.00000000000E+00 -0.00000000000E+00 -0.61956543582E+03  0.61956543582E+03  0.00000000000E+00 0.  1.
         25    2    1    2    0    0 -0.12227336144E+03 -0.15928298973E+02 -0.16867760073E+03  0.24352478223E+03  0.12509077082E+03 0.  0.
          5    1    3    3  502    0 -0.12760711650E+03 -0.36569424950E+02 -0.17610025697E+03  0.22056670630E+03  0.41800000000E+01 0. -1.
         -5    1    3    3    0  502  0.53337550553E+01  0.20641125978E+02  0.74226562437E+01  0.22958075928E+02  0.41800000000E+01 0. -1.
        -11    1    1    2    0    0  0.43175989236E+02  0.98950149850E+01 -0.48429825087E+02  0.65631740233E+02  0.00000000000E+00 0. -1.
         11    1    1    2    0    0  0.79097372208E+02  0.60332839878E+01 -0.35201973831E+03  0.36084718506E+03  0.00000000000E+00 0.  1.
</event>
<event>
 7    1  0.2522928E-009  0.6991181E+02  0.7561462E-02  0.1360393E+00
         -1   -1    0    0    0  501 -0.00000000000E+00  0.00000000000E+00  0.81550621845E+02  0.81550621845E+02  0.00000000000E+00 0.  1.
          1   -1    0    0  501    0  0.00000000000E+00 -0.00000000000E+00 -0.16559980694E+03  0.16559980694E+03  0.00000000000E+00 0. -1.
         25    2    1    2    0    0 -0.34038056209E+02 -0.31244920804E+02 -0.48505006227E+02  0.14185426215E+03  0.12504024038E+03 0.  0.
          5    1    3    3  502    0 -0.13261535308E+02 -0.42936993445E+02  0.33593402272E+02  0.56262268005E+02  0.41800000000E+01 0. -1.
         -5    1    3    3    0  502 -0.20776520901E+02  0.11692072641E+02 -0.82098408499E+02  0.85591994143E+02  0.41800000000E+01 0. -1.
        -11    1    1    2    0    0 -0.13929360946E+02  0.13340335891E+02  0.21339399126E+02  0.28763894262E+02  0.00000000000E+00 0.  1.
         11    1    1    2    0    0  0.47967417155E+02  0.17904584913E+02 -0.56883577992E+02  0.76532272373E+02  0.00000000000E+00 0. -1.
</event>
<event>
 7    1  0.2522928E-009  0.1201928E+03  0.7561462E-02  0.1242779E+00
         -2   -1    0    0    0  501 -0.00000000000E+00  0.00000000000E+00  0.13861436130E+03  0.13861436130E+03  0.00000000000E+00 0.  1.
          2   -1    0    0  501    0  0.00000000000E+00 -0.00000000000E+00 -0.14713391954E+03  0.14713391954E+03  0.00000000000E+00 0. -1.
         25    2    1    2    0    0 -0.86060930239E+02 -0.31713831857E+02 -0.36339707710E+01  0.15515262880E+03  0.12508749592E+03 0.  0.
          5    1    3    3  502    0 -0.55931456835E+02  0.12287124915E+02  0.52365515394E+02  0.77710494175E+02  0.41800000000E+01 0.  1.
         -5    1    3    3    0  502 -0.30129473404E+02 -0.44000956772E+02 -0.55999486165E+02  0.77442134625E+02  0.41800000000E+01 0.  1.
        -11    1    1    2    0    0  0.10487889883E+03  0.34599463576E+02  0.16972946217E+01  0.11045174108E+03  0.00000000000E+00 0.  1.
         11    1    1    2    0    0 -0.18817968588E+02 -0.28856317188E+01 -0.65828820917E+01  0.20143910962E+02  0.00000000000E+00 0. -1.
</event>
<event>
 7    1  0.2522928E-009  0.1094225E+03  0.7561462E-02  0.1261643E+00
         -1   -1    0    0    0  501 -0.00000000000E+00  0.00000000000E+00  0.13245025767E+02  0.13245025767E+02  0.00000000000E+00 0.  1.
          1   -1    0    0  501    0  0.00000000000E+00 -0.00000000000E+00 -0.11030901421E+04  0.11030901421E+04  0.00000000000E+00 0. -1.
         25    2    1    2    0    0 -0.31914557940E+02 -0.14341563670E+02 -0.80764563160E+03  0.81802393335E+03  0.12508984707E+03 0.  0.
          5    1    3    3  502    0  0.44435413229E+02 -0.25018828017E+02 -0.38491924393E+03  0.38830496321E+03  0.41800000000E+01 0. -1.
         -5    1    3    3    0  502 -0.76349971169E+02  0.10677264346E+02 -0.42272638766E+03  0.42971897014E+03  0.41800000000E+01 0. -1.
        -11    1    1    2    0    0  0.59812705121E+02  0.16802230001E+01 -0.23119505237E+03  0.23881276156E+03  0.00000000000E+00 0. -1.
         11    1    1    2    0    0 -0.27898147180E+02  0.12661340670E+02 -0.51004432401E+02  0.59498472990E+02  0.00000000000E+00 0.  1.
</event>
<event>
 7    1  0.2522928E-009  0.1381352E+03  0.7561462E-02  0.1215860E+00
         -2   -1    0    0    0  501 -0.00000000000E+00  0.00000000000E+00  0.67917957990E+02  0.67917957990E+02  0.00000000000E+00 0.  1.
          2   -1    0    0  501    0  0.00000000000E+00 -0.00000000000E+00 -0.31911509157E+03  0.31911509157E+03  0.00000000000E+00 0. -1.
         25    2    1    2    0    0 -0.42140794652E+02  0.89742467525E+02 -0.12539638106E+03  0.20298498770E+03  0.12509634606E+03 0.  0.
          5    1    3    3  502    0 -0.77894592542E+02  0.21548009239E+02 -0.49941286055E+02  0.95097259173E+02  0.41800000000E+01 0. -1.
         -5    1    3    3    0  502  0.35753797891E+02  0.68194458286E+02 -0.75455095010E+02  0.10788772853E+03  0.41800000000E+01 0. -1.
        -11    1    1    2    0    0 -0.16966643389E+02 -0.13058053120E+02  0.43367513787E+01  0.21844613791E+02  0.00000000000E+00 0.  1.
         11    1    1    2    0    0  0.59107438041E+02 -0.76684414406E+02 -0.13013750390E+03  0.16220344807E+03  0.00000000000E+00 0. -1.
</event>
<event>
 6    1  0.2522928E-009  0.1083173E+03  0.7561462E-02  0.1263718E+00
          2   -1    0    0  501    0  0.00000000000E+00  0.00000000000E+00  0.37442045769E+02  0.37442045769E+02  0.00000000000E+00 0.  1.
         -2   -1    0    0    0  501 -0.00000000000E+00 -0.00000000000E+00 -0.42711421805E+03  0.42711421805E+03  0.00000000000E+00 0. -1.
          5    1    1    2  502    0 -0.64098869388E+00 -0.53331292244E+02 -0.95880110319E+02  0.10979574470E+03  0.41800000000E+01 0.  1.
         -5    1    1    2    0  502  0.27587248528E+02  0.65274334612E+02 -0.22751863467E+03  0.23833589021E+03  0.41800000000E+01 0.  1.
        -11    1    1    2    0    0 -0.29541158600E+02 -0.47803025834E+02 -0.24482248613E+02  0.61295920153E+02  0.00000000000E+00 0.  1.
         11    1    1    2    0    0  0.25948987653E+01  0.35859983465E+02 -0.41791178671E+02  0.55128708750E+02  0.00000000000E+00 0. -1.
</event>
<event>
 7    1  0.2522928E-009  0.1463852E+03  0.7561462E-02  0.1204986E+00
          3   -1    0    0  501    0  0.00000000000E+00  0.00000000000E+00  0.74420166236E+02  0.74420166236E+02  0.00000000000E+00 0. -1.
         -3   -1    0    0    0  501 -0.00000000000E+00 -0.00000000000E+00 -0.35685797168E+03  0.35685797168E+03  0.00000000000E+00 0.  1.
         25    2    1    2    0    0  0.95195662800E+02 -0.51461673606E+02 -0.22401763185E+03  0.27846627402E+03  0.12509615630E+03 0.  0.
          5    1    3    3  502    0  0.54859951598E+02  0.29774677640E+02 -0.42871312660E+02  0.75839089968E+02  0.41800000000E+01 0. -1.
         -5    1    3    3    0  502  0.40335711201E+02 -0.81236351246E+02 -0.18114631919E+03  0.20262718405E+03  0.41800000000E+01 0. -1.
        -11    1    1    2    0    0 -0.60357285572E+02 -0.16909168319E+02 -0.38398848287E+02  0.73507778123E+02  0.00000000000E+00 0.  1.
         11    1    1    2    0    0 -0.34838377228E+02  0.68370841925E+02 -0.20021325312E+02  0.79304085775E+02  0.00000000000E+00 0. -1.
</event>
<event>
 7    1  0.2522928E-009  0.2400375E+03  0.7561462E-02  0.1119768E+00
         -2   -1    0    0    0  501 -0.00000000000E+00  0.00000000000E+00  0.17737288939E+03  0.17737288939E+03  0.00000000000E+00 0.  1.
          2   -1    0    0  501    0  0.00000000000E+00 -0.00000000000E+00 -0.36475134522E+03  0.36475134522E+03  0.00000000000E+00 0. -1.
         25    2    1    2    0    0  0.55376218148E+02  0.22271361986E+03 -0.87515138339E+02  0.27563404167E+03  0.12508934199E+03 0.  0.
          5    1    3    3  502    0  0.30805220726E+02  0.52803819376E+02  0.29321008613E+02  0.67929367071E+02  0.41800000000E+01 0.  1.
         -5    1    3    3    0  502  0.24570997423E+02  0.16990980048E+03 -0.11683614695E+03  0.20770467460E+03  0.41800000000E+01 0.  1.
        -11    1    1    2    0    0 -0.47125300200E+02 -0.33837718620E+02 -0.23342832506E+02  0.62535373588E+02  0.00000000000E+00 0. -1.
         11    1    1    2    0    0 -0.82509179481E+01 -0.18887590124E+03 -0.76520484988E+02  0.20395481936E+03  0.00000000000E+00 0.  1.
</event>
<event>
 7    1  0.2522928E-009  0.1417260E+03  0.7561462E-02  0.1211025E+00
          2   -1    0    0  501    0  0.00000000000E+00  0.00000000000E+00  0.16874381707E+03  0.16874381707E+03  0.00000000000E+00 0.  1.
         -2   -1    0    0    0  501 -0.00000000000E+00 -0.00000000000E+00 -0.14289896117E+03  0.14289896117E+03  0.00000000000E+00 0. -1.
         25    2    1    2    0    0  0.43872685509E+02 -0.10143997316E+03  0.14110897112E+02  0.16751484576E+03  0.12508887018E+03 0.  0.
          5    1    3    3  502    0  0.21025480708E+02  0.17464870545E+02  0.34969140846E+02  0.44580329223E+02  0.41800000000E+01 0. -1.
         -5    1    3    3    0  502  0.22847204801E+02 -0.11890484370E+03 -0.20858243734E+02  0.12293451653E+03  0.41800000000E+01 0. -1.
        -11    1    1    2    0    0 -0.64821373174E+02  0.60536259975E+02 -0.16467358234E+02  0.90208774956E+02  0.00000000000E+00 0. -1.
         11    1    1    2    0    0  0.20948687665E+02  0.40903713184E+02  0.28201317017E+02  0.53919157529E+02  0.00000000000E+00 0.  1.
</event>
<event>
 7    1  0.2522928E-009  0.7880719E+02  0.7561462E-02  0.1332471E+00
          2   -1    0    0  501    0  0.00000000000E+00  0.00000000000E+00  0.15866925317E+03  0.15866925317E+03  0.00000000000E+00 0. -1.
         -2   -1    0    0    0  501 -0.00000000000E+00 -0.00000000000E+00 -0.93512003600E+02  0.93512003600E+02  0.00000000000E+00 0.  1.
         25    2    1    2    0    0 -0.49024813039E+01  0.47949251963E+02  0.55976674638E+01  0.13417203764E+03  0.12509051409E+03 0.  0.
          5    1    3    3  502    0  0.23420602990E+01  0.61827412408E+02  0.54560259521E+02  0.82597872191E+02  0.41800000000E+01 0. -1.
         -5    1    3    3    0  502 -0.72445416029E+01 -0.13878160445E+02 -0.48962592057E+02  0.51574165444E+02  0.41800000000E+01 0. -1.
        -11    1    1    2    0    0  0.19000716559E+02  0.87885267568E+01  0.55601750619E+02  0.59412289168E+02  0.00000000000E+00 0. -1.
         11    1    1    2    0    0 -0.14098235255E+02 -0.56737778720E+02  0.39578314874E+01  0.58596929966E+02  0.00000000000E+00 0.  1.
</event>
<event>
 7    1  0.2522928E-009  0.1359145E+03  0.7561462E-02  0.1218935E+00
         -2   -1    0    0    0  501 -0.00000000000E+00  0.00000000000E+00  0.19362052720E+03  0.19362052720E+03  0.00000000000E+00 0.  1.
          2   -1    0    0  501    0  0.00000000000E+00 -0.00000000000E+00 -0.11843725310E+03  0.11843725310E+03  0.00000000000E+00 0. -1.
         25    2    1    2    0    0 -0.94860594258E+02 -0.21993350646E+02  0.83736136242E+02  0.17927947768E+03  0.12508857178E+03 0.  0.
          5    1    3    3  502    0 -0.33987752342E+02 -0.62085614588E+02  0.78947862231E+02  0.10611328003E+03  0.41800000000E+01 0. -1.
         -5    1    3    3    0  502 -0.60872841915E+02  0.40092263942E+02  0.47882740109E+01  0.73166197652E+02  0.41800000000E+01 0. -1.
        -11    1    1    2    0    0  0.57312328699E+02  0.53874929391E+02  0.11691309618E+02  0.79522938567E+02  0.00000000000E+00 0.  1.
         11    1    1    2    0    0  0.37548265559E+02 -0.31881578745E+02 -0.20244171763E+02  0.53255364050E+02  0.00000000000E+00 0. -1.
</event>
<event>
 7    1  0.2522928E-009  0.1000921E+03  0.7561462E-02  0.1280102E+00
          1   -1    0    0  501    0  0.00000000000E+00  0.00000000000E+00  0.27589908027E+02  0.27589908027E+02  0.00000000000E+00 0. -1.
         -1   -1    0    0    0  501 -0.00000000000E+00 -0.00000000000E+00 -0.70333312446E+03  0.70333312446E+03  0.00000000000E+00 0.  1.
         25    2    1    2    0    0 -0.10681396145E+02 -0.70272906936E+02 -0.33538452686E+03  0.36494176669E+03  0.12508932226E+03 0.  0.
          5    1    3    3  502    0 -0.46624274492E+01 -0.14456080244E+02  0.75129756691E+01  0.17453758596E+02  0.41800000000E+01 0.  1.
         -5    1    3    3    0  502 -0.60189686961E+01 -0.55816826692E+02 -0.34289750253E+03  0.34748800809E+03  0.41800000000E+01 0.  1.
        -11    1    1    2    0    0  0.39099461389E+01 -0.28682434807E+02 -0.13309875011E+03  0.13621030440E+03  0.00000000000E+00 0. -1.
         11    1    1    2    0    0  0.67714500063E+01  0.98955341742E+02 -0.20725993947E+03  0.22977096140E+03  0.00000000000E+00 0.  1.
</event>
<event>
 7    1  0.2522928E-009  0.1015720E+03  0.7561462E-02  0.1277024E+00
         -1   -1    0    0    0  501 -0.00000000000E+00  0.00000000000E+00  0.15366231856E+02  0.15366231856E+02  0.00000000000E+00 0.  1.
          1   -1    0    0  501    0  0.00000000000E+00 -0.00000000000E+00 -0.11512465034E+04  0.11512465034E+04  0.00000000000E+00 0. -1.
         25    2    1    2    0    0  0.26637026684E+02 -0.15877730959E+02 -0.94312317396E+03  0.95188747755E+03  0.12508723009E+03 0.  0.
          5    1    3    3  502    0  0.60896209211E+02 -0.44826747544E+02 -0.73804015478E+03  0.74191544535E+03  0.41800000000E+01 0. -1.
         -5    1    3    3    0  502 -0.34259182527E+02  0.28949016585E+02 -0.20508301918E+03  0.20997203220E+03  0.41800000000E+01 0. -1.
        -11    1    1    2    0    0 -0.31046462055E+02 -0.25853963018E+02 -0.42170310143E+02  0.58400730024E+02  0.00000000000E+00 0.  1.
         11    1    1    2    0    0  0.44094353711E+01  0.41731693977E+02 -0.15058678749E+03  0.15632452773E+03  0.00000000000E+00 0. -1.
</event>
<event>
 7    1  0.2522928E-009  0.1508513E+03  0.7561462E-02  0.1199431E+00
         -1   -1    0    0    0  501 -0.00000000000E+00  0.00000000000E+00  0.93533839990E+02  0.93533839990E+02  0.00000000000E+00 0.  1.
          1   -1    0    0  501    0  0.00000000000E+00 -0.00000000000E+00 -0.29997005060E+03  0.29997005060E+03  0.00000000000E+00 0. -1.
         25    2    1    2    0    0  0.73726730807E+02  0.10106976890E+03 -0.13873958723E+03  0.22482534960E+03  0.12508811189E+03 0.  0.
          5    1    3    3  502    0  0.10420669067E+03  0.48642268385E+02 -0.10215745566E+03  0.15387892253E+03  0.41800000000E+01 0.  1.
         -5    1    3    3    0  502 -0.30479959861E+02  0.52427500512E+02 -0.36582131575E+02  0.70946427067E+02  0.41800000000E+01 0.  1.
        -11    1    1    2    0    0 -0.57080131182E+02 -0.67736326352E+02  0.31459076972E+01  0.88635478329E+02  0.00000000000E+00 0.  1.
         11    1    1    2    0    0 -0.16646599625E+02 -0.33333442545E+02 -0.70842531071E+02  0.80043062657E+02  0.00000000000E+00 0. -1.
</event>
<event>
 7    1  0.2522928E-009  0.1349898E+03  0.7561462E-02  0.1220234E+00
          2   -1    0    0  501    0  0.00000000000E+00  0.00000000000E+00  0.11973311925E+04  0.11973311925E+04  0.00000000000E+00 0. -1.
         -2   -1    0    0    0  501 -0.00000000000E+00 -0.00000000000E+00 -0.19059607980E+02  0.19059607980E+02  0.00000000000E+00 0.  1.
         25    2    1    2    0    0 -0.84507372526E+02 -0.22179154110E+02  0.88791997692E+03  0.90093432093E+03  0.12508938537E+03 0.  0.
          5    1    3    3  502    0 -0.88764292316E+02  0.34560278916E+02  0.53399147732E+03  0.54243698502E+03  0.41800000000E+01 0. -1.
         -5    1    3    3    0  502  0.42569197894E+01 -0.56739433026E+02  0.35392849960E+03  0.35849733592E+03  0.41800000000E+01 0. -1.
        -11    1    1    2    0    0  0.67363059435E+02  0.50695266394E+02  0.24576324966E+03  0.25982179796E+03  0.00000000000E+00 0.  1.
         11    1    1    2    0    0  0.17144313091E+02 -0.28516112284E+02  0.44588357917E+02  0.55634681565E+02  0.00000000000E+00 0. -1.
</event>
<event>
 7    1  0.2522928E-009  0.2190994E+03  0.7561462E-02  0.1134556E+00
         -1   -1    0    0    0  501 -0.00000000000E+00  0.00000000000E+00  0.37508298048E+03  0.37508298048E+03  0.00000000000E+00 0.  1.
          1   -1    0    0  501    0  0.00000000000E+00 -0.00000000000E+00 -0.15837936402E+03  0.15837936402E+03  0.00000000000E+00 0. -1.
         25    2    1    2    0    0  0.62526244340E+02  0.19967879766E+03  0.44796807169E+02  0.24786410373E+03  0.12509479014E+03 0.  0.
          5    1    3    3  502    0  0.84488060314E+02  0.18112988163E+03  0.67866450244E+01  0.20002449176E+03  0.41800000000E+01 0. -1.
         -5    1    3    3    0  502 -0.21961815974E+02  0.18548916028E+02  0.38010162145E+02  0.47839611965E+02  0.41800000000E+01 0. -1.
        -11    1    1    2    0    0 -0.23084281770E+02 -0.72771437642E+02  0.12143803058E+03  0.14344253718E+03  0.00000000000E+00 0.  1.
         11    1    1    2    0    0 -0.39441962570E+02 -0.12690736002E+03  0.50468778713E+02  0.14215570359E+03  0.00000000000E+00 0. -1.
</event>
<event>
 7    1  0.2522928E-009  0.9472701E+02  0.7561462E-02  0.1291792E+00
         -2   -1    0    0    0  501 -0.00000000000E+00  0.00000000000E+00  0.32875467526E+03  0.32875467526E+03  0.00000000000E+00 0. -1.
          2   -1    0    0  501    0  0.00000000000E+00 -0.00000000000E+00 -0.46553981018E+02  0.46553981018E+02  0.00000000000E+00 0.  1.
         25    2    1    2    0    0 -0.21806933440E+02  0.24316061471E+02  0.82913061083E+02  0.15357013898E+03  0.12506957543E+03 0.  0.
          5    1    3    3  502    0 -0.45827584733E+02  0.43202637431E+02 -0.20804639493E+01  0.63154066644E+02  0.41800000000E+01 0. -1.
         -5    1    3    3    0  502  0.24020651293E+02 -0.18886575960E+02  0.84993525032E+02  0.90416072340E+02  0.41800000000E+01 0. -1.
        -11    1    1    2    0    0  0.40985919114E+02 -0.49226237744E+02  0.15209480476E+03  0.16503301998E+03  0.00000000000E+00 0. -1.
         11    1    1    2    0    0 -0.19178985674E+02  0.24910176273E+02  0.47192828396E+02  0.56705497313E+02  0.00000000000E+00 0.  1.
</event>
<event>
 7    1  0.2522928E-009  0.1790375E+03  0.7561462E-02  0.1168738E+00
          2   -1    0    0  501    0  0.00000000000E+00  0.00000000000E+00  0.68928772843E+03  0.68928772843E+03  0.00000000000E+00 0. -1.
         -2   -1    0    0    0  501 -0.00000000000E+00 -0.00000000000E+00 -0.52056752390E+02  0.52056752390E+02  0.00000000000E+00 0.  1.
         25    2    1    2    0    0  0.13138909239E+03  0.74312986073E+02  0.40813527141E+03  0.45277708508E+03  0.12508867057E+03 0.  0.
          5    1    3    3  502    0  0.13946814600E+03  0.19984415978E+02  0.29459636342E+03  0.32658112373E+03  0.41800000000E+01 0. -1.
         -5    1    3    3    0  502 -0.80790536070E+01  0.54328570095E+02  0.11353890798E+03  0.12619596135E+03  0.41800000000E+01 0. -1.
        -11    1    1    2    0    0 -0.11601256699E+03 -0.37147683744E+02  0.21274241116E+03  0.24514934145E+03  0.00000000000E+00 0. -1.
         11    1    1    2    0    0 -0.15376525404E+02 -0.37165302329E+02  0.16353293465E+02  0.43418054285E+02  0.00000000000E+00 0.  1.
</event>
<event>
 7    1  0.2522928E-009  0.1029277E+03  0.7561462E-02  0.1274257E+00
          1   -1    0    0  501    0  0.00000000000E+00  0.00000000000E+00  0.56580625088E+03  0.56580625088E+03  0.00000000000E+00 0. -1.
         -1   -1    0    0    0  501 -0.00000000000E+00 -0.00000000000E+00 -0.37636402029E+02  0.37636402029E+02  0.00000000000E+00 0.  1.
         25    2    1    2    0    0  0.33975135920E+02 -0.31383082397E+02  0.11226550204E+03  0.17433544488E+03  0.12510034641E+03 0.  0.
          5    1    3    3  502    0  0.62469520397E+02 -0.35714201695E+02  0.16098218980E+02  0.73855062357E+02  0.41800000000E+01 0. -1.
         -5    1    3    3    0  502 -0.28494384478E+02  0.43311192978E+01  0.96167283061E+02  0.10048038253E+03  0.41800000000E+01 0. -1.
        -11    1    1    2    0    0 -0.21102235009E+01  0.61067348603E+02  0.21356329124E+03  0.22213273841E+03  0.00000000000E+00 0.  1.
         11    1    1    2    0    0 -0.31864912419E+02 -0.29684266206E+02  0.20234105558E+03  0.20697446963E+03  0.00000000000E+00 0. -1.
</event>
<event>
 7    1  0.2522928E-009  0.1250040E+03  0.7561462E-02  0.1235063E+00
         -1   -1    0    0    0  501 -0.00000000000E+00  0.00000000000E+00  0.21303759418E+03  0.21303759418E+03  0.00000000000E+00 0.  1.
          1   -1    0    0  501    0  0.00000000000E+00 -0.00000000000E+00 -0.10378963687E+03  0.10378963687E+03  0.00000000000E+00 0. -1.
         25    2    1    2    0    0 -0.41645359283E+02 -0.66175052184E+02 -0.10383995022E+02  0.14788175117E+03  0.12509081300E+03 0.  0.
          5    1    3    3  502    0 -0.76493559698E+02 -0.22148084820E+02 -0.34171638491E+02  0.86758144365E+02  0.41800000000E+01 0. -1.
         -5    1    3    3    0  502  0.34848200415E+02 -0.44026967364E+02  0.23787643469E+02  0.61123606808E+02  0.41800000000E+01 0. -1.
        -11    1    1    2    0    0  0.52561050008E+02  0.61167315893E+01  0.31002568719E+02  0.61328929963E+02  0.00000000000E+00 0. -1.
         11    1    1    2    0    0 -0.10915690724E+02  0.60058320595E+02  0.88629383610E+02  0.10761654992E+03  0.00000000000E+00 0.  1.
</event>
<event>
 7    1  0.2522928E-009  0.1470450E+03  0.7561462E-02  0.1204152E+00
         -1   -1    0    0    0  501 -0.00000000000E+00  0.00000000000E+00  0.59737628828E+03  0.59737628828E+03  0.00000000000E+00 0.  1.
          1   -1    0    0  501    0  0.00000000000E+00 -0.00000000000E+00 -0.41146619747E+02  0.41146619747E+02  0.00000000000E+00 0. -1.
         25    2    1    2    0    0  0.57939365774E+02 -0.89299025299E+02  0.22178486527E+03  0.27598553299E+03  0.12509277331E+03 0.  0.
          5    1    3    3  502    0 -0.35392378770E+02 -0.92123179583E+00  0.48366850406E+02  0.60085720111E+02  0.41800000000E+01 0.  1.
         -5    1    3    3    0  502  0.93331744543E+02 -0.88377793503E+02  0.17341801486E+03  0.21589981288E+03  0.41800000000E+01 0.  1.
        -11    1    1    2    0    0  0.17292151414E+02  0.27459770506E+02  0.15509488354E+03  0.15845340135E+03  0.00000000000E+00 0. -1.
         11    1    1    2    0    0 -0.75231517187E+02  0.61839254793E+02  0.17934991972E+03  0.20408397368E+03  0.00000000000E+00 0.  1.
</event>
<event>
 7    1  0.2522928E-009  0.1306948E+03  0.7561462E-02  0.1226428E+00
         -3   -1    0    0    0  501 -0.00000000000E+00  0.00000000000E+00  0.17033058232E+03  0.17033058232E+03  0.00000000000E+00 0.  1.
          3   -1    0    0  501    0  0.00000000000E+00 -0.00000000000E+00 -0.12875793247E+03  0.12875793247E+03  0.00000000000E+00 0. -1.
         25    2    1    2    0    0  0.94740286263E+02  0.26069814138E+02  0.30883777317E+01  0.15909639427E+03  0.12508703987E+03 0.  0.
          5    1    3    3  502    0  0.11961245928E+02 -0.29839060430E+02  0.40915473580E+02  0.52201430151E+02  0.41800000000E+01 0.  1.
         -5    1    3    3    0  502  0.82779040335E+02  0.55908874569E+02 -0.37827095848E+02  0.10689496412E+03  0.41800000000E+01 0.  1.
        -11    1    1    2    0    0 -0.71098343994E+02  0.22833744772E+02  0.41790008246E+02  0.85573121996E+02  0.00000000000E+00 0.  1.
         11    1    1    2    0    0 -0.23641942269E+02 -0.48903558911E+02 -0.33057361324E+01  0.54418998518E+02  0.00000000000E+00 0. -1.
</event>
<event>
 7    1  0.2522928E-009  0.1092338E+03  0.7561462E-02  0.1261995E+00
         -2   -1    0    0    0  501 -0.00000000000E+00  0.00000000000E+00  0.20024601643E+03  0.20024601643E+03  0.00000000000E+00 0.  1.
          2   -1    0    0  501    0  0.00000000000E+00 -0.00000000000E+00 -0.24865742422E+03  0.24865742422E+03  0.00000000000E+00 0. -1.
         25    2    1    2    0    0 -0.42360900821E+02 -0.60774142690E+02 -0.20393582501E+03  0.25044471511E+03  0.12507914402E+03 0.  0.
          5    1    3    3  502    0 -0.40397734289E+02 -0.93914604261E+02 -0.10768900546E+03  0.14854738007E+03  0.41800000000E+01 0. -1.
         -5    1    3    3    0  502 -0.19631665317E+01  0.33140461571E+02 -0.96246819548E+02  0.10189733504E+03  0.41800000000E+01 0. -1.
        -11    1    1    2    0    0  0.49200881257E+02  0.52492122116E+02  0.16754457096E+03  0.18233851173E+03  0.00000000000E+00 0.  1.
         11    1    1    2    0    0 -0.68399804366E+01  0.82820205744E+01 -0.12020153743E+02  0.16120213807E+02  0.00000000000E+00 0. -1.
</event>
<event>
 7    1  0.2522928E-009  0.1530645E+03  0.7561462E-02  0.1196757E+00
         -2   -1    0    0    0  501 -0.00000000000E+00  0.00000000000E+00  0.55360830579E+02  0.55360830579E+02  0.00000000000E+00 0. -1.
          2   -1    0    0  501    0  0.00000000000E+00 -0.00000000000E+00 -0.53955852120E+03  0.53955852120E+03  0.00000000000E+00 0.  1.
         25    2    1    2    0    0  0.12051120143E+03 -0.41580511508E+02 -0.18096211369E+03  0.25425599381E+03  0.12508770999E+03 0.  0.
          5    1    3    3  502    0 -0.90786932094E+00 -0.56045301763E+02 -0.54329743800E+02  0.78173483597E+02  0.41800000000E+01 0. -1.
         -5    1    3    3    0  502  0.12141907075E+03  0.14464790256E+02 -0.12663236989E+03  0.17608251021E+03  0.41800000000E+01 0. -1.
        -11    1    1    2    0    0 -0.49874398879E+02  0.14735059490E+02 -0.22864326134E+03  0.23448308808E+03  0.00000000000E+00 0.  1.
         11    1    1    2    0    0 -0.70636802547E+02  0.26845452018E+02 -0.74592315596E+02  0.10618026989E+03  0.00000000000E+00 0. -1.
</event>
<event>
 7    1  0.2522928E-009  0.6505042E+02  0.7561462E-02  0.1377782E+00
          1   -1    0    0  501    0  0.00000000000E+00  0.00000000000E+00  0.37582284233E+02  0.37582284233E+02  0.00000000000E+00 0. -1.
         -1   -1    0    0    0  501 -0.00000000000E+00 -0.00000000000E+00 -0.35865020487E+03  0.35865020487E+03  0.00000000000E+00 0.  1.
         25    2    1    2    0    0  0.35125662673E+02 -0.22709408251E+00 -0.14157203073E+03  0.19215671447E+03  0.12509076418E+03 0.  0.
          5    1    3    3  502    0 -0.44515721374E+01 -0.15382944193E+01  0.22477943726E+02  0.23343375899E+02  0.41800000000E+01 0.  1.
         -5    1    3    3    0  502  0.39577234811E+02  0.13112003368E+01 -0.16404997445E+03  0.16881333857E+03  0.41800000000E+01 0.  1.
        -11    1    1    2    0    0  0.22052623276E+02 -0.12581594392E+02 -0.11132327884E+03  0.11418181608E+03  0.00000000000E+00 0.  1.
         11    1    1    2    0    0 -0.57178285949E+02  0.12808688475E+02 -0.68172611067E+02  0.89893958552E+02  0.00000000000E+00 0. -1.
</event>
<event>
 7    1  0.2522928E-009  0.1499259E+03  0.7561462E-02  0.1200564E+00
          1   -1    0    0  501    0  0.00000000000E+00  0.00000000000E+00  0.89464886157E+02  0.89464886157E+02  0.00000000000E+00 0. -1.
         -1   -1    0    0    0  501 -0.00000000000E+00 -0.00000000000E+00 -0.63036003597E+03  0.63036003597E+03  0.00000000000E+00 0.  1.
         25    2    1    2    0    0 -0.10575409360E+02 -0.12257947112E+03 -0.53921466622E+03  0.56704243168E+03  0.12508835693E+03 0.  0.
          5    1    3    3  502    0  0.36875037221E+02 -0.12178547913E+03 -0.37262091585E+03  0.39377060660E+03  0.41800000000E+01 0. -1.
         -5    1    3    3    0  502 -0.47450446581E+02 -0.79399199611E+00 -0.16659375037E+03  0.17327182508E+03  0.41800000000E+01 0. -1.
        -11    1    1    2    0    0  0.16317385453E+02  0.64418582832E+02 -0.44808403929E+02  0.80148636574E+02  0.00000000000E+00 0.  1.
         11    1    1    2    0    0 -0.57419760927E+01  0.58160888291E+02  0.43127920332E+02  0.72633853873E+02  0.00000000000E+00 0. -1.
</event>
<event>
 7    1  0.2522928E-009  0.1124465E+03  0.7561462E-02  0.1256105E+00
          1   -1    0    0  501    0  0.00000000000E+00  0.00000000000E+00  0.11206783807E+03  0.11206783807E+03  0.00000000000E+00 0. -1.
         -1   -1    0    0    0  501 -0.00000000000E+00 -0.00000000000E+00 -0.16290244333E+03  0.16290244333E+03  0.00000000000E+00 0.  1.
         25    2    1    2    0    0 -0.46786506983E+02 -0.19233907431E+02  0.34852398392E+02  0.13936065878E+03  0.12509109924E+03 0.  0.
          5    1    3    3  502    0 -0.10270851779E+02  0.45603242236E+02 -0.15488976203E+02  0.49421927143E+02  0.41800000000E+01 0. -1.
         -5    1    3    3    0  502 -0.36515655204E+02 -0.64837149666E+02  0.50341374595E+02  0.89938731634E+02  0.41800000000E+01 0. -1.
        -11    1    1    2    0    0  0.12314429092E+02  0.53456257375E+02 -0.33320441077E+02  0.64183085076E+02  0.00000000000E+00 0. -1.
         11    1    1    2    0    0  0.34472077891E+02 -0.34222349944E+02 -0.52366562576E+02  0.71426537546E+02  0.00000000000E+00 0.  1.
</event>
<event>
 7    1  0.2522928E-009  0.7687131E+02  0.7561462E-02  0.1338172E+00
         -1   -1    0    0    0  501 -0.00000000000E+00  0.00000000000E+00  0.16809546115E+03  0.16809546115E+03  0.00000000000E+00 0.  1.
          1   -1    0    0  501    0  0.00000000000E+00 -0.00000000000E+00 -0.73664760557E+02  0.73664760557E+02  0.00000000000E+00 0. -1.
         25    2    1    2    0    0 -0.17035072994E+02 -0.11127397400E+02  0.72821189312E+02  0.14615868381E+03  0.12508166355E+03 0.  0.
          5    1    3    3  502    0 -0.37650405575E+02 -0.20135692108E+02  0.10107393016E+03  0.10980168894E+03  0.41800000000E+01 0. -1.
         -5    1    3    3    0  502  0.20615332581E+02  0.90082947086E+01 -0.28252740846E+02  0.36356994874E+02  0.41800000000E+01 0. -1.
        -11    1    1    2    0    0 -0.15255562315E+02  0.41138361251E+02  0.26484179361E+02  0.51249475162E+02  0.00000000000E+00 0.  1.
         11    1    1    2    0    0  0.32290635309E+02 -0.30010963851E+02 -0.48746680771E+01  0.44352062734E+02  0.00000000000E+00 0. -1.
</event>
<event>
 7    1  0.2522928E-009  0.3541582E+03  0.7561462E-02  0.1060921E+00
          2   -1    0    0  501    0  0.00000000000E+00  0.00000000000E+00  0.18448308148E+04  0.18448308148E+04  0.00000000000E+00 0. -1.
         -2   -1    0    0    0  501 -0.00000000000E+00 -0.00000000000E+00 -0.83138610402E+02  0.83138610402E+02  0.00000000000E+00 0.  1.
         25    2    1    2    0    0  0.32230059134E+03 -0.13995421098E+03  0.12210863879E+04  0.12767788198E+04  0.12508931064E+03 0.  0.
          5    1    3    3  502    0  0.18903313513E+03 -0.48986107424E+02  0.47804815280E+03  0.51641134156E+03  0.41800000000E+01 0. -1.
         -5    1    3    3    0  502  0.13326745621E+03 -0.90968103560E+02  0.74303823513E+03  0.76036747827E+03  0.41800000000E+01 0. -1.
        -11    1    1    2    0    0 -0.66398507083E+02  0.23534512738E+02  0.18444183374E+03  0.19743714206E+03  0.00000000000E+00 0. -1.
         11    1    1    2    0    0 -0.25590208426E+03  0.11641969824E+03  0.35616398272E+03  0.45375346329E+03  0.00000000000E+00 0.  1.
</event>
<event>
 7    1  0.2522928E-009  0.1562824E+03  0.7561462E-02  0.1192959E+00
          1   -1    0    0  501    0  0.00000000000E+00  0.00000000000E+00  0.13132567667E+04  0.13132567667E+04  0.00000000000E+00 0. -1.
         -1   -1    0    0    0  501 -0.00000000000E+00 -0.00000000000E+00 -0.19914900995E+02  0.19914900995E+02  0.00000000000E+00 0.  1.
         25    2    1    2    0    0 -0.35769890594E+02 -0.11436383405E+03  0.67138641416E+03  0.69337263463E+03  0.12508925503E+03 0.  0.
          5    1    3    3  502    0  0.49623107992E+01 -0.12212523752E+03  0.38466390602E+03  0.40363720241E+03  0.41800000000E+01 0.  1.
         -5    1    3    3    0  502 -0.40732201393E+02  0.77614034712E+01  0.28672250814E+03  0.28973543223E+03  0.41800000000E+01 0.  1.
        -11    1    1    2    0    0  0.22673092660E+02 -0.91032185555E+01  0.13950354092E+03  0.14162688886E+03  0.00000000000E+00 0.  1.
         11    1    1    2    0    0  0.13096797934E+02  0.12346705261E+03  0.48245191060E+03  0.49817214418E+03  0.00000000000E+00 0. -1.
</event>
<event>
 7    1  0.2522928E-009  0.9195260E+02  0.7561462E-02  0.1298191E+00
         -2   -1    0    0    0  501 -0.00000000000E+00  0.00000000000E+00  0.23050568282E+02  0.23050568282E+02  0.00000000000E+00 0.  1.
          2   -1    0    0  501    0  0.00000000000E+00 -0.00000000000E+00 -0.67472333353E+03  0.67472333353E+03  0.00000000000E+00 0. -1.
         25    2    1    2    0    0 -0.49004474776E+02  0.26430929692E+02 -0.51494840235E+03  0.53284156265E+03  0.12509293028E+03 0.  0.
          5    1    3    3  502    0 -0.76923559189E+01 -0.44639951981E+02 -0.10075261220E+03  0.11054618455E+03  0.41800000000E+01 0. -1.
         -5    1    3    3    0  502 -0.41312118857E+02  0.71070881673E+02 -0.41419579015E+03  0.42229537810E+03  0.41800000000E+01 0. -1.
        -11    1    1    2    0    0  0.13312781262E+02 -0.10782670300E+02  0.50810134300E+01  0.17869326266E+02  0.00000000000E+00 0.  1.
         11    1    1    2    0    0  0.35691693514E+02 -0.15648259392E+02 -0.14180537633E+03  0.14706301290E+03  0.00000000000E+00 0. -1.
</event>
<event>
 7    1  0.2522928E-009  0.1153706E+03  0.7561462E-02  0.1250936E+00
          2   -1    0    0  501    0  0.00000000000E+00  0.00000000000E+00  0.68816982379E+03  0.68816982379E+03  0.00000000000E+00 0. -1.
         -2   -1    0    0    0  501 -0.00000000000E+00 -0.00000000000E+00 -0.32387949933E+02  0.32387949933E+02  0.00000000000E+00 0.  1.
         25    2    1    2    0    0 -0.76038432099E+02  0.19431849314E+02  0.51009215728E+03  0.53104414957E+03  0.12511770441E+03 0.  0.
          5    1    3    3  502    0  0.59414048358E+01  0.55297245460E+02  0.15173295620E+03  0.16165843017E+03  0.41800000000E+01 0.  1.
         -5    1    3    3    0  502 -0.81979836935E+02 -0.35865396146E+02  0.35835920107E+03  0.36938571940E+03  0.41800000000E+01 0.  1.
        -11    1    1    2    0    0  0.13611130820E+02  0.94850008099E+01 -0.99505614428E+01  0.19345330072E+02  0.00000000000E+00 0.  1.
         11    1    1    2    0    0  0.62427301280E+02 -0.28916850124E+02  0.15564027802E+03  0.17016829408E+03  0.00000000000E+00 0. -1.
</event>
<event>
 7    1  0.2522928E-009  0.1906738E+03  0.7561462E-02  0.1157855E+00
         -2   -1    0    0    0  501 -0.00000000000E+00  0.00000000000E+00  0.97316648527E+02  0.97316648527E+02  0.00000000000E+00 0.  1.
          2   -1    0    0  501    0  0.00000000000E+00 -0.00000000000E+00 -0.57925888782E+03  0.57925888782E+03  0.00000000000E+00 0. -1.
         25    2    1    2    0    0  0.17150470267E+03  0.78675183361E+02 -0.11487677798E+03  0.25386606393E+03  0.12509059430E+03 0.  0.
          5    1    3    3  502    0  0.89737963059E+02  0.60277380138E+02 -0.12944028450E+03  0.16869654478E+03  0.41800000000E+01 0. -1.
         -5    1    3    3    0  502  0.81766739614E+02  0.18397803222E+02  0.14563506521E+02  0.85169519153E+02  0.41800000000E+01 0. -1.
        -11    1    1    2    0    0 -0.19720824340E+02 -0.14388819838E+02 -0.14004944837E+03  0.14216116572E+03  0.00000000000E+00 0. -1.
         11    1    1    2    0    0 -0.15178387833E+03 -0.64286363523E+02 -0.22701601294E+03  0.28054830669E+03  0.00000000000E+00 0.  1.
</event>
<event>
 7    1  0.2522928E-009  0.1309578E+03  0.7561462E-02  0.1226041E+00
          2   -1    0    0  501    0  0.00000000000E+00  0.00000000000E+00  0.38324812690E+02  0.38324812690E+02  0.00000000000E+00 0. -1.
         -2   -1    0    0    0  501 -0.00000000000E+00 -0.00000000000E+00 -0.48146861216E+03  0.48146861216E+03  0.00000000000E+00 0.  1.
         25    2    1    2    0    0 -0.47812390244E+02  0.65178976232E+02 -0.22581770139E+03  0.27050951773E+03  0.12508973306E+03 0.  0.
          5    1    3    3  502    0  0.91975368236E+01 -0.32923233692E+02 -0.40364031828E+02  0.53059037550E+02  0.41800000000E+01 0.  1.
         -5    1    3    3    0  502 -0.57009927068E+02  0.98102209924E+02 -0.18545366956E+03  0.21745048018E+03  0.41800000000E+01 0.  1.
        -11    1    1    2    0    0  0.16493631352E+02  0.18382957561E+02 -0.93148830528E+02  0.96367409598E+02  0.00000000000E+00 0.  1.
         11    1    1    2    0    0  0.31318758892E+02 -0.83561933793E+02 -0.12417726755E+03  0.15291649752E+03  0.00000000000E+00 0. -1.
</event>
<event>
 7    1  0.3225675E-009  0.1169366E+03  0.7561462E-02  0.1248238E+00
         -1   -1    0    0    0  501 -0.00000000000E+00  0.00000000000E+00  0.35554661133E+02  0.35554661133E+02  0.00000000000E+00 0.  1.
          1   -1    0    0  501    0  0.00000000000E+00 -0.00000000000E+00 -0.50559420637E+03  0.50559420637E+03  0.00000000000E+00 0. -1.
         25    2    1    2    0    0  0.12005821059E+02  0.67487773000E+02 -0.18077449192E+03  0.23026813591E+03  0.12508100672E+03 0.  0.
          5    1    3    3  502    0  0.34902634459E+02 -0.26858243217E+02 -0.71077895276E+02  0.83720360234E+02  0.41800000000E+01 0. -1.
         -5    1    3    3    0  502 -0.22896813400E+02  0.94346016217E+02 -0.10969659665E+03  0.14654777568E+03  0.41800000000E+01 0. -1.
        -11    1    1    2    0    0 -0.36775702166E+02 -0.50304531549E+02 -0.26486682610E+03  0.27209820604E+03  0.00000000000E+00 0. -1.
         11    1    1    2    0    0  0.24769881107E+02 -0.17183241451E+02 -0.24398227220E+02  0.38782525553E+02  0.00000000000E+00 0.  1.
</event>
<event>
 7    1  0.2522928E-009  0.1572129E+03  0.7561462E-02  0.1191880E+00
          1   -1    0    0  501    0  0.00000000000E+00  0.00000000000E+00  0.40917093389E+03  0.40917093389E+03  0.00000000000E+00 0. -1.
         -1   -1    0    0    0  501 -0.00000000000E+00 -0.00000000000E+00 -0.15331102802E+03  0.15331102802E+03  0.00000000000E+00 0.  1.
         25    2    1    2    0    0  0.13521193211E+03 -0.41231222956E+02 -0.65960411364E+02  0.19995192706E+03  0.12509083474E+03 0.  0.
          5    1    3    3  502    0  0.31757927878E+02 -0.50857913601E+02  0.21746217522E+02  0.63917632430E+02  0.41800000000E+01 0.  1.
         -5    1    3    3    0  502  0.10345400423E+03  0.96266906452E+01 -0.87706628886E+02  0.13603429463E+03  0.41800000000E+01 0.  1.
        -11    1    1    2    0    0 -0.25927350669E+02  0.31237292413E+02  0.29193647185E+02  0.50002649789E+02  0.00000000000E+00 0.  1.
         11    1    1    2    0    0 -0.10928458144E+03  0.99939305430E+01  0.29262667006E+03  0.31252738507E+03  0.00000000000E+00 0. -1.
</event>
<event>
 7    1  0.2522928E-009  0.2224561E+03  0.7561462E-02  0.1132065E+00
         -1   -1    0    0    0  501 -0.00000000000E+00  0.00000000000E+00  0.34534990444E+03  0.34534990444E+03  0.00000000000E+00 0.  1.
          1   -1    0    0  501    0  0.00000000000E+00 -0.00000000000E+00 -0.15373340077E+03  0.15373340077E+03  0.00000000000E+00 0. -1.
         25    2    1    2    0    0  0.17446389538E+03 -0.90517728631E+02  0.15588215917E+03  0.28031828600E+03  0.12509190195E+03 0.  0.
          5    1    3    3  502    0  0.12099301462E+03  0.67128904789E+01  0.70614762126E+02  0.14031496540E+03  0.41800000000E+01 0. -1.
         -5    1    3    3    0  502  0.53470880762E+02 -0.97230619110E+02  0.85267397043E+02  0.14000332060E+03  0.41800000000E+01 0. -1.
        -11    1    1    2    0    0 -0.22736861477E+02 -0.15503715799E+02  0.17855165683E+02  0.32804527355E+02  0.00000000000E+00 0.  1.
         11    1    1    2    0    0 -0.15172703390E+03  0.10602144443E+03  0.17879178811E+02  0.18596049185E+03  0.00000000000E+00 0. -1.
</event>
<event>
 7    1  0.2522928E-009  0.1110800E+03  0.7561462E-02  0.1258583E+00
          2   -1    0    0  501    0  0.00000000000E+00  0.00000000000E+00  0.74821059185E+03  0.74821059185E+03  0.00000000000E+00 0. -1.
         -2   -1    0    0    0  501 -0.00000000000E+00 -0.00000000000E+00 -0.19761155910E+02  0.19761155910E+02  0.00000000000E+00 0.  1.
         25    2    1    2    0    0 -0.12662061279E+02  0.26545215287E+02  0.55574848041E+03  0.57041121081E+03  0.12509036608E+03 0.  0.
          5    1    3    3  502    0 -0.56121558593E+02 -0.24451340578E+02  0.26204621234E+03  0.26913414350E+03  0.41800000000E+01 0.  1.
         -5    1    3    3    0  502  0.43459497314E+02  0.50996555865E+02  0.29370226807E+03  0.30127706731E+03  0.41800000000E+01 0.  1.
        -11    1    1    2    0    0  0.22342243636E+02 -0.57259486527E+02  0.91707379006E+02  0.11039958339E+03  0.00000000000E+00 0. -1.
         11    1    1    2    0    0 -0.96801823570E+01  0.30714271240E+02  0.80993576515E+02  0.87160953557E+02  0.00000000000E+00 0.  1.
</event>
<event>
 7    1  0.2522928E-009  0.1591936E+03  0.7561462E-02  0.1189610E+00
          2   -1    0    0  501    0  0.00000000000E+00  0.00000000000E+00  0.60776644258E+03  0.60776644258E+03  0.00000000000E+00 0. -1.
         -2   -1    0    0    0  501 -0.00000000000E+00 -0.00000000000E+00 -0.53584411016E+02  0.53584411016E+02  0.00000000000E+00 0.  1.
         25    2    1    2    0    0  0.12191462466E+03 -0.69604413200E+02  0.23171419813E+03  0.29840738677E+03  0.12509016276E+03 0.  0.
          5    1    3    3  502    0  0.10322909220E+03 -0.65879843171E+01  0.20022748902E+03  0.22540666976E+03  0.41800000000E+01 0. -1.
         -5    1    3    3    0  502  0.18685532463E+02 -0.63016428883E+02  0.31486709109E+02  0.73000717004E+02  0.41800000000E+01 0. -1.
        -11    1    1    2    0    0 -0.10480323426E+03  0.35163223894E+02  0.29677007027E+03  0.31669014009E+03  0.00000000000E+00 0. -1.
         11    1    1    2    0    0 -0.17111390404E+02  0.34441189306E+02  0.25697763169E+02  0.46253326737E+02  0.00000000000E+00 0.  1.
</event>
<event>
 7    1  0.2522928E-009  0.1628517E+03  0.7561462E-02  0.1185514E+00
          1   -1    0    0  501    0  0.00000000000E+00  0.00000000000E+00  0.53412434090E+02  0.53412434090E+02  0.00000000000E+00 0. -1.
         -1   -1    0    0    0  501 -0.00000000000E+00 -0.00000000000E+00 -0.92997612590E+03  0.92997612590E+03  0.00000000000E+00 0.  1.
         25    2    1    2    0    0 -0.17587863901E+02  0.13513818821E+03 -0.75737748156E+03  0.77963877031E+03  0.12507717507E+03 0.  0.
          5    1    3    3  502    0  0.51681801258E+02  0.33052157968E+02 -0.26015691199E+03  0.26732479305E+03  0.41800000000E+01 0.  1.
         -5    1    3    3    0  502 -0.69269665158E+02  0.10208603024E+03 -0.49722056958E+03  0.51231397725E+03  0.41800000000E+01 0.  1.
        -11    1    1    2    0    0 -0.10706169668E+02 -0.47103835988E+02 -0.97442000162E+02  0.10875815753E+03  0.00000000000E+00 0.  1.
         11    1    1    2    0    0  0.28294033568E+02 -0.88034352219E+02 -0.21744210085E+02  0.94991632150E+02  0.00000000000E+00 0. -1.
</event>
<event>
 7    1  0.2522928E-009  0.1992194E+03  0.7561462E-02  0.1150399E+00
          2   -1    0    0  501    0  0.00000000000E+00  0.00000000000E+00  0.17776232017E+04  0.17776232017E+04  0.00000000000E+00 0. -1.
         -2   -1    0    0    0  501 -0.00000000000E+00 -0.00000000000E+00 -0.26151634076E+02  0.26151634076E+02  0.00000000000E+00 0.  1.
         25    2    1    2    0    0  0.13209756133E+03 -0.12281635493E+03  0.10952036321E+04  0.11169835267E+04  0.12509028966E+03 0.  0.
          5    1    3    3  502    0  0.14532639702E+03 -0.79349336067E+02  0.96269342540E+03  0.97683784863E+03  0.41800000000E+01 0. -1.
         -5    1    3    3    0  502 -0.13228835684E+02 -0.43467018863E+02  0.13251020667E+03  0.14014567812E+03  0.41800000000E+01 0. -1.
        -11    1    1    2    0    0 -0.24986783937E+02  0.54990365660E+02  0.35236044929E+03  0.35749988240E+03  0.00000000000E+00 0. -1.
         11    1    1    2    0    0 -0.10711077739E+03  0.67825989270E+02  0.30390748630E+03  0.32929142668E+03  0.00000000000E+00 0.  1.
</event>
<event>
 7    1  0.2522928E-009  0.8787561E+02  0.7561462E-02  0.1308079E+00
         -2   -1    0    0    0  501 -0.00000000000E+00  0.00000000000E+00  0.58097825478E+02  0.58097825478E+02  0.00000000000E+00 0.  1.
          2   -1    0    0  501    0  0.00000000000E+00 -0.00000000000E+00 -0.17853573780E+03  0.17853573780E+03  0.00000000000E+00 0. -1.
         25    2    1    2    0    0 -0.94793429174E+01 -0.11558143518E+02 -0.11188173784E+03  0.16848896437E+03  0.12509020437E+03 0.  0.
          5    1    3    3  502    0 -0.51736162169E+02 -0.46369164565E+02 -0.49637226190E+02  0.85487171682E+02  0.41800000000E+01 0.  1.
         -5    1    3    3    0  502  0.42256819251E+02  0.34811021046E+02 -0.62244511651E+02  0.83001792693E+02  0.41800000000E+01 0.  1.
        -11    1    1    2    0    0  0.12384675142E+02 -0.17831125997E+02  0.18172923333E+02  0.28312265454E+02  0.00000000000E+00 0.  1.
         11    1    1    2    0    0 -0.29053322243E+01  0.29389269515E+02 -0.26729097813E+02  0.39832333447E+02  0.00000000000E+00 0. -1.
</event>
<event>
 7    1  0.2522928E-009  0.1228830E+03  0.7561462E-02  0.1238415E+00
          2   -1    0    0  501    0  0.00000000000E+00  0.00000000000E+00  0.20768649420E+03  0.20768649420E+03  0.00000000000E+00 0. -1.
         -2   -1    0    0    0  501 -0.00000000000E+00 -0.00000000000E+00 -0.12120551227E+03  0.12120551227E+03  0.00000000000E+00 0.  1.
         25    2    1    2    0    0  0.10462564173E+03 -0.27570982826E+02  0.10085766045E+02  0.16568808236E+03  0.12507651242E+03 0.  0.
          5    1    3    3  502    0  0.76577049665E+02  0.16952181182E+02  0.55403247457E+02  0.96116664585E+02  0.41800000000E+01 0. -1.
         -5    1    3    3    0  502  0.28048592068E+02 -0.44523164008E+02 -0.45317481411E+02  0.69571417779E+02  0.41800000000E+01 0. -1.
        -11    1    1    2    0    0 -0.29822635772E+02  0.26081306957E+02  0.78960168609E+02  0.88342132665E+02  0.00000000000E+00 0.  1.
         11    1    1    2    0    0 -0.74803005962E+02  0.14896758687E+01 -0.25649527272E+01  0.74861791440E+02  0.00000000000E+00 0. -1.
</event>
<event>
 7    1  0.2522928E-009  0.1308144E+03  0.7561462E-02  0.1226252E+00
          1   -1    0    0  501    0  0.00000000000E+00  0.00000000000E+00  0.43310985984E+03  0.43310985984E+03  0.00000000000E+00 0. -1.
         -1   -1    0    0    0  501 -0.00000000000E+00 -0.00000000000E+00 -0.51711879657E+02  0.51711879657E+02  0.00000000000E+00 0.  1.
         25    2    1    2    0    0  0.59551168304E+01 -0.10025064032E+03  0.17581424291E+03  0.23799998557E+03  0.12509073037E+03 0.  0.
          5    1    3    3  502    0 -0.49710000818E+02 -0.19649677417E+02  0.27628135803E+02  0.60315672026E+02  0.41800000000E+01 0.  1.
         -5    1    3    3    0  502  0.55665117648E+02 -0.80600962900E+02  0.14818610710E+03  0.17768431355E+03  0.41800000000E+01 0.  1.
        -11    1    1    2    0    0  0.19609283547E+02  0.45362103871E+02  0.23093631884E+02  0.54548696615E+02  0.00000000000E+00 0.  1.
         11    1    1    2    0    0 -0.25564400378E+02  0.54888536446E+02  0.18249010540E+03  0.19227305731E+03  0.00000000000E+00 0. -1.
</event>
<event>
 7    1  0.2522928E-009  0.3550389E+03  0.7561462E-02  0.1060566E+00
          2   -1    0    0  501    0  0.00000000000E+00  0.00000000000E+00  0.19693561337E+04  0.19693561337E+04  0.00000000000E+00 0. -1.
         -2   -1    0    0    0  501 -0.00000000000E+00 -0.00000000000E+00 -0.66918690309E+02  0.66918690309E+02  0.00000000000E+00 0.  1.
         25    2    1    2    0    0 -0.30888646810E+03  0.15258928644E+03  0.86654501834E+03  0.94087251609E+03  0.12508589931E+03 0.  0.
          5    1    3    3  502    0 -0.13230623413E+03  0.61372303977E+01  0.39148031087E+03  0.41330002587E+03  0.41800000000E+01 0. -1.
         -5    1    3    3    0  502 -0.17658023397E+03  0.14645205605E+03  0.47506470748E+03  0.52757249022E+03  0.41800000000E+01 0. -1.
        -11    1    1    2    0    0  0.23925839507E+03 -0.93801580347E+02  0.65145102288E+03  0.70030832588E+03  0.00000000000E+00 0.  1.
         11    1    1    2    0    0  0.69628073029E+02 -0.58787706096E+02  0.38444140215E+03  0.39509398202E+03  0.00000000000E+00 0. -1.
</event>
<event>
 7    1  0.2522928E-009  0.1145153E+03  0.7561462E-02  0.1252430E+00
         -2   -1    0    0    0  501 -0.00000000000E+00  0.00000000000E+00  0.51459313471E+02  0.51459313471E+02  0.00000000000E+00 0.  1.
          2   -1    0    0  501    0  0.00000000000E+00 -0.00000000000E+00 -0.43520265900E+03  0.43520265900E+03  0.00000000000E+00 0. -1.
         25    2    1    2    0    0  0.75126936765E+02  0.86835296342E+01 -0.32202842950E+03  0.35365121058E+03  0.12508960397E+03 0.  0.
          5    1    3    3  502    0  0.53627797346E+02 -0.55070234466E+02 -0.14396225064E+03  0.16325217727E+03  0.41800000000E+01 0.  1.
         -5    1    3    3    0  502  0.21499139419E+02  0.63753764100E+02 -0.17806617886E+03  0.19039903331E+03  0.41800000000E+01 0.  1.
        -11    1    1    2    0    0 -0.70633766620E+02  0.44337386585E+01 -0.10490537948E+01  0.70780559049E+02  0.00000000000E+00 0.  1.
         11    1    1    2    0    0 -0.44931701445E+01 -0.13117268293E+02 -0.60665862225E+02  0.62230202835E+02  0.00000000000E+00 0. -1.
</event>
<event>
 7    1  0.2522928E-009  0.1109377E+03  0.7561462E-02  0.1258843E+00
         -2   -1    0    0    0  501 -0.00000000000E+00  0.00000000000E+00  0.28472774734E+02  0.28472774734E+02  0.00000000000E+00 0.  1.
          2   -1    0    0  501    0  0.00000000000E+00 -0.00000000000E+00 -0.57583705123E+03  0.57583705123E+03  0.00000000000E+00 0. -1.
         25    2    1    2    0    0  0.69451541752E+02  0.93957673540E+00 -0.31172077035E+03  0.34299040213E+03  0.12509267694E+03 0.  0.
          5    1    3    3  502    0  0.98002807708E+02 -0.45920339928E+01 -0.15463450043E+03  0.18318007047E+03  0.41800000000E+01 0. -1.
         -5    1    3    3    0  502 -0.28551265956E+02  0.55316107282E+01 -0.15708626993E+03  0.15981033166E+03  0.41800000000E+01 0. -1.
        -11    1    1    2    0    0 -0.22153991843E+01  0.22862952249E+02 -0.10702089555E+02  0.25340822794E+02  0.00000000000E+00 0.  1.
         11    1    1    2    0    0 -0.67236142568E+02 -0.23802528984E+02 -0.22494141659E+03  0.23597860104E+03  0.00000000000E+00 0. -1.
</event>
<event>
 7    1  0.2522928E-009  0.1525168E+03  0.7561462E-02  0.1197414E+00
          1   -1    0    0  501    0  0.00000000000E+00  0.00000000000E+00  0.54876903415E+03  0.54876903415E+03  0.00000000000E+00 0.  1.
         -1   -1    0    0    0  501 -0.00000000000E+00 -0.00000000000E+00 -0.50751411849E+02  0.50751411849E+02  0.00000000000E+00 0. -1.
         25    2    1    2    0    0 -0.29215117444E+02 -0.10882869143E+03  0.16065792358E+03  0.23271427733E+03  0.12509100406E+03 0.  0.
          5    1    3    3  502    0  0.14688507267E+01  0.25916526037E+02  0.46495925110E+02  0.53415047469E+02  0.41800000000E+01 0.  1.
         -5    1    3    3    0  502 -0.30683968171E+02 -0.13474521746E+03  0.11416199847E+03  0.17929922986E+03  0.41800000000E+01 0.  1.
        -11    1    1    2    0    0  0.57620535880E+02  0.88295737371E+02  0.21398513762E+03  0.23854958083E+03  0.00000000000E+00 0. -1.
         11    1    1    2    0    0 -0.28405418436E+02  0.20532954055E+02  0.12337456109E+03  0.12825658784E+03  0.00000000000E+00 0.  1.
</event>
<event>
 7    1  0.2522928E-009  0.9470845E+02  0.7561462E-02  0.1291834E+00
         -2   -1    0    0    0  501 -0.00000000000E+00  0.00000000000E+00  0.37951256114E+02  0.37951256114E+02  0.00000000000E+00 0.  1.
          2   -1    0    0  501    0  0.00000000000E+00 -0.00000000000E+00 -0.67093502366E+03  0.67093502366E+03  0.00000000000E+00 0. -1.
         25    2    1    2    0    0 -0.42654918920E+02 -0.41963592936E+02 -0.11753958683E+03  0.18178143978E+03  0.12509417306E+03 0.  0.
          5    1    3    3  502    0  0.85581853387E+01 -0.22229964556E+02 -0.12402254271E+03  0.12635852706E+03  0.41800000000E+01 0. -1.
         -5    1    3    3    0  502 -0.51213104259E+02 -0.19733628380E+02  0.64829558760E+01  0.55422912715E+02  0.41800000000E+01 0. -1.
        -11    1    1    2    0    0  0.72209113439E+02  0.32217058046E+02 -0.36140836287E+03  0.36995688890E+03  0.00000000000E+00 0.  1.
         11    1    1    2    0    0 -0.29554194519E+02  0.97465348901E+01 -0.15403581785E+03  0.15714795110E+03  0.00000000000E+00 0. -1.
</event>
<event>
 7    1  0.2522928E-009  0.7180331E+02  0.7561462E-02  0.1354066E+00
         -1   -1    0    0    0  501 -0.00000000000E+00  0.00000000000E+00  0.22238347844E+03  0.22238347844E+03  0.00000000000E+00 0.  1.
          1   -1    0    0  501    0  0.00000000000E+00 -0.00000000000E+00 -0.57110153015E+02  0.57110153015E+02  0.00000000000E+00 0. -1.
         25    2    1    2    0    0 -0.15307900186E+02 -0.78884049337E+01  0.12672557444E+03  0.17889540240E+03  0.12509050739E+03 0.  0.
          5    1    3    3  502    0  0.28853408069E+02 -0.23255755562E+02  0.12657003609E+03  0.13194997446E+03  0.41800000000E+01 0. -1.
         -5    1    3    3    0  502 -0.44161308255E+02  0.15367350628E+02  0.15553835377E+00  0.46945427938E+02  0.41800000000E+01 0. -1.
        -11    1    1    2    0    0 -0.80415242594E+01 -0.20845593336E+02  0.55536056153E+02  0.59861994679E+02  0.00000000000E+00 0.  1.
         11    1    1    2    0    0  0.23349424445E+02  0.28733998270E+02 -0.16988305174E+02  0.40736234376E+02  0.00000000000E+00 0. -1.
</event>
<event>
 7    1  0.2522928E-009  0.1140231E+03  0.7561462E-02  0.1253296E+00
         -2   -1    0    0    0  501 -0.00000000000E+00  0.00000000000E+00  0.29368471719E+02  0.29368471719E+02  0.00000000000E+00 0.  1.
          2   -1    0    0  501    0  0.00000000000E+00 -0.00000000000E+00 -0.47044426838E+03  0.47044426838E+03  0.00000000000E+00 0. -1.
         25    2    1    2    0    0 -0.45681244204E+02  0.15351863249E+02 -0.24800537160E+03  0.28191652925E+03  0.12509120412E+03 0.  0.
          5    1    3    3  502    0 -0.68194674973E+02 -0.32162574480E+02 -0.18455504274E+03  0.19940657234E+03  0.41800000000E+01 0. -1.
         -5    1    3    3    0  502  0.22513430769E+02  0.47514437729E+02 -0.63450328854E+02  0.82509956910E+02  0.41800000000E+01 0. -1.
        -11    1    1    2    0    0 -0.11161749818E+02 -0.37239518759E+02 -0.59254227431E+02  0.70869103881E+02  0.00000000000E+00 0.  1.
         11    1    1    2    0    0  0.56842994022E+02  0.21887655510E+02 -0.13381619763E+03  0.14702710696E+03  0.00000000000E+00 0. -1.
</event>
<event>
 7    1  0.2522928E-009  0.1070586E+03  0.7561462E-02  0.1266116E+00
         -4   -1    0    0    0  501 -0.00000000000E+00  0.00000000000E+00  0.59611223457E+02  0.59611223457E+02  0.00000000000E+00 0.  1.
          4   -1    0    0  501    0  0.00000000000E+00 -0.00000000000E+00 -0.23262433896E+03  0.23262433896E+03  0.00000000000E+00 0. -1.
         25    2    1    2    0    0 -0.12862357391E+02  0.16953709281E+02 -0.56974118554E+02  0.13909403267E+03  0.12509289046E+03 0.  0.
          5    1    3    3  502    0 -0.62910221818E+02  0.32865175840E+02 -0.47655003357E+02  0.85593735385E+02  0.41800000000E+01 0. -1.
         -5    1    3    3    0  502  0.50047864427E+02 -0.15911466559E+02 -0.93191151975E+01  0.53500297287E+02  0.41800000000E+01 0. -1.
        -11    1    1    2    0    0  0.38735227852E+02  0.21259671099E+02 -0.89733231369E+02  0.10002221905E+03  0.00000000000E+00 0. -1.
         11    1    1    2    0    0 -0.25872870461E+02 -0.38213380380E+02 -0.26305765582E+02  0.53119310696E+02  0.00000000000E+00 0.  1.
</event>
<event>
 7    1  0.2522928E-009  0.1704004E+03  0.7561462E-02  0.1177431E+00
         -1   -1    0    0    0  501 -0.00000000000E+00  0.00000000000E+00  0.40674519129E+02  0.40674519129E+02  0.00000000000E+00 0.  1.
          1   -1    0    0  501    0  0.00000000000E+00 -0.00000000000E+00 -0.97032026350E+03  0.97032026350E+03  0.00000000000E+00 0. -1.
         25    2    1    2    0    0  0.13965677091E+03 -0.76124087798E+02 -0.36041775484E+03  0.41333696542E+03  0.12509036165E+03 0.  0.
          5    1    3    3  502    0  0.69490649835E+02 -0.31462386426E+02 -0.30224903926E+03  0.31175436854E+03  0.41800000000E+01 0.  1.
         -5    1    3    3    0  502  0.70166121077E+02 -0.44661701373E+02 -0.58168715583E+02  0.10158259688E+03  0.41800000000E+01 0.  1.
        -11    1    1    2    0    0 -0.25891654395E+02 -0.19578071742E+02 -0.12826740853E+03  0.13231102279E+03  0.00000000000E+00 0.  1.
         11    1    1    2    0    0 -0.11376511652E+03  0.95702159541E+02 -0.44096058100E+03  0.46534679442E+03  0.00000000000E+00 0. -1.
</event>
<event>
 7    1  0.2915266E-009  0.9068177E+02  0.7561462E-02  0.1301209E+00
          2   -1    0    0  501    0  0.00000000000E+00  0.00000000000E+00  0.63432802091E+03  0.63432802091E+03  0.00000000000E+00 0. -1.
         -2   -1    0    0    0  501 -0.00000000000E+00 -0.00000000000E+00 -0.32077883207E+02  0.32077883207E+02  0.00000000000E+00 0.  1.
         25    2    1    2    0    0  0.34262673464E+02  0.63837164926E+02  0.46208719377E+03  0.48417077630E+03  0.12509057342E+03 0.  0.
          5    1    3    3  502    0  0.37584147418E+02  0.81173913112E+02  0.17565480833E+03  0.19716454143E+03  0.41800000000E+01 0. -1.
         -5    1    3    3    0  502 -0.33214739546E+01 -0.17336748185E+02  0.28643238544E+03  0.28700623487E+03  0.41800000000E+01 0. -1.
        -11    1    1    2    0    0 -0.15928291820E+02 -0.43330551210E+02  0.14684221684E+03  0.15392817739E+03  0.00000000000E+00 0. -1.
         11    1    1    2    0    0 -0.18334381644E+02 -0.20506613716E+02 -0.66792728994E+01  0.28306950433E+02  0.00000000000E+00 0.  1.
</event>
<event>
 7    1  0.2522928E-009  0.1301093E+03  0.7561462E-02  0.1227294E+00
          2   -1    0    0  501    0  0.00000000000E+00  0.00000000000E+00  0.32404160915E+03  0.32404160915E+03  0.00000000000E+00 0. -1.
         -2   -1    0    0    0  501 -0.00000000000E+00 -0.00000000000E+00 -0.25503376003E+03  0.25503376003E+03  0.00000000000E+00 0.  1.
         25    2    1    2    0    0  0.38494180344E+02 -0.82945593665E+02 -0.21606198648E+03  0.26588008695E+03  0.12509062796E+03 0.  0.
          5    1    3    3  502    0 -0.20486026028E+02 -0.88964363167E+02 -0.99890523671E+02  0.13538805078E+03  0.41800000000E+01 0.  1.
         -5    1    3    3    0  502  0.58980206372E+02  0.60187695018E+01 -0.11617146281E+03  0.13049203616E+03  0.41800000000E+01 0.  1.
        -11    1    1    2    0    0 -0.37208936064E+02  0.12963143272E+02  0.32409279839E+02  0.51018716430E+02  0.00000000000E+00 0.  1.
         11    1    1    2    0    0 -0.12852442793E+01  0.69982450393E+02  0.25266055577E+03  0.26217656580E+03  0.00000000000E+00 0. -1.
</event>
<event>
 7    1  0.2522928E-009  0.2645912E+03  0.7561462E-02  0.1104416E+00
         -1   -1    0    0    0  501 -0.00000000000E+00  0.00000000000E+00  0.18743802296E+03  0.18743802296E+03  0.00000000000E+00 0.  1.
          1   -1    0    0  501    0  0.00000000000E+00 -0.00000000000E+00 -0.41963524704E+03  0.41963524704E+03  0.00000000000E+00 0. -1.
         25    2    1    2    0    0 -0.19643287826E+03 -0.16329951943E+03 -0.77267081801E+02  0.29473768557E+03  0.12508993827E+03 0.  0.
          5    1    3    3  502    0 -0.12594892543E+03 -0.15010850963E+03 -0.99155363735E+02  0.21964734244E+03  0.41800000000E+01 0.  1.
         -5    1    3    3    0  502 -0.70483952828E+02 -0.13191009797E+02  0.21888281933E+02  0.75090343132E+02  0.41800000000E+01 0.  1.
        -11    1    1    2    0    0  0.57787405862E+02  0.83013333558E+02 -0.20518526888E+02  0.10320662658E+03  0.00000000000E+00 0.  1.
         11    1    1    2    0    0  0.13864547240E+03  0.80286185873E+02 -0.13441161539E+03  0.20912895785E+03  0.00000000000E+00 0. -1.
</event>
<event>
 7    1  0.2522928E-009  0.8388379E+02  0.7561462E-02  0.1318378E+00
          1   -1    0    0  501    0  0.00000000000E+00  0.00000000000E+00  0.10582938907E+03  0.10582938907E+03  0.00000000000E+00 0. -1.
         -1   -1    0    0    0  501 -0.00000000000E+00 -0.00000000000E+00 -0.11451136451E+03  0.11451136451E+03  0.00000000000E+00 0.  1.
         25    2    1    2    0    0 -0.23621964996E+01 -0.15042973094E+02  0.13874823485E+02  0.12677206029E+03  0.12508706381E+03 0.  0.
          5    1    3    3  502    0  0.37564094528E+01  0.34622377768E+02 -0.39948346987E+02  0.53161663643E+02  0.41800000000E+01 0. -1.
         -5    1    3    3    0  502 -0.61186059524E+01 -0.49665350862E+02  0.53823170473E+02  0.73610396649E+02  0.41800000000E+01 0. -1.
        -11    1    1    2    0    0  0.16079766877E+02 -0.30735395982E+02  0.95710403107E+01  0.35983722453E+02  0.00000000000E+00 0. -1.
         11    1    1    2    0    0 -0.13717570377E+02  0.45778369076E+02 -0.32127839235E+02  0.57584970836E+02  0.00000000000E+00 0.  1.
</event>
<event>
 7    1  0.2522928E-009  0.3963697E+03  0.7561462E-02  0.1045044E+00
          2   -1    0    0  501    0  0.00000000000E+00  0.00000000000E+00  0.35633513597E+03  0.35633513597E+03  0.00000000000E+00 0. -1.
         -2   -1    0    0    0  501 -0.00000000000E+00 -0.00000000000E+00 -0.44683200271E+03  0.44683200271E+03  0.00000000000E+00 0.  1.
         25    2    1    2    0    0 -0.25255059294E+03 -0.28736317081E+03 -0.75630131057E+02  0.40954608751E+03  0.12509471267E+03 0.  0.
          5    1    3    3  502    0 -0.25650208792E+03 -0.22928660072E+03 -0.61904798187E+02  0.34959311036E+03  0.41800000000E+01 0. -1.
         -5    1    3    3    0  502  0.39514949789E+01 -0.58076570088E+02 -0.13725332870E+02  0.59952977142E+02  0.41800000000E+01 0. -1.
        -11    1    1    2    0    0  0.13792919053E+03  0.21273065459E+03 -0.32905922408E+02  0.25565913387E+03  0.00000000000E+00 0.  1.
         11    1    1    2    0    0  0.11462140241E+03  0.74632516214E+02  0.18039186733E+02  0.13796191730E+03  0.00000000000E+00 0. -1.
</event>
<event>
 7    1  0.2522928E-009  0.9115503E+02  0.7561462E-02  0.1300078E+00
         -2   -1    0    0    0  501 -0.00000000000E+00  0.00000000000E+00  0.23586808666E+02  0.23586808666E+02  0.00000000000E+00 0.  1.
          2   -1    0    0  501    0  0.00000000000E+00 -0.00000000000E+00 -0.63959224090E+03  0.63959224090E+03  0.00000000000E+00 0. -1.
         25    2    1    2    0    0  0.11831951416E+02  0.19259659510E+02 -0.48959452679E+03  0.50582724386E+03  0.12508984934E+03 0.  0.
          5    1    3    3  502    0  0.22949474256E+00  0.72401617535E+02 -0.28559027184E+03  0.29465458194E+03  0.41800000000E+01 0. -1.
         -5    1    3    3    0  502  0.11602456674E+02 -0.53141958025E+02 -0.20400425495E+03  0.21117266192E+03  0.41800000000E+01 0. -1.
        -11    1    1    2    0    0 -0.31371333479E+02 -0.69255215973E+01 -0.35331601988E+01  0.32320374915E+02  0.00000000000E+00 0.  1.
         11    1    1    2    0    0  0.19539382063E+02 -0.12334137913E+02 -0.12287774525E+03  0.12503143079E+03  0.00000000000E+00 0. -1.
</event>
<event>
 7    1  0.2522928E-009  0.4146275E+03  0.7561462E-02  0.1038829E+00
          2   -1    0    0  501    0  0.00000000000E+00  0.00000000000E+00  0.34936942033E+03  0.34936942033E+03  0.00000000000E+00 0. -1.
         -2   -1    0    0    0  501 -0.00000000000E+00 -0.00000000000E+00 -0.50930222010E+03  0.50930222010E+03  0.00000000000E+00 0.  1.
         25    2    1    2    0    0  0.33892271260E+03  0.22222860633E+03 -0.12539455948E+03  0.44229663886E+03  0.12509341555E+03 0.  0.
          5    1    3    3  502    0  0.34507488519E+03  0.20558393382E+03 -0.13211999973E+03  0.42286475020E+03  0.41800000000E+01 0.  1.
         -5    1    3    3    0  502 -0.61521725833E+01  0.16644672514E+02  0.67254402518E+01  0.19431888667E+02  0.41800000000E+01 0.  1.
        -11    1    1    2    0    0 -0.96673641241E+02 -0.33753946184E+02 -0.38559853511E+02  0.10941656226E+03  0.00000000000E+00 0. -1.
         11    1    1    2    0    0 -0.24224907136E+03 -0.18847466015E+03  0.40216132202E+01  0.30695843932E+03  0.00000000000E+00 0.  1.
</event>
<event>
 7    1  0.2522928E-009  0.9614080E+02  0.7561462E-02  0.1288627E+00
         -1   -1    0    0    0  501 -0.00000000000E+00  0.00000000000E+00  0.32126058228E+02  0.32126058228E+02  0.00000000000E+00 0.  1.
          1   -1    0    0  501    0  0.00000000000E+00 -0.00000000000E+00 -0.42151400786E+03  0.42151400786E+03  0.00000000000E+00 0. -1.
         25    2    1    2    0    0 -0.54141895334E+01  0.18343814133E+02 -0.15038539862E+03  0.19654117052E+03  0.12508738795E+03 0.  0.
          5    1    3    3  502    0 -0.18634532918E+02 -0.44774184901E+02 -0.23293657556E+02  0.53963323961E+02  0.41800000000E+01 0. -1.
         -5    1    3    3    0  502  0.13220343385E+02  0.63117999034E+02 -0.12709174107E+03  0.14257784656E+03  0.41800000000E+01 0. -1.
        -11    1    1    2    0    0 -0.15761132424E+02 -0.43401626262E+02 -0.63254505002E+02  0.78315048749E+02  0.00000000000E+00 0.  1.
         11    1    1    2    0    0  0.21175321958E+02  0.25057812129E+02 -0.17574804600E+03  0.17878384682E+03  0.00000000000E+00 0. -1.
</event>
<event>
 7    1  0.2522928E-009  0.1299584E+03  0.7561462E-02  0.1227517E+00
         -2   -1    0    0    0  501 -0.00000000000E+00  0.00000000000E+00  0.31165620670E+02  0.31165620670E+02  0.00000000000E+00 0.  1.
          2   -1    0    0  501    0  0.00000000000E+00 -0.00000000000E+00 -0.55057717030E+03  0.55057717030E+03  0.00000000000E+00 0. -1.
         25    2    1    2    0    0 -0.46347334516E+02  0.57327339071E+02 -0.29437660398E+03  0.32823647894E+03  0.12508837640E+03 0.  0.
          5    1    3    3  502    0 -0.30091076874E+02 -0.36763674900E+02 -0.74133524265E+02  0.88149262728E+02  0.41800000000E+01 0. -1.
         -5    1    3    3    0  502 -0.16256257642E+02  0.94091013971E+02 -0.22024307972E+03  0.24008721621E+03  0.41800000000E+01 0. -1.
        -11    1    1    2    0    0 -0.86318856402E+01  0.19991454894E+02 -0.45677278296E+02  0.50602188402E+02  0.00000000000E+00 0.  1.
         11    1    1    2    0    0  0.54979220157E+02 -0.77318793965E+02 -0.17935766735E+03  0.20290412363E+03  0.00000000000E+00 0. -1.
</event>
<event>
 7    1  0.2522928E-009  0.1202458E+03  0.7561462E-02  0.1242692E+00
          1   -1    0    0  501    0  0.00000000000E+00  0.00000000000E+00  0.22042187887E+03  0.22042187887E+03  0.00000000000E+00 0. -1.
         -1   -1    0    0    0  501 -0.00000000000E+00 -0.00000000000E+00 -0.83588501458E+02  0.83588501458E+02  0.00000000000E+00 0.  1.
         25    2    1    2    0    0  0.37501385789E+02 -0.37555425384E+02  0.54237873077E+01  0.13599791720E+03  0.12509697079E+03 0.  0.
          5    1    3    3  502    0  0.20953346242E+02  0.45937490664E+02  0.13616827576E+01  0.50681577986E+02  0.41800000000E+01 0. -1.
         -5    1    3    3    0  502  0.16548039547E+02 -0.83492916048E+02  0.40621045501E+01  0.85316339211E+02  0.41800000000E+01 0. -1.
        -11    1    1    2    0    0 -0.83827127497E+01  0.64436450305E+02  0.78420529917E+02  0.10184353447E+03  0.00000000000E+00 0.  1.
         11    1    1    2    0    0 -0.29118673039E+02 -0.26881024921E+02  0.52989060183E+02  0.66168928656E+02  0.00000000000E+00 0. -1.
</event>
<event>
 7    1  0.2522928E-009  0.2978905E+03  0.7561462E-02  0.1086300E+00
         -2   -1    0    0    0  501 -0.00000000000E+00  0.00000000000E+00  0.52237856188E+02  0.52237856188E+02  0.00000000000E+00 0.  1.
          2   -1    0    0  501    0  0.00000000000E+00 -0.00000000000E+00 -0.18064139754E+04  0.18064139754E+04  0.00000000000E+00 0. -1.
         25    2    1    2    0    0  0.17088370342E+03 -0.23002295667E+03 -0.83683124325E+03  0.89333424208E+03  0.12509091776E+03 0.  0.
          5    1    3    3  502    0  0.11175653639E+03 -0.22041329171E+03 -0.59789442527E+03  0.64696735525E+03  0.41800000000E+01 0.  1.
         -5    1    3    3    0  502  0.59127167033E+02 -0.96096649607E+01 -0.23893681798E+03  0.24636688683E+03  0.41800000000E+01 0.  1.
        -11    1    1    2    0    0 -0.55028331348E+02  0.10207900123E+03 -0.24329729999E+03  0.26952145726E+03  0.00000000000E+00 0.  1.
         11    1    1    2    0    0 -0.11585537207E+03  0.12794395544E+03 -0.67404757601E+03  0.69579613228E+03  0.00000000000E+00 0. -1.
</event>
<event>
 7    1  0.2522928E-009  0.1410834E+03  0.7561462E-02  0.1211879E+00
          2   -1    0    0  501    0  0.00000000000E+00  0.00000000000E+00  0.39460628827E+03  0.39460628827E+03  0.00000000000E+00 0. -1.
         -2   -1    0    0    0  501 -0.00000000000E+00 -0.00000000000E+00 -0.56272911113E+02  0.56272911113E+02  0.00000000000E+00 0.  1.
         25    2    1    2    0    0 -0.52682077247E+02  0.79691316216E+02  0.12514044371E+03  0.20108082324E+03  0.12508900703E+03 0.  0.
          5    1    3    3  502    0 -0.66149978629E+02  0.10432661990E+03  0.11992688733E+03  0.17222019044E+03  0.41800000000E+01 0. -1.
         -5    1    3    3    0  502  0.13467901383E+02 -0.24635303683E+02  0.52135563817E+01  0.28860632795E+02  0.41800000000E+01 0. -1.
        -11    1    1    2    0    0  0.49334023606E+02  0.10730544559E+01  0.79745951678E+02  0.93778537736E+02  0.00000000000E+00 0.  1.
         11    1    1    2    0    0  0.33480536408E+01 -0.80764370672E+02  0.13344698177E+03  0.15601983841E+03  0.00000000000E+00 0. -1.
</event>
<event>
 7    1  0.2522928E-009  0.1118069E+03  0.7561462E-02  0.1257260E+00
          2   -1    0    0  501    0  0.00000000000E+00  0.00000000000E+00  0.51439224129E+02  0.51439224129E+02  0.00000000000E+00 0. -1.
         -2   -1    0    0    0  501 -0.00000000000E+00 -0.00000000000E+00 -0.31935587626E+03  0.31935587626E+03  0.00000000000E+00 0.  1.
         25    2    1    2    0    0 -0.65329404145E+02  0.78355928913E+01 -0.11717468098E+03  0.18359345226E+03  0.12508925728E+03 0.  0.
          5    1    3    3  502    0 -0.78371510400E+02 -0.42017804848E+02 -0.82245075347E+02  0.12119948179E+03  0.41800000000E+01 0. -1.
         -5    1    3    3    0  502  0.13042106255E+02  0.49853397739E+02 -0.34929605632E+02  0.62393970472E+02  0.41800000000E+01 0. -1.
        -11    1    1    2    0    0  0.38462715841E+02  0.20715234975E+02 -0.13984701656E+03  0.14651173848E+03  0.00000000000E+00 0.  1.
         11    1    1    2    0    0  0.26866688304E+02 -0.28550827867E+02 -0.10894954593E+02  0.40689909657E+02  0.00000000000E+00 0. -1.
</event>
<event>
 7    1  0.2522928E-009  0.1152966E+03  0.7561462E-02  0.1251064E+00
          2   -1    0    0  501    0  0.00000000000E+00  0.00000000000E+00  0.49345851623E+03  0.49345851623E+03  0.00000000000E+00 0. -1.
         -2   -1    0    0    0  501 -0.00000000000E+00 -0.00000000000E+00 -0.31113957087E+02  0.31113957087E+02  0.00000000000E+00 0.  1.
         25    2    1    2    0    0 -0.56296661824E+02  0.29044865713E+02  0.24938783589E+03  0.28610170632E+03  0.12508787037E+03 0.  0.
          5    1    3    3  502    0 -0.54901755245E+02 -0.40992722713E+02  0.14345914651E+03  0.15903649003E+03  0.41800000000E+01 0.  1.
         -5    1    3    3    0  502 -0.13949065794E+01  0.70037588426E+02  0.10592868938E+03  0.12706521629E+03  0.41800000000E+01 0.  1.
        -11    1    1    2    0    0  0.43292757952E+02  0.15023702711E+02  0.44560909416E+02  0.63919083083E+02  0.00000000000E+00 0.  1.
         11    1    1    2    0    0  0.13003903873E+02 -0.44068568424E+02  0.16839581384E+03  0.17455168392E+03  0.00000000000E+00 0. -1.
</event>
<event>
 7    1  0.2522928E-009  0.2970159E+03  0.7561462E-02  0.1086742E+00
          1   -1    0    0  501    0  0.00000000000E+00  0.00000000000E+00  0.14015088727E+03  0.14015088727E+03  0.00000000000E+00 0. -1.
         -1   -1    0    0    0  501 -0.00000000000E+00 -0.00000000000E+00 -0.68480863861E+03  0.68480863861E+03  0.00000000000E+00 0.  1.
         25    2    1    2    0    0 -0.12249267539E+03 -0.26200948294E+03 -0.23575751265E+03  0.39355125096E+03  0.12509019819E+03 0.  0.
          5    1    3    3  502    0 -0.13041532531E+03 -0.25937977784E+03 -0.24537497029E+03  0.38014783266E+03  0.41800000000E+01 0. -1.
         -5    1    3    3    0  502  0.79226499163E+01 -0.26297050915E+01  0.96174576393E+01  0.13403418296E+02  0.41800000000E+01 0. -1.
        -11    1    1    2    0    0  0.98970368035E+02  0.14873200716E+03 -0.23060875488E+03  0.29171345792E+03  0.00000000000E+00 0.  1.
         11    1    1    2    0    0  0.23522307357E+02  0.11327747577E+03 -0.78291483808E+02  0.13969481700E+03  0.00000000000E+00 0. -1.
</event>
<event>
 7    1  0.2522928E-009  0.2566724E+03  0.7561462E-02  0.1109159E+00
         -1   -1    0    0    0  501 -0.00000000000E+00  0.00000000000E+00  0.19764417118E+03  0.19764417118E+03  0.00000000000E+00 0.  1.
          1   -1    0    0  501    0  0.00000000000E+00 -0.00000000000E+00 -0.38688199194E+03  0.38688199194E+03  0.00000000000E+00 0. -1.
         25    2    1    2    0    0  0.14893169008E+03  0.19219437510E+03 -0.21295234023E+02  0.27426327716E+03  0.12509009584E+03 0.  0.
          5    1    3    3  502    0  0.14288665509E+03  0.11730703369E+03  0.23946045260E+02  0.18646292350E+03  0.41800000000E+01 0. -1.
         -5    1    3    3    0  502  0.60450349825E+01  0.74887341407E+02 -0.45241279282E+02  0.87800353656E+02  0.41800000000E+01 0. -1.
        -11    1    1    2    0    0 -0.58453947238E+02 -0.13239558197E+03 -0.58250303558E+02  0.15600817907E+03  0.00000000000E+00 0.  1.
         11    1    1    2    0    0 -0.90477742838E+02 -0.59798793135E+02 -0.10969228317E+03  0.15425470689E+03  0.00000000000E+00 0. -1.
</event>
<event>
 7    1  0.2522928E-009  0.9727959E+02  0.7561462E-02  0.1286123E+00
         -3   -1    0    0    0  501 -0.00000000000E+00  0.00000000000E+00  0.38929817543E+02  0.38929817543E+02  0.00000000000E+00 0.  1.
          3   -1    0    0  501    0  0.00000000000E+00 -0.00000000000E+00 -0.35423042302E+03  0.35423042302E+03  0.00000000000E+00 0. -1.
         25    2    1    2    0    0  0.15339762268E+02  0.24422885065E+02 -0.23046971606E+03  0.26381019778E+03  0.12509094618E+03 0.  0.
          5    1    3    3  502    0  0.47078295545E+02 -0.35879031112E+02 -0.92957360899E+02  0.11028242893E+03  0.41800000000E+01 0.  1.
         -5    1    3    3    0  502 -0.31738533277E+02  0.60301916177E+02 -0.13751235516E+03  0.15352776886E+03  0.41800000000E+01 0.  1.
        -11    1    1    2    0    0  0.47341072524E+01  0.18748698266E+02 -0.79060873998E+02  0.81391321745E+02  0.00000000000E+00 0. -1.
         11    1    1    2    0    0 -0.20073869521E+02 -0.43171583331E+02 -0.57700154198E+01  0.47958721029E+02  0.00000000000E+00 0.  1.
</event>
<event>
 7    1  0.2522928E-009  0.1287174E+03  0.7561462E-02  0.1229371E+00
          2   -1    0    0  501    0  0.00000000000E+00  0.00000000000E+00  0.19105498837E+03  0.19105498837E+03  0.00000000000E+00 0. -1.
         -2   -1    0    0    0  501 -0.00000000000E+00 -0.00000000000E+00 -0.18353896139E+03  0.18353896139E+03  0.00000000000E+00 0.  1.
         25    2    1    2    0    0  0.46512977658E+02  0.10649522029E+03  0.10159965170E+03  0.19869691689E+03  0.12511309493E+03 0.  0.
          5    1    3    3  502    0  0.38699450918E+02  0.95410177797E+02  0.13063181975E+03  0.16638177262E+03  0.41800000000E+01 0. -1.
         -5    1    3    3    0  502  0.78135267402E+01  0.11085042489E+02 -0.29032168055E+02  0.32315144268E+02  0.41800000000E+01 0. -1.
        -11    1    1    2    0    0 -0.67897702026E+02 -0.92090069776E+02 -0.96933601805E+02  0.14995600038E+03  0.00000000000E+00 0.  1.
         11    1    1    2    0    0  0.21384724368E+02 -0.14405150510E+02  0.28499770868E+01  0.25941032495E+02  0.00000000000E+00 0. -1.
</event>
<event>
 7    1  0.2522928E-009  0.2444528E+03  0.7561462E-02  0.1116862E+00
          2   -1    0    0  501    0  0.00000000000E+00  0.00000000000E+00  0.12526409907E+03  0.12526409907E+03  0.00000000000E+00 0. -1.
         -2   -1    0    0    0  501 -0.00000000000E+00 -0.00000000000E+00 -0.50936305316E+03  0.50936305316E+03  0.00000000000E+00 0.  1.
         25    2    1    2    0    0 -0.52882678315E+02  0.22231103444E+03 -0.19999211157E+03  0.32842325807E+03  0.12508484341E+03 0.  0.
          5    1    3    3  502    0 -0.26593357044E+02 -0.74263634890E+01 -0.32610470232E+02  0.42933351631E+02  0.41800000000E+01 0. -1.
         -5    1    3    3    0  502 -0.26289321271E+02  0.22973739793E+03 -0.16738164133E+03  0.28548990644E+03  0.41800000000E+01 0. -1.
        -11    1    1    2    0    0  0.46821768329E+02 -0.14991787036E+03 -0.17136001609E+03  0.23244763056E+03  0.00000000000E+00 0.  1.
         11    1    1    2    0    0  0.60609099855E+01 -0.72393164086E+02 -0.12746826431E+02  0.73756263600E+02  0.00000000000E+00 0. -1.
</event>
<event>
 7    1  0.2522928E-009  0.1388795E+03  0.7561462E-02  0.1214845E+00
          1   -1    0    0  501    0  0.00000000000E+00  0.00000000000E+00  0.34502582246E+03  0.34502582246E+03  0.00000000000E+00 0. -1.
         -1   -1    0    0    0  501 -0.00000000000E+00 -0.00000000000E+00 -0.81408253929E+02  0.81408253929E+02  0.00000000000E+00 0.  1.
         25    2    1    2    0    0 -0.70744955115E+02  0.69351687247E+02  0.44104368069E+02  0.16555171082E+03  0.12509064103E+03 0.  0.
          5    1    3    3  502    0 -0.63349962834E+02  0.10119727719E+03  0.54053909884E+02  0.13112362211E+03  0.41800000000E+01 0.  1.
         -5    1    3    3    0  502 -0.73949922817E+01 -0.31845589944E+02 -0.99495418145E+01  0.34428088707E+02  0.41800000000E+01 0.  1.
        -11    1    1    2    0    0 -0.48250313138E+01 -0.45983168206E+02  0.28941987296E+02  0.54546964297E+02  0.00000000000E+00 0.  1.
         11    1    1    2    0    0  0.75569986429E+02 -0.23368519041E+02  0.19057121316E+03  0.20633540127E+03  0.00000000000E+00 0. -1.
</event>
<event>
 7    1  0.2522928E-009  0.1033624E+03  0.7561462E-02  0.1273380E+00
         -2   -1    0    0    0  501 -0.00000000000E+00  0.00000000000E+00  0.25023724301E+03  0.25023724301E+03  0.00000000000E+00 0. -1.
          2   -1    0    0  501    0  0.00000000000E+00 -0.00000000000E+00 -0.75404026849E+02  0.75404026849E+02  0.00000000000E+00 0.  1.
         25    2    1    2    0    0 -0.35266339620E+02  0.17327559146E+02  0.74073093093E+01  0.13132703671E+03  0.12509181957E+03 0.  0.
          5    1    3    3  502    0  0.26015397080E+02 -0.26474026072E+02 -0.29258473327E+02  0.47446871373E+02  0.41800000000E+01 0.  1.
         -5    1    3    3    0  502 -0.61281736701E+02  0.43801585218E+02  0.36665782636E+02  0.83880165337E+02  0.41800000000E+01 0.  1.
        -11    1    1    2    0    0  0.61339222670E+02  0.21645710001E+01  0.78695633126E+02  0.99800742875E+02  0.00000000000E+00 0.  1.
         11    1    1    2    0    0 -0.26072883049E+02 -0.19492130146E+02  0.88730273728E+02  0.94513490275E+02  0.00000000000E+00 0. -1.
</event>
<event>
 7    1  0.2522928E-009  0.9501430E+02  0.7561462E-02  0.1291144E+00
          1   -1    0    0  501    0  0.00000000000E+00  0.00000000000E+00  0.95774614655E+02  0.95774614655E+02  0.00000000000E+00 0. -1.
         -1   -1    0    0    0  501 -0.00000000000E+00 -0.00000000000E+00 -0.14849033858E+03  0.14849033858E+03  0.00000000000E+00 0.  1.
         25    2    1    2    0    0 -0.91140571677E+01 -0.10267583997E+02 -0.77816679049E+02  0.14795040648E+03  0.12508156507E+03 0.  0.
          5    1    3    3  502    0  0.19129046671E+02 -0.51116118491E+02  0.94424741797E+00  0.54746159677E+02  0.41800000000E+01 0.  1.
         -5    1    3    3    0  502 -0.28243103839E+02  0.40848534494E+02 -0.78760926467E+02  0.93204246806E+02  0.41800000000E+01 0.  1.
        -11    1    1    2    0    0 -0.34885077568E+02 -0.11007535181E+02 -0.77951151011E+01  0.37401848712E+02  0.00000000000E+00 0.  1.
         11    1    1    2    0    0  0.43999134735E+02  0.21275119178E+02  0.32896070228E+02  0.58912698036E+02  0.00000000000E+00 0. -1.
</event>
<event>
 7    1  0.2522928E-009  0.1037550E+03  0.7561462E-02  0.1272592E+00
         -2   -1    0    0    0  501 -0.00000000000E+00  0.00000000000E+00  0.38573540316E+02  0.38573540316E+02  0.00000000000E+00 0.  1.
          2   -1    0    0  501    0  0.00000000000E+00 -0.00000000000E+00 -0.40787519656E+03  0.40787519656E+03  0.00000000000E+00 0. -1.
         25    2    1    2    0    0  0.42685234953E+01 -0.20123347555E+02 -0.10077563078E+03  0.16194675687E+03  0.12509138616E+03 0.  0.
          5    1    3    3  502    0 -0.21085630856E+02  0.46821008631E+02 -0.23815835434E+02  0.56758057536E+02  0.41800000000E+01 0. -1.
         -5    1    3    3    0  502  0.25354154351E+02 -0.66944356186E+02 -0.76959795341E+02  0.10518869933E+03  0.41800000000E+01 0. -1.
        -11    1    1    2    0    0 -0.27637694108E+02  0.43301149330E+02 -0.96154289644E+02  0.10901595794E+03  0.00000000000E+00 0.  1.
         11    1    1    2    0    0  0.23369170612E+02 -0.23177801775E+02 -0.17237173582E+03  0.17548602207E+03  0.00000000000E+00 0. -1.
</event>
<event>
 7    1  0.2522928E-009  0.1240010E+03  0.7561462E-02  0.1236639E+00
         -2   -1    0    0    0  501 -0.00000000000E+00  0.00000000000E+00  0.19140984743E+02  0.19140984743E+02  0.00000000000E+00 0.  1.
          2   -1    0    0  501    0  0.00000000000E+00 -0.00000000000E+00 -0.96954084684E+03  0.96954084684E+03  0.00000000000E+00 0. -1.
         25    2    1    2    0    0  0.61886979766E+02 -0.30212388228E+02 -0.51163960844E+03  0.53119396862E+03  0.12509658951E+03 0.  0.
          5    1    3    3  502    0  0.71353416659E+01  0.37750008760E+02 -0.29620975215E+03  0.29872004609E+03  0.41800000000E+01 0.  1.
         -5    1    3    3    0  502  0.54751638100E+02 -0.67962396988E+02 -0.21542985628E+03  0.23247392253E+03  0.41800000000E+01 0.  1.
        -11    1    1    2    0    0 -0.90713308600E+01  0.60448537424E+02 -0.14275234348E+03  0.15528859034E+03  0.00000000000E+00 0. -1.
         11    1    1    2    0    0 -0.52815648906E+02 -0.30236149196E+02 -0.29600791017E+03  0.30219927262E+03  0.00000000000E+00 0.  1.
</event>
<event>
 7    1  0.2522928E-009  0.9038813E+02  0.7561462E-02  0.1301915E+00
          1   -1    0    0  501    0  0.00000000000E+00  0.00000000000E+00  0.82757055880E+03  0.82757055880E+03  0.00000000000E+00 0. -1.
         -1   -1    0    0    0  501 -0.00000000000E+00 -0.00000000000E+00 -0.27502489125E+02  0.27502489125E+02  0.00000000000E+00 0.  1.
         25    2    1    2    0    0 -0.16344588324E+02 -0.84101162770E+02  0.60628562412E+03  0.62495589343E+03  0.12508980599E+03 0.  0.
          5    1    3    3  502    0 -0.23309632434E+02 -0.21884972660E+02  0.26367757391E+02  0.41653595551E+02  0.41800000000E+01 0. -1.
         -5    1    3    3    0  502  0.69650441097E+01 -0.62216190110E+02  0.57991786673E+03  0.58330229788E+03  0.41800000000E+01 0. -1.
        -11    1    1    2    0    0  0.51676434410E+00  0.10029725208E+02 -0.91026272725E+01  0.13554344558E+02  0.00000000000E+00 0.  1.
         11    1    1    2    0    0  0.15827823980E+02  0.74071437561E+02  0.20288507282E+03  0.21656280994E+03  0.00000000000E+00 0. -1.
</event>
<event>
 7    1  0.2522928E-009  0.9762011E+02  0.7561462E-02  0.1285382E+00
          1   -1    0    0  501    0  0.00000000000E+00  0.00000000000E+00  0.30651837867E+03  0.30651837867E+03  0.00000000000E+00 0. -1.
         -1   -1    0    0    0  501 -0.00000000000E+00 -0.00000000000E+00 -0.41743248409E+02  0.41743248409E+02  0.00000000000E+00 0.  1.
         25    2    1    2    0    0  0.20739101577E+01 -0.70525423253E+00  0.10333335960E+03  0.16226594199E+03  0.12509058412E+03 0.  0.
          5    1    3    3  502    0  0.26157850370E+02  0.55997677258E+02  0.39579025982E+02  0.73511527613E+02  0.41800000000E+01 0.  1.
         -5    1    3    3    0  502 -0.24083940213E+02 -0.56702931491E+02  0.63754333618E+02  0.88754414374E+02  0.41800000000E+01 0.  1.
        -11    1    1    2    0    0  0.45860709188E+01  0.35664326208E+02  0.22156934279E+02  0.42236310764E+02  0.00000000000E+00 0.  1.
         11    1    1    2    0    0 -0.66599810765E+01 -0.34959071975E+02  0.13928483638E+03  0.14375937433E+03  0.00000000000E+00 0. -1.
</event>
<event>
 7    1  0.2522928E-009  0.1435894E+03  0.7561462E-02  0.1208579E+00
         -1   -1    0    0    0  501 -0.00000000000E+00  0.00000000000E+00  0.36911118092E+02  0.36911118092E+02  0.00000000000E+00 0.  1.
          1   -1    0    0  501    0  0.00000000000E+00 -0.00000000000E+00 -0.67313841772E+03  0.67313841772E+03  0.00000000000E+00 0. -1.
         25    2    1    2    0    0  0.74950112242E+02 -0.83847645440E+02 -0.34538151097E+03  0.38416418228E+03  0.12508310777E+03 0.  0.
          5    1    3    3  502    0  0.10545149770E+03 -0.42485518298E+02 -0.26834358051E+03  0.29146318332E+03  0.41800000000E+01 0. -1.
         -5    1    3    3    0  502 -0.30501385459E+02 -0.41362127142E+02 -0.77037930465E+02  0.92700998953E+02  0.41800000000E+01 0. -1.
        -11    1    1    2    0    0  0.53698292542E+01  0.15445026003E+02  0.15303979840E+00  0.16352593545E+02  0.00000000000E+00 0.  1.
         11    1    1    2    0    0 -0.80319941496E+02  0.68402619437E+02 -0.29099882846E+03  0.30953276000E+03  0.00000000000E+00 0. -1.
</event>
<event>
 7    1  0.2522928E-009  0.1183074E+03  0.7561462E-02  0.1245916E+00
          2   -1    0    0  501    0  0.00000000000E+00  0.00000000000E+00  0.85846407500E+02  0.85846407500E+02  0.00000000000E+00 0. -1.
         -2   -1    0    0    0  501 -0.00000000000E+00 -0.00000000000E+00 -0.20846683001E+03  0.20846683001E+03  0.00000000000E+00 0.  1.
         25    2    1    2    0    0  0.35116620171E+02  0.33910251617E+02 -0.73440346368E+00  0.13427047915E+03  0.12507973475E+03 0.  0.
          5    1    3    3  502    0 -0.25577629838E+02  0.61231080791E+02  0.81600785295E+01  0.66988951959E+02  0.41800000000E+01 0.  1.
         -5    1    3    3    0  502  0.60694250009E+02 -0.27320829173E+02 -0.88944819931E+01  0.67281527189E+02  0.41800000000E+01 0.  1.
        -11    1    1    2    0    0 -0.14205356463E+02  0.31611107913E+02 -0.35354192739E+02  0.49507304915E+02  0.00000000000E+00 0. -1.
         11    1    1    2    0    0 -0.20911263708E+02 -0.65521359530E+02 -0.86531826306E+02  0.11053545345E+03  0.00000000000E+00 0.  1.
</event>
<event>
 7    1  0.2522928E-009  0.1443447E+03  0.7561462E-02  0.1207600E+00
         -2   -1    0    0    0  501 -0.00000000000E+00  0.00000000000E+00  0.57270720497E+02  0.57270720497E+02  0.00000000000E+00 0.  1.
          2   -1    0    0  501    0  0.00000000000E+00 -0.00000000000E+00 -0.41057379701E+03  0.41057379701E+03  0.00000000000E+00 0. -1.
         25    2    1    2    0    0 -0.79135069850E+01 -0.97821805670E+02 -0.12096882428E+03  0.19978243122E+03  0.12509130314E+03 0.  0.
          5    1    3    3  502    0  0.31004564948E+01  0.29983660846E+02 -0.27389923213E+02  0.40942802075E+02  0.41800000000E+01 0.  1.
         -5    1    3    3    0  502 -0.11013963480E+02 -0.12780546652E+03 -0.93578901066E+02  0.15883962915E+03  0.41800000000E+01 0.  1.
        -11    1    1    2    0    0  0.36095712581E+02  0.96778725350E+01 -0.40702528236E+02  0.55256289129E+02  0.00000000000E+00 0.  1.
         11    1    1    2    0    0 -0.28182205596E+02  0.88143933135E+02 -0.19163172400E+03  0.21280579716E+03  0.00000000000E+00 0. -1.
</event>
<event>
 7    1  0.2522928E-009  0.9148185E+02  0.7561462E-02  0.1299302E+00
         -2   -1    0    0    0  501 -0.00000000000E+00  0.00000000000E+00  0.26424630218E+02  0.26424630218E+02  0.00000000000E+00 0.  1.
          2   -1    0    0  501    0  0.00000000000E+00 -0.00000000000E+00 -0.52812839930E+03  0.52812839930E+03  0.00000000000E+00 0. -1.
         25    2    1    2    0    0 -0.21439138837E+02  0.27455148659E+02 -0.22144742743E+03  0.25670777312E+03  0.12508595365E+03 0.  0.
          5    1    3    3  502    0 -0.47556361413E+02  0.54231169823E+01 -0.19509220904E+02  0.51856531015E+02  0.41800000000E+01 0.  1.
         -5    1    3    3    0  502  0.26117222577E+02  0.22032031676E+02 -0.20193820653E+03  0.20485124210E+03  0.41800000000E+01 0.  1.
        -11    1    1    2    0    0  0.34055505907E+02 -0.58104283015E+02 -0.19906278270E+03  0.21014727370E+03  0.00000000000E+00 0. -1.
         11    1    1    2    0    0 -0.12616367071E+02  0.30649134356E+02 -0.81193558952E+02  0.87697982703E+02  0.00000000000E+00 0.  1.
</event>
<event>
 7    1  0.2522928E-009  0.9867851E+02  0.7561462E-02  0.1283100E+00
         -2   -1    0    0    0  501 -0.00000000000E+00  0.00000000000E+00  0.51024472153E+02  0.51024472153E+02  0.00000000000E+00 0.  1.
          2   -1    0    0  501    0  0.00000000000E+00 -0.00000000000E+00 -0.32519855804E+03  0.32519855804E+03  0.00000000000E+00 0. -1.
         25    2    1    2    0    0 -0.67311606680E+02  0.12240120973E+02 -0.16236905784E+03  0.21608249344E+03  0.12508900860E+03 0.  0.
          5    1    3    3  502    0  0.35028922908E+01 -0.85259398491E+01 -0.13782954463E+03  0.13820064283E+03  0.41800000000E+01 0. -1.
         -5    1    3    3    0  502 -0.70814498971E+02  0.20766060822E+02 -0.24539513207E+02  0.77881850614E+02  0.41800000000E+01 0. -1.
        -11    1    1    2    0    0  0.47520412664E+02 -0.51057332911E+02 -0.80353093965E+02  0.10640329212E+03  0.00000000000E+00 0.  1.
         11    1    1    2    0    0  0.19791194016E+02  0.38817211937E+02 -0.31451934082E+02  0.53737244633E+02  0.00000000000E+00 0. -1.
</event>
<event>
 7    1  0.2815742E-009  0.1021809E+03  0.7561462E-02  0.1275776E+00
         -2   -1    0    0    0  501 -0.00000000000E+00  0.00000000000E+00  0.13269702784E+02  0.13269702784E+02  0.00000000000E+00 0. -1.
          2   -1    0    0  501    0  0.00000000000E+00 -0.00000000000E+00 -0.10183696892E+04  0.10183696892E+04  0.00000000000E+00 0.  1.
         25    2    1    2    0    0 -0.21833707202E+02  0.90674893422E+01 -0.71808436615E+03  0.72928139545E+03  0.12508903509E+03 0.  0.
          5    1    3    3  502    0 -0.36018400852E+02  0.58085601157E+02 -0.28165788479E+03  0.28986186145E+03  0.41800000000E+01 0. -1.
         -5    1    3    3    0  502  0.14184693650E+02 -0.49018111815E+02 -0.43642648136E+03  0.43941953399E+03  0.41800000000E+01 0. -1.
        -11    1    1    2    0    0 -0.13961139299E+02 -0.36830449242E+02 -0.66937256945E+02  0.77665898367E+02  0.00000000000E+00 0. -1.
         11    1    1    2    0    0  0.35794846501E+02  0.27762959899E+02 -0.22007836329E+03  0.22469209814E+03  0.00000000000E+00 0.  1.
</event>
<event>
 6    1  0.2522928E-009  0.1302227E+03  0.7561462E-02  0.1227126E+00
          3   -1    0    0  501    0  0.00000000000E+00  0.00000000000E+00  0.10307422864E+03  0.10307422864E+03  0.00000000000E+00 0. -1.
         -3   -1    0    0    0  501 -0.00000000000E+00 -0.00000000000E+00 -0.16742394423E+03  0.16742394423E+03  0.00000000000E+00 0.  1.
          5    1    1    2  502    0  0.20659775649E+02 -0.71562521152E+02 -0.23592823319E+02  0.78243942102E+02  0.41800000000E+01 0. -1.
         -5    1    1    2    0  502 -0.68997892837E+02  0.13549245018E+02 -0.40181617634E+01  0.70554300227E+02  0.41800000000E+01 0. -1.
        -11    1    1    2    0    0 -0.15707835385E+02 -0.12552305941E+02 -0.11308039617E+02  0.23068771898E+02  0.00000000000E+00 0. -1.
         11    1    1    2    0    0  0.64045952574E+02  0.70565582075E+02 -0.25430690891E+02  0.98631158636E+02  0.00000000000E+00 0.  1.
</event>
<event>
 7    1  0.2522928E-009  0.6454579E+02  0.7561462E-02  0.1379688E+00
          1   -1    0    0  501    0  0.00000000000E+00  0.00000000000E+00  0.10506418098E+03  0.10506418098E+03  0.00000000000E+00 0. -1.
         -1   -1    0    0    0  501 -0.00000000000E+00 -0.00000000000E+00 -0.11845858234E+03  0.11845858234E+03  0.00000000000E+00 0.  1.
         25    2    1    2    0    0 -0.11693904001E+02  0.18285415546E+02 -0.15955567903E+02  0.12795553103E+03  0.12508770508E+03 0.  0.
          5    1    3    3  502    0 -0.10882216209E+02  0.32248856952E+02 -0.66783497895E+02  0.75072760675E+02  0.41800000000E+01 0.  1.
         -5    1    3    3    0  502 -0.81168779193E+00 -0.13963441406E+02  0.50827929992E+02  0.52882770354E+02  0.41800000000E+01 0.  1.
        -11    1    1    2    0    0  0.37010630828E+02 -0.34122346393E+02  0.26869495773E+02  0.57062168910E+02  0.00000000000E+00 0. -1.
         11    1    1    2    0    0 -0.25316726827E+02  0.15836930847E+02 -0.24308329232E+02  0.38505063380E+02  0.00000000000E+00 0.  1.
</event>
<event>
 7    1  0.2522928E-009  0.9449466E+02  0.7561462E-02  0.1292318E+00
         -1   -1    0    0    0  501 -0.00000000000E+00  0.00000000000E+00  0.29081932665E+02  0.29081932665E+02  0.00000000000E+00 0.  1.
          1   -1    0    0  501    0  0.00000000000E+00 -0.00000000000E+00 -0.46264437180E+03  0.46264437180E+03  0.00000000000E+00 0. -1.
         25    2    1    2    0    0 -0.21726845135E+02 -0.30472999428E+02 -0.28026966538E+03  0.30919019763E+03  0.12508730345E+03 0.  0.
          5    1    3    3  502    0 -0.69471958803E+01  0.43936344728E+02 -0.51735175573E+02  0.68356906822E+02  0.41800000000E+01 0.  1.
         -5    1    3    3    0  502 -0.14779649255E+02 -0.74409344156E+02 -0.22853448981E+03  0.24083329081E+03  0.41800000000E+01 0.  1.
        -11    1    1    2    0    0  0.15332242744E+02 -0.15567869944E+02  0.51655415527E+00  0.21856419431E+02  0.00000000000E+00 0.  1.
         11    1    1    2    0    0  0.63946023917E+01  0.46040869373E+02 -0.15380932790E+03  0.16067968740E+03  0.00000000000E+00 0. -1.
</event>
<event>
 7    1  0.2522928E-009  0.1007004E+03  0.7561462E-02  0.1278830E+00
         -2   -1    0    0    0  501 -0.00000000000E+00  0.00000000000E+00  0.17765200250E+02  0.17765200250E+02  0.00000000000E+00 0.  1.
          2   -1    0    0  501    0  0.00000000000E+00 -0.00000000000E+00 -0.10597991296E+04  0.10597991296E+04  0.00000000000E+00 0. -1.
         25    2    1    2    0    0  0.81090570147E+02 -0.11841153027E+02 -0.66406223677E+03  0.68069265124E+03  0.12509171706E+03 0.  0.
          5    1    3    3  502    0  0.73274774999E+02 -0.34196429532E+02 -0.19671604886E+03  0.21272814746E+03  0.41800000000E+01 0.  1.
         -5    1    3    3    0  502  0.78157951477E+01  0.22355276505E+02 -0.46734618791E+03  0.46796450378E+03  0.41800000000E+01 0.  1.
        -11    1    1    2    0    0 -0.74350837104E+02  0.27548844334E+02 -0.36927917654E+03  0.37769577179E+03  0.00000000000E+00 0. -1.
         11    1    1    2    0    0 -0.67397330425E+01 -0.15707691307E+02 -0.86925160596E+01  0.19175906840E+02  0.00000000000E+00 0.  1.
</event>
<event>
 7    1  0.2522928E-009  0.9856125E+02  0.7561462E-02  0.1283351E+00
         -2   -1    0    0    0  501 -0.00000000000E+00  0.00000000000E+00  0.31438992286E+02  0.31438992286E+02  0.00000000000E+00 0.  1.
          2   -1    0    0  501    0  0.00000000000E+00 -0.00000000000E+00 -0.42168503415E+03  0.42168503415E+03  0.00000000000E+00 0. -1.
         25    2    1    2    0    0 -0.38363795907E+01 -0.16213520072E+02 -0.28075646436E+03  0.30781421298E+03  0.12509117232E+03 0.  0.
          5    1    3    3  502    0  0.80199864877E+01  0.48374541018E+02 -0.18635376281E+03  0.19274235060E+03  0.41800000000E+01 0. -1.
         -5    1    3    3    0  502 -0.11856366078E+02 -0.64588061090E+02 -0.94402701549E+02  0.11507186238E+03  0.41800000000E+01 0. -1.
        -11    1    1    2    0    0  0.38348630167E+02  0.25885826559E+02 -0.22961074048E+02  0.51651760607E+02  0.00000000000E+00 0.  1.
         11    1    1    2    0    0 -0.34512250577E+02 -0.96723064868E+01 -0.86528503456E+02  0.93658052847E+02  0.00000000000E+00 0. -1.
</event>
<event>
 7    1  0.2522928E-009  0.1103279E+03  0.7561462E-02  0.1259964E+00
         -2   -1    0    0    0  501 -0.00000000000E+00  0.00000000000E+00  0.14221168409E+03  0.14221168409E+03  0.00000000000E+00 0.  1.
          2   -1    0    0  501    0  0.00000000000E+00 -0.00000000000E+00 -0.18404649873E+03  0.18404649873E+03  0.00000000000E+00 0. -1.
         25    2    1    2    0    0 -0.79596736191E+02  0.69990874604E+02  0.35668491552E+02  0.16779053701E+03  0.12508820919E+03 0.  0.
          5    1    3    3  502    0 -0.52865797391E+02  0.19845180267E+02  0.78300216493E+02  0.96628256822E+02  0.41800000000E+01 0. -1.
         -5    1    3    3    0  502 -0.26730938800E+02  0.50145694337E+02 -0.42631724941E+02  0.71162280185E+02  0.41800000000E+01 0. -1.
        -11    1    1    2    0    0  0.23616385180E+02 -0.30369557958E+02  0.16703072316E+02  0.41940866996E+02  0.00000000000E+00 0.  1.
         11    1    1    2    0    0  0.55980351010E+02 -0.39621316646E+02 -0.94206378504E+02  0.11652677882E+03  0.00000000000E+00 0. -1.
</event>
<event>
 7    1  0.2522928E-009  0.1951273E+03  0.7561462E-02  0.1153916E+00
         -1   -1    0    0    0  501 -0.00000000000E+00  0.00000000000E+00  0.55539878820E+03  0.55539878820E+03  0.00000000000E+00 0.  1.
          1   -1    0    0  501    0  0.00000000000E+00 -0.00000000000E+00 -0.11979845092E+03  0.11979845092E+03  0.00000000000E+00 0. -1.
         25    2    1    2    0    0 -0.67003832877E+02  0.17561403698E+03  0.42342408668E+02  0.22971724103E+03  0.12508927871E+03 0.  0.
          5    1    3    3  502    0 -0.19723749781E+02  0.14299618334E+03  0.75817706796E+02  0.16310343901E+03  0.41800000000E+01 0.  1.
         -5    1    3    3    0  502 -0.47280083096E+02  0.32617853646E+02 -0.33475298128E+02  0.66613802014E+02  0.41800000000E+01 0.  1.
        -11    1    1    2    0    0  0.25471122967E+02 -0.81348189906E+02  0.27858310507E+03  0.29133288956E+03  0.00000000000E+00 0.  1.
         11    1    1    2    0    0  0.41532709910E+02 -0.94265847078E+02  0.11467482354E+03  0.15414710854E+03  0.00000000000E+00 0. -1.
</event>
<event>
 7    1  0.2522928E-009  0.3920213E+03  0.7561462E-02  0.1046578E+00
          2   -1    0    0  501    0  0.00000000000E+00  0.00000000000E+00  0.28730554674E+03  0.28730554674E+03  0.00000000000E+00 0. -1.
         -2   -1    0    0    0  501 -0.00000000000E+00 -0.00000000000E+00 -0.57313804423E+03  0.57313804423E+03  0.00000000000E+00 0.  1.
         25    2    1    2    0    0 -0.36993644458E+03 -0.92867868574E+02 -0.23572297760E+03  0.46550051483E+03  0.12509193857E+03 0.  0.
          5    1    3    3  502    0 -0.75206428803E+02 -0.65679516938E+02 -0.27697629513E+02  0.10370360148E+03  0.41800000000E+01 0.  1.
         -5    1    3    3    0  502 -0.29473001578E+03 -0.27188351637E+02 -0.20802534809E+03  0.36179691336E+03  0.41800000000E+01 0.  1.
        -11    1    1    2    0    0  0.19290948537E+03  0.11466390807E+02  0.19611404568E+01  0.19325991239E+03  0.00000000000E+00 0. -1.
         11    1    1    2    0    0  0.17702695921E+03  0.81401477767E+02 -0.52070660354E+02  0.20168316375E+03  0.00000000000E+00 0.  1.
</event>
<event>
 7    1  0.2522928E-009  0.1115518E+03  0.7561462E-02  0.1257723E+00
         -1   -1    0    0    0  501 -0.00000000000E+00  0.00000000000E+00  0.61636752894E+02  0.61636752894E+02  0.00000000000E+00 0.  1.
          1   -1    0    0  501    0  0.00000000000E+00 -0.00000000000E+00 -0.42489619253E+03  0.42489619253E+03  0.00000000000E+00 0. -1.
         25    2    1    2    0    0 -0.75884696385E+02 -0.70171256909E+02 -0.10223224167E+03  0.19178335145E+03  0.12508769010E+03 0.  0.
          5    1    3    3  502    0 -0.11935255307E+02 -0.44385957163E+02  0.20848206785E+02  0.50642705680E+02  0.41800000000E+01 0.  1.
         -5    1    3    3    0  502 -0.63949441078E+02 -0.25785299747E+02 -0.12308044845E+03  0.14114064577E+03  0.41800000000E+01 0.  1.
        -11    1    1    2    0    0  0.47437620114E+02  0.22838547722E+02 -0.21930735734E+03  0.22553856444E+03  0.00000000000E+00 0. -1.
         11    1    1    2    0    0  0.28447076271E+02  0.47332709188E+02 -0.41719840624E+02  0.69211029534E+02  0.00000000000E+00 0.  1.
</event>
<event>
 7    1  0.2674763E-009  0.1849712E+03  0.7561462E-02  0.1163077E+00
          1   -1    0    0  501    0  0.00000000000E+00  0.00000000000E+00  0.92693196411E+03  0.92693196411E+03  0.00000000000E+00 0. -1.
         -1   -1    0    0    0  501 -0.00000000000E+00 -0.00000000000E+00 -0.45138353365E+02  0.45138353365E+02  0.00000000000E+00 0.  1.
         25    2    1    2    0    0 -0.70263792535E+02  0.15791333394E+03  0.47164028619E+03  0.51765449969E+03  0.12509196586E+03 0.  0.
          5    1    3    3  502    0 -0.16858070258E+02  0.62815248541E+02  0.34214134007E+03  0.34829315090E+03  0.41800000000E+01 0. -1.
         -5    1    3    3    0  502 -0.53405722277E+02  0.95098085398E+02  0.12949894612E+03  0.16936134879E+03  0.41800000000E+01 0. -1.
        -11    1    1    2    0    0 -0.97040813502E+01 -0.90533116541E+02  0.19086753645E+03  0.21147300266E+03  0.00000000000E+00 0.  1.
         11    1    1    2    0    0  0.79967873885E+02 -0.67380217398E+02  0.21928578811E+03  0.24294281512E+03  0.00000000000E+00 0. -1.
</event>
<event>
 7    1  0.2522928E-009  0.5839589E+02  0.7561462E-02  0.1404689E+00
         -2   -1    0    0    0  501 -0.00000000000E+00  0.00000000000E+00  0.10606355858E+03  0.10606355858E+03  0.00000000000E+00 0.  1.
          2   -1    0    0  501    0  0.00000000000E+00 -0.00000000000E+00 -0.11940683028E+03  0.11940683028E+03  0.00000000000E+00 0. -1.
         25    2    1    2    0    0  0.22792660529E+02 -0.78670355359E+01 -0.28618598293E+02  0.13056713503E+03  0.12508939587E+03 0.  0.
          5    1    3    3  502    0  0.18287459065E+02  0.11024969339E+02 -0.76072138263E+02  0.79122839483E+02  0.41800000000E+01 0. -1.
         -5    1    3    3    0  502  0.45052014647E+01 -0.18892004875E+02  0.47453539970E+02  0.51444295545E+02  0.41800000000E+01 0. -1.
        -11    1    1    2    0    0 -0.39001901130E+02  0.28950273811E+02 -0.18446176485E+02  0.51956982903E+02  0.00000000000E+00 0. -1.
         11    1    1    2    0    0  0.16209240601E+02 -0.21083238275E+02  0.33721503074E+02  0.42946270928E+02  0.00000000000E+00 0.  1.
</event>
<event>
 7    1  0.2522928E-009  0.1814750E+03  0.7561462E-02  0.1166383E+00
          1   -1    0    0  501    0  0.00000000000E+00  0.00000000000E+00  0.91104797891E+03  0.91104797891E+03  0.00000000000E+00 0. -1.
         -1   -1    0    0    0  501 -0.00000000000E+00 -0.00000000000E+00 -0.42176503801E+02  0.42176503801E+02  0.00000000000E+00 0.  1.
         25    2    1    2    0    0  0.74509055836E+02  0.13697472124E+03  0.57760230306E+03  0.61121660962E+03  0.12509056609E+03 0.  0.
          5    1    3    3  502    0  0.27977767923E+01  0.12729049454E+03  0.37325443212E+03  0.39439452462E+03  0.41800000000E+01 0. -1.
         -5    1    3    3    0  502  0.71711279044E+02  0.96842267031E+01  0.20434787094E+03  0.21682208500E+03  0.41800000000E+01 0. -1.
        -11    1    1    2    0    0 -0.63631461786E+02 -0.67530727073E+02  0.23269022607E+03  0.25050769117E+03  0.00000000000E+00 0.  1.
         11    1    1    2    0    0 -0.10877594050E+02 -0.69443994165E+02  0.58578945986E+02  0.91500181916E+02  0.00000000000E+00 0. -1.
</event>
<event>
 7    1  0.2522928E-009  0.8985822E+02  0.7561462E-02  0.1303195E+00
          2   -1    0    0  501    0  0.00000000000E+00  0.00000000000E+00  0.40661785824E+03  0.40661785824E+03  0.00000000000E+00 0. -1.
         -2   -1    0    0    0  501 -0.00000000000E+00 -0.00000000000E+00 -0.55338337201E+02  0.55338337201E+02  0.00000000000E+00 0.  1.
         25    2    1    2    0    0  0.19352682346E+02  0.80301174909E+02  0.93875269051E+02  0.17686890771E+03  0.12508892584E+03 0.  0.
          5    1    3    3  502    0 -0.94804111433E+01  0.26092971550E+02 -0.28428398494E+02  0.39954569209E+02  0.41800000000E+01 0.  1.
         -5    1    3    3    0  502  0.28833093489E+02  0.54208203359E+02  0.12230366754E+03  0.13691433850E+03  0.41800000000E+01 0.  1.
        -11    1    1    2    0    0 -0.29894605868E+02 -0.53251316883E+02  0.24669855769E+03  0.25414477877E+03  0.00000000000E+00 0. -1.
         11    1    1    2    0    0  0.10541923522E+02 -0.27049858026E+02  0.10705694302E+02  0.30942508968E+02  0.00000000000E+00 0.  1.
</event>
<event>
 7    1  0.2522928E-009  0.1112211E+03  0.7561462E-02  0.1258325E+00
         -1   -1    0    0    0  501 -0.00000000000E+00  0.00000000000E+00  0.16027090014E+03  0.16027090014E+03  0.00000000000E+00 0.  1.
          1   -1    0    0  501    0  0.00000000000E+00 -0.00000000000E+00 -0.86917921831E+02  0.86917921831E+02  0.00000000000E+00 0. -1.
         25    2    1    2    0    0 -0.40425945969E+01 -0.44197223884E+02  0.26474790815E+02  0.13534670654E+03  0.12509228294E+03 0.  0.
          5    1    3    3  502    0 -0.45732624980E+02 -0.68431654077E+02  0.55038786711E+01  0.82596182404E+02  0.41800000000E+01 0. -1.
         -5    1    3    3    0  502  0.41690030383E+02  0.24234430193E+02  0.20970912144E+02  0.52750524133E+02  0.41800000000E+01 0. -1.
        -11    1    1    2    0    0 -0.38030338380E+02  0.23867535846E+02 -0.10412100525E+01  0.44911580055E+02  0.00000000000E+00 0. -1.
         11    1    1    2    0    0  0.42072932977E+02  0.20329688037E+02  0.47919397545E+02  0.66930535379E+02  0.00000000000E+00 0.  1.
</event>
<event>
 7    1  0.2522928E-009  0.1331483E+03  0.7561462E-02  0.1222858E+00
         -1   -1    0    0    0  501 -0.00000000000E+00  0.00000000000E+00  0.40520828792E+02  0.40520828792E+02  0.00000000000E+00 0.  1.
          1   -1    0    0  501    0  0.00000000000E+00 -0.00000000000E+00 -0.47218219277E+03  0.47218219277E+03  0.00000000000E+00 0. -1.
         25    2    1    2    0    0 -0.71814163825E+02  0.30070153075E+02 -0.17539146414E+03  0.22906563312E+03  0.12508960928E+03 0.  0.
          5    1    3    3  502    0 -0.76376414831E+02  0.71944174400E+02 -0.12556107569E+03  0.16368377165E+03  0.41800000000E+01 0.  1.
         -5    1    3    3    0  502  0.45622510068E+01 -0.41874021324E+02 -0.49830388452E+02  0.65381861471E+02  0.41800000000E+01 0.  1.
        -11    1    1    2    0    0  0.14131291200E+02 -0.54510497010E+02 -0.15071784474E+03  0.16089423980E+03  0.00000000000E+00 0.  1.
         11    1    1    2    0    0  0.57682872624E+02  0.24440343934E+02 -0.10555205509E+03  0.12274314865E+03  0.00000000000E+00 0. -1.
</event>
<event>
 7    1  0.2522928E-009  0.1115189E+03  0.7561462E-02  0.1257783E+00
          1   -1    0    0  501    0  0.00000000000E+00  0.00000000000E+00  0.30511896906E+03  0.30511896906E+03  0.00000000000E+00 0. -1.
         -1   -1    0    0    0  501 -0.00000000000E+00 -0.00000000000E+00 -0.57698166129E+02  0.57698166129E+02  0.00000000000E+00 0.  1.
         25    2    1    2    0    0 -0.51241483049E+02 -0.19920816552E+02  0.63113644089E+02  0.15051540257E+03  0.12509606638E+03 0.  0.
          5    1    3    3  502    0 -0.71321562936E+02 -0.45722033975E+02  0.77179100909E+02  0.11467936060E+03  0.41800000000E+01 0. -1.
         -5    1    3    3    0  502  0.20080079887E+02  0.25801217422E+02 -0.14065456820E+02  0.35836041973E+02  0.41800000000E+01 0. -1.
        -11    1    1    2    0    0 -0.25423517169E+02  0.12210810427E+02  0.53866391522E+02  0.60803349020E+02  0.00000000000E+00 0. -1.
         11    1    1    2    0    0  0.76665000217E+02  0.77100061254E+01  0.13044076732E+03  0.15149838359E+03  0.00000000000E+00 0.  1.
</event>
<event>
 7    1  0.2522928E-009  0.1092513E+03  0.7561462E-02  0.1261963E+00
          1   -1    0    0  501    0  0.00000000000E+00  0.00000000000E+00  0.36336472519E+03  0.36336472519E+03  0.00000000000E+00 0. -1.
         -1   -1    0    0    0  501 -0.00000000000E+00 -0.00000000000E+00 -0.41893799450E+02  0.41893799450E+02  0.00000000000E+00 0.  1.
         25    2    1    2    0    0  0.44045910477E+02 -0.18803736945E+02  0.22998130440E+03  0.26614394112E+03  0.12509026447E+03 0.  0.
          5    1    3    3  502    0  0.59956669685E+01 -0.61043535917E+02  0.56358694443E+02  0.83402854501E+02  0.41800000000E+01 0.  1.
         -5    1    3    3    0  502  0.38050243508E+02  0.42239798972E+02  0.17362260996E+03  0.18274108662E+03  0.41800000000E+01 0.  1.
        -11    1    1    2    0    0 -0.64376536864E+02 -0.96003433587E+01  0.38422175663E+02  0.75582859657E+02  0.00000000000E+00 0.  1.
         11    1    1    2    0    0  0.20330626387E+02  0.28404080303E+02  0.53067445676E+02  0.63531723869E+02  0.00000000000E+00 0. -1.
</event>
<event>
 7    1  0.2522928E-009  0.1204259E+03  0.7561462E-02  0.1242396E+00
          2   -1    0    0  501    0  0.00000000000E+00  0.00000000000E+00  0.18080532223E+03  0.18080532223E+03  0.00000000000E+00 0.  1.
         -2   -1    0    0    0  501 -0.00000000000E+00 -0.00000000000E+00 -0.14888311112E+03  0.14888311112E+03  0.00000000000E+00 0. -1.
         25    2    1    2    0    0  0.19132148514E+02 -0.46937963142E+02 -0.85785665904E+02  0.15989947222E+03  0.12505778364E+03 0.  0.
          5    1    3    3  502    0  0.32503696693E+02  0.31636793979E+02 -0.61384337453E+02  0.76438774954E+02  0.41800000000E+01 0. -1.
         -5    1    3    3    0  502 -0.13371548178E+02 -0.78574757122E+02 -0.24401328450E+02  0.83460697262E+02  0.41800000000E+01 0. -1.
        -11    1    1    2    0    0 -0.38222309561E+01 -0.33443324605E+02  0.11194895667E+02  0.35473808635E+02  0.00000000000E+00 0. -1.
         11    1    1    2    0    0 -0.15309917558E+02  0.80381287747E+02  0.10651298135E+03  0.13431515250E+03  0.00000000000E+00 0.  1.
</event>
<event>
 7    1  0.2522928E-009  0.1213092E+03  0.7561462E-02  0.1240953E+00
          1   -1    0    0  501    0  0.00000000000E+00  0.00000000000E+00  0.22622182516E+03  0.22622182516E+03  0.00000000000E+00 0. -1.
         -1   -1    0    0    0  501 -0.00000000000E+00 -0.00000000000E+00 -0.83800504602E+02  0.83800504602E+02  0.00000000000E+00 0.  1.
         25    2    1    2    0    0  0.68920224846E+02  0.30191052633E+02  0.87839560974E+02  0.17036592027E+03  0.12508901337E+03 0.  0.
          5    1    3    3  502    0  0.47603685592E+02  0.61044682029E+02  0.10366621280E+03  0.12944775070E+03  0.41800000000E+01 0. -1.
         -5    1    3    3    0  502  0.21316539254E+02 -0.30853629396E+02 -0.15826651825E+02  0.40918169567E+02  0.41800000000E+01 0. -1.
        -11    1    1    2    0    0  0.26774101779E+02  0.76112704261E+00  0.19525882810E+02  0.33146522290E+02  0.00000000000E+00 0.  1.
         11    1    1    2    0    0 -0.95694326625E+02 -0.30952179676E+02  0.35055876772E+02  0.10650988720E+03  0.00000000000E+00 0. -1.
</event>
<event>
 7    1  0.2522928E-009  0.1258676E+03  0.7561462E-02  0.1233720E+00
          2   -1    0    0  501    0  0.00000000000E+00  0.00000000000E+00  0.64983303430E+03  0.64983303430E+03  0.00000000000E+00 0. -1.
         -2   -1    0    0    0  501 -0.00000000000E+00 -0.00000000000E+00 -0.54120330994E+02  0.54120330994E+02  0.00000000000E+00 0.  1.
         25    2    1    2    0    0  0.61834286580E+02  0.17696447881E+02  0.57302097680E+03  0.59003168126E+03  0.12509077412E+03 0.  0.
          5    1    3    3  502    0  0.88218304048E+02 -0.23155547694E+02  0.39743683138E+03  0.40778935236E+03  0.41800000000E+01 0. -1.
         -5    1    3    3    0  502 -0.26384017469E+02  0.40851995575E+02  0.17558414542E+03  0.18224232891E+03  0.41800000000E+01 0. -1.
        -11    1    1    2    0    0 -0.37005241196E+02  0.36519697180E+02  0.95891453647E+01  0.52868023104E+02  0.00000000000E+00 0. -1.
         11    1    1    2    0    0 -0.24829045384E+02 -0.54216145061E+02  0.13102581133E+02  0.61053660924E+02  0.00000000000E+00 0.  1.
</event>
<event>
 7    1  0.2522928E-009  0.1341592E+03  0.7561462E-02  0.1221412E+00
         -1   -1    0    0    0  501 -0.00000000000E+00  0.00000000000E+00  0.14352376942E+03  0.14352376942E+03  0.00000000000E+00 0.  1.
          1   -1    0    0  501    0  0.00000000000E+00 -0.00000000000E+00 -0.21849214237E+03  0.21849214237E+03  0.00000000000E+00 0. -1.
         25    2    1    2    0    0 -0.12675497868E+03 -0.34685978890E+02 -0.86475264120E+02  0.20098570851E+03  0.12508933595E+03 0.  0.
          5    1    3    3  502    0 -0.47204464896E+02 -0.63234351615E+01  0.30454284468E+02  0.56684946686E+02  0.41800000000E+01 0.  1.
         -5    1    3    3    0  502 -0.79550513781E+02 -0.28362543729E+02 -0.11692954859E+03  0.14430076182E+03  0.41800000000E+01 0.  1.
        -11    1    1    2    0    0  0.35143401411E+02 -0.61017425066E+01  0.43048227712E+02  0.55905633289E+02  0.00000000000E+00 0.  1.
         11    1    1    2    0    0  0.91611577266E+02  0.40787721397E+02 -0.31541336542E+02  0.10512457000E+03  0.00000000000E+00 0. -1.
</event>
<event>
 7    1  0.2522928E-009  0.1326182E+03  0.7561462E-02  0.1223622E+00
          1   -1    0    0  501    0  0.00000000000E+00  0.00000000000E+00  0.41629456608E+03  0.41629456608E+03  0.00000000000E+00 0. -1.
         -1   -1    0    0    0  501 -0.00000000000E+00 -0.00000000000E+00 -0.51641845940E+02  0.51641845940E+02  0.00000000000E+00 0.  1.
         25    2    1    2    0    0 -0.53894137532E+02 -0.69958919823E+02  0.14058945407E+03  0.20787566403E+03  0.12509224028E+03 0.  0.
          5    1    3    3  502    0  0.86134088917E+01 -0.70121647028E+02  0.22612342510E+02  0.74296881687E+02  0.41800000000E+01 0. -1.
         -5    1    3    3    0  502 -0.62507546423E+02  0.16272720495E+00  0.11797711156E+03  0.13357878234E+03  0.41800000000E+01 0. -1.
        -11    1    1    2    0    0 -0.11680081855E+02  0.65015710384E+02  0.10520913837E+03  0.12422733075E+03  0.00000000000E+00 0. -1.
         11    1    1    2    0    0  0.65574219386E+02  0.49432094394E+01  0.11885412769E+03  0.13583341723E+03  0.00000000000E+00 0.  1.
</event>
<event>
 7    1  0.2522928E-009  0.9101501E+02  0.7561462E-02  0.1300412E+00
          1   -1    0    0  501    0  0.00000000000E+00  0.00000000000E+00  0.37346554029E+03  0.37346554029E+03  0.00000000000E+00 0. -1.
         -1   -1    0    0    0  501 -0.00000000000E+00 -0.00000000000E+00 -0.33483766134E+02  0.33483766134E+02  0.00000000000E+00 0.  1.
         25    2    1    2    0    0 -0.14068873782E+02  0.20247143581E+02  0.22769879282E+03  0.26096255742E+03  0.12508731386E+03 0.  0.
          5    1    3    3  502    0 -0.23944403462E+02 -0.50319141435E+02  0.92173903095E+02  0.10779077541E+03  0.41800000000E+01 0.  1.
         -5    1    3    3    0  502  0.98755296804E+01  0.70566285017E+02  0.13552488973E+03  0.15317178201E+03  0.41800000000E+01 0.  1.
        -11    1    1    2    0    0 -0.14676899613E+02 -0.21461245602E+02 -0.39031364894E+01  0.26291270785E+02  0.00000000000E+00 0.  1.
         11    1    1    2    0    0  0.28745773394E+02  0.12141020206E+01  0.11618611782E+03  0.11969547822E+03  0.00000000000E+00 0. -1.
</event>
<event>
 7    1  0.2522928E-009  0.1370109E+03  0.7561462E-02  0.1217409E+00
          1   -1    0    0  501    0  0.00000000000E+00  0.00000000000E+00  0.18989415915E+03  0.18989415915E+03  0.00000000000E+00 0. -1.
         -1   -1    0    0    0  501 -0.00000000000E+00 -0.00000000000E+00 -0.15074392685E+03  0.15074392685E+03  0.00000000000E+00 0.  1.
         25    2    1    2    0    0 -0.81413170011E+02 -0.26162322004E+02 -0.77384196164E+02  0.17014101923E+03  0.12508829387E+03 0.  0.
          5    1    3    3  502    0  0.21950450986E+02  0.25887063036E+02 -0.79254912326E+01  0.35103392178E+02  0.41800000000E+01 0. -1.
         -5    1    3    3    0  502 -0.10336362100E+03 -0.52049385040E+02 -0.69458704931E+02  0.13503762705E+03  0.41800000000E+01 0. -1.
        -11    1    1    2    0    0  0.65427461413E+02 -0.25287658986E+02  0.72911285709E+02  0.10117447300E+03  0.00000000000E+00 0. -1.
         11    1    1    2    0    0  0.15985708598E+02  0.51449980990E+02  0.43623142753E+02  0.69322593769E+02  0.00000000000E+00 0.  1.
</event>
<event>
 7    1  0.2522928E-009  0.1217686E+03  0.7561462E-02  0.1240208E+00
          1   -1    0    0  501    0  0.00000000000E+00  0.00000000000E+00  0.52604872935E+03  0.52604872935E+03  0.00000000000E+00 0. -1.
         -1   -1    0    0    0  501 -0.00000000000E+00 -0.00000000000E+00 -0.48653962310E+02  0.48653962310E+02  0.00000000000E+00 0.  1.
         25    2    1    2    0    0  0.54416449585E+02  0.45335482756E+02  0.42613238849E+03  0.44972584038E+03  0.12509221802E+03 0.  0.
          5    1    3    3  502    0 -0.35823639612E+02  0.34759746808E+02  0.11199574215E+03  0.12268696676E+03  0.41800000000E+01 0.  1.
         -5    1    3    3    0  502  0.90240089198E+02  0.10575735948E+02  0.31413664633E+03  0.32703887362E+03  0.41800000000E+01 0.  1.
        -11    1    1    2    0    0 -0.72975294698E+02 -0.32243988091E+02  0.13506785917E+02  0.80916634075E+02  0.00000000000E+00 0.  1.
         11    1    1    2    0    0  0.18558845112E+02 -0.13091494664E+02  0.37755592635E+02  0.44060217200E+02  0.00000000000E+00 0. -1.
</event>
<event>
 7    1  0.2522928E-009  0.1002768E+03  0.7561462E-02  0.1279715E+00
          1   -1    0    0  501    0  0.00000000000E+00  0.00000000000E+00  0.42336764755E+02  0.42336764755E+02  0.00000000000E+00 0. -1.
         -1   -1    0    0    0  501 -0.00000000000E+00 -0.00000000000E+00 -0.38369162932E+03  0.38369162932E+03  0.00000000000E+00 0.  1.
         25    2    1    2    0    0  0.57082598731E+02 -0.61927413638E+01 -0.24776692664E+03  0.28342988451E+03  0.12508907376E+03 0.  0.
          5    1    3    3  502    0  0.43528613454E+02  0.57502047085E+02 -0.13658905471E+03  0.15451623823E+03  0.41800000000E+01 0. -1.
         -5    1    3    3    0  502  0.13553985277E+02 -0.63694788449E+02 -0.11117787193E+03  0.12891364629E+03  0.41800000000E+01 0. -1.
        -11    1    1    2    0    0 -0.22461232852E+02 -0.10298471230E+02 -0.10062095608E+03  0.10361053176E+03  0.00000000000E+00 0.  1.
         11    1    1    2    0    0 -0.34621365879E+02  0.16491212594E+02  0.70330181549E+01  0.38987977794E+02  0.00000000000E+00 0. -1.
</event>
<event>
 7    1  0.2522928E-009  0.1048561E+03  0.7561462E-02  0.1270403E+00
         -1   -1    0    0    0  501 -0.00000000000E+00  0.00000000000E+00  0.22194680948E+03  0.22194680948E+03  0.00000000000E+00 0.  1.
          1   -1    0    0  501    0  0.00000000000E+00 -0.00000000000E+00 -0.62630413516E+02  0.62630413516E+02  0.00000000000E+00 0. -1.
         25    2    1    2    0    0  0.99844591172E+01  0.68195184380E+01  0.31965219319E+02  0.12967732315E+03  0.12509291602E+03 0.  0.
          5    1    3    3  502    0  0.63346054417E+02  0.24997740422E+02  0.25256964562E+02  0.72752981350E+02  0.41800000000E+01 0. -1.
         -5    1    3    3    0  502 -0.53361595300E+02 -0.18178221984E+02  0.67082547575E+01  0.56924341800E+02  0.41800000000E+01 0. -1.
        -11    1    1    2    0    0  0.71258431632E+01 -0.43712112249E+02  0.86926856588E+02  0.97559237361E+02  0.00000000000E+00 0.  1.
         11    1    1    2    0    0 -0.17110302280E+02  0.36892593811E+02  0.40424320058E+02  0.57340662486E+02  0.00000000000E+00 0. -1.
</event>
<event>
 7    1  0.2522928E-009  0.9258153E+02  0.7561462E-02  0.1296718E+00
          1   -1    0    0  501    0  0.00000000000E+00  0.00000000000E+00  0.15802831007E+02  0.15802831007E+02  0.00000000000E+00 0. -1.
         -1   -1    0    0    0  501 -0.00000000000E+00 -0.00000000000E+00 -0.77786865610E+03  0.77786865610E+03  0.00000000000E+00 0.  1.
         25    2    1    2    0    0 -0.48927809801E+01 -0.18912861315E+02 -0.42769944689E+03  0.44604454110E+03  0.12508908884E+03 0.  0.
          5    1    3    3  502    0 -0.19566335362E+02 -0.51240099327E+02 -0.39086250280E+03  0.39471427356E+03  0.41800000000E+01 0.  1.
         -5    1    3    3    0  502  0.14673554382E+02  0.32327238012E+02 -0.36836944086E+02  0.51330267536E+02  0.41800000000E+01 0.  1.
        -11    1    1    2    0    0  0.48589624412E+02  0.13115924269E+02 -0.15724127321E+03  0.16509935515E+03  0.00000000000E+00 0.  1.
         11    1    1    2    0    0 -0.43696843432E+02  0.57969370458E+01 -0.17712510500E+03  0.18252759086E+03  0.00000000000E+00 0. -1.
</event>
<event>
 7    1  0.2522928E-009  0.8936477E+02  0.7561462E-02  0.1304397E+00
         -1   -1    0    0    0  501 -0.00000000000E+00  0.00000000000E+00  0.98527206390E+02  0.98527206390E+02  0.00000000000E+00 0.  1.
          1   -1    0    0  501    0  0.00000000000E+00 -0.00000000000E+00 -0.17682139264E+03  0.17682139264E+03  0.00000000000E+00 0. -1.
         25    2    1    2    0    0  0.84295084472E+00 -0.66870581805E+02 -0.84375605805E+01  0.14209647083E+03  0.12509128394E+03 0.  0.
          5    1    3    3  502    0  0.30209605602E+02 -0.48235710469E+01  0.45297643866E+02  0.54820033273E+02  0.41800000000E+01 0. -1.
         -5    1    3    3    0  502 -0.29366654758E+02 -0.62047010758E+02 -0.53735204446E+02  0.87276437557E+02  0.41800000000E+01 0. -1.
        -11    1    1    2    0    0  0.18115361002E+02  0.51754206537E+02  0.45237835676E+01  0.55019349471E+02  0.00000000000E+00 0.  1.
         11    1    1    2    0    0 -0.18958311846E+02  0.15116375268E+02 -0.74380409236E+02  0.78232778728E+02  0.00000000000E+00 0. -1.
</event>
<event>
 7    1  0.2522928E-009  0.1280240E+03  0.7561462E-02  0.1230417E+00
         -2   -1    0    0    0  501 -0.00000000000E+00  0.00000000000E+00  0.39957155811E+02  0.39957155811E+02  0.00000000000E+00 0.  1.
          2   -1    0    0  501    0  0.00000000000E+00 -0.00000000000E+00 -0.51091872312E+03  0.51091872312E+03  0.00000000000E+00 0. -1.
         25    2    1    2    0    0 -0.71206206493E+02  0.55674044341E+02 -0.21243818663E+03  0.26257903561E+03  0.12509134161E+03 0.  0.
          5    1    3    3  502    0 -0.38778974431E+02  0.83596306326E+02 -0.75987376514E+02  0.11951445552E+03  0.41800000000E+01 0. -1.
         -5    1    3    3    0  502 -0.32427232062E+02 -0.27922261985E+02 -0.13645081011E+03  0.14306458008E+03  0.41800000000E+01 0. -1.
        -11    1    1    2    0    0  0.75459585454E+02 -0.11387241579E+02 -0.20471949854E+03  0.21848087191E+03  0.00000000000E+00 0. -1.
         11    1    1    2    0    0 -0.42533789611E+01 -0.44286802762E+02 -0.53803882143E+02  0.69815971418E+02  0.00000000000E+00 0.  1.
</event>
<event>
 7    1  0.2522928E-009  0.2016434E+03  0.7561462E-02  0.1148360E+00
         -1   -1    0    0    0  501 -0.00000000000E+00  0.00000000000E+00  0.11429917518E+03  0.11429917518E+03  0.00000000000E+00 0.  1.
          1   -1    0    0  501    0  0.00000000000E+00 -0.00000000000E+00 -0.48432162613E+03  0.48432162613E+03  0.00000000000E+00 0. -1.
         25    2    1    2    0    0 -0.16959038162E+03 -0.24862007237E+02 -0.40224203092E+02  0.21597528049E+03  0.12509323853E+03 0.  0.
          5    1    3    3  502    0 -0.13768608813E+03 -0.71726179442E+02 -0.27484231520E+02  0.15771797318E+03  0.41800000000E+01 0. -1.
         -5    1    3    3    0  502 -0.31904293493E+02  0.46864172205E+02 -0.12739971572E+02  0.58257307314E+02  0.41800000000E+01 0. -1.
        -11    1    1    2    0    0  0.63199523192E+02 -0.31633407899E+02 -0.91354672170E+02  0.11550120499E+03  0.00000000000E+00 0.  1.
         11    1    1    2    0    0  0.10639085843E+03  0.56495415136E+02 -0.23844357569E+03  0.26714431583E+03  0.00000000000E+00 0. -1.
</event>
<event>
 7    1  0.2574523E-009  0.1313898E+03  0.7561462E-02  0.1225408E+00
         -1   -1    0    0    0  501 -0.00000000000E+00  0.00000000000E+00  0.17771279462E+02  0.17771279462E+02  0.00000000000E+00 0.  1.
          1   -1    0    0  501    0  0.00000000000E+00 -0.00000000000E+00 -0.10253334428E+04  0.10253334428E+04  0.00000000000E+00 0. -1.
         25    2    1    2    0    0 -0.78881149573E+02  0.12783718123E+01 -0.50042532346E+03  0.52182100400E+03  0.12509111027E+03 0.  0.
          5    1    3    3  502    0 -0.65474545632E+02  0.56551590373E+02 -0.35964031889E+03  0.36992381630E+03  0.41800000000E+01 0.  1.
         -5    1    3    3    0  502 -0.13406603941E+02 -0.55273218561E+02 -0.14078500457E+03  0.15189718770E+03  0.41800000000E+01 0.  1.
        -11    1    1    2    0    0  0.71666316606E+01  0.37106583582E+02 -0.20117652954E+03  0.20469551825E+03  0.00000000000E+00 0. -1.
         11    1    1    2    0    0  0.71714517913E+02 -0.38384955394E+02 -0.30596031034E+03  0.31658820000E+03  0.00000000000E+00 0.  1.
</event>
<event>
 7    1  0.2522928E-009  0.1537647E+03  0.7561462E-02  0.1195922E+00
         -2   -1    0    0    0  501 -0.00000000000E+00  0.00000000000E+00  0.46823915715E+02  0.46823915715E+02  0.00000000000E+00 0.  1.
          2   -1    0    0  501    0  0.00000000000E+00 -0.00000000000E+00 -0.74468191269E+03  0.74468191269E+03  0.00000000000E+00 0. -1.
         25    2    1    2    0    0 -0.72908576795E+02  0.83292007459E+02 -0.57946654303E+03  0.60306538618E+03  0.12511261504E+03 0.  0.
          5    1    3    3  502    0 -0.38731711797E+01 -0.29474213396E+02 -0.17383259763E+03  0.17640571167E+03  0.41800000000E+01 0. -1.
         -5    1    3    3    0  502 -0.69035405615E+02  0.11276622085E+03 -0.40563394540E+03  0.42665967451E+03  0.41800000000E+01 0. -1.
        -11    1    1    2    0    0  0.46574975093E+02  0.10551452409E+02 -0.27168616891E+02  0.54942653709E+02  0.00000000000E+00 0.  1.
         11    1    1    2    0    0  0.26333601702E+02 -0.93843459868E+02 -0.91222837054E+02  0.13349778852E+03  0.00000000000E+00 0. -1.
</event>
<event>
 7    1  0.2522928E-009  0.2956591E+03  0.7561462E-02  0.1087431E+00
          2   -1    0    0  501    0  0.00000000000E+00  0.00000000000E+00  0.10615159769E+04  0.10615159769E+04  0.00000000000E+00 0. -1.
         -2   -1    0    0    0  501 -0.00000000000E+00 -0.00000000000E+00 -0.84156039460E+02  0.84156039460E+02  0.00000000000E+00 0.  1.
         25    2    1    2    0    0  0.25630061916E+03 -0.10673255519E+03  0.45961639933E+03  0.55134113432E+03  0.12509183081E+03 0.  0.
          5    1    3    3  502    0  0.82314634876E+02  0.24858842079E+02  0.14010448699E+03  0.16443965707E+03  0.41800000000E+01 0.  1.
         -5    1    3    3    0  502  0.17398598428E+03 -0.13159139727E+03  0.31951191235E+03  0.38690147724E+03  0.41800000000E+01 0.  1.
        -11    1    1    2    0    0 -0.41383552472E+02 -0.98555056796E+01  0.12139656874E+03  0.12863458442E+03  0.00000000000E+00 0.  1.
         11    1    1    2    0    0 -0.21491706668E+03  0.11658806087E+03  0.39634696934E+03  0.46569629760E+03  0.00000000000E+00 0. -1.
</event>
<event>
 7    1  0.2522928E-009  0.1321489E+03  0.7561462E-02  0.1224301E+00
         -2   -1    0    0    0  501 -0.00000000000E+00  0.00000000000E+00  0.31296050623E+03  0.31296050623E+03  0.00000000000E+00 0.  1.
          2   -1    0    0  501    0  0.00000000000E+00 -0.00000000000E+00 -0.88298055855E+02  0.88298055855E+02  0.00000000000E+00 0. -1.
         25    2    1    2    0    0  0.63751483590E+02 -0.99085958921E+02  0.68072761782E+02  0.18483508537E+03  0.12509128256E+03 0.  0.
          5    1    3    3  502    0  0.52250669536E+02 -0.65541506445E+01  0.74441830992E+02  0.91280600124E+02  0.41800000000E+01 0.  1.
         -5    1    3    3    0  502  0.11500814054E+02 -0.92531808276E+02 -0.63690692096E+01  0.93554485245E+02  0.41800000000E+01 0.  1.
        -11    1    1    2    0    0 -0.12083912370E+02  0.25534363828E+02  0.11309131194E+03  0.11656615937E+03  0.00000000000E+00 0.  1.
         11    1    1    2    0    0 -0.51667571220E+02  0.73551595093E+02  0.43498376659E+02  0.99857317350E+02  0.00000000000E+00 0. -1.
</event>
<event>
 7    1  0.2522928E-009  0.1732133E+03  0.7561462E-02  0.1174538E+00
          2   -1    0    0  501    0  0.00000000000E+00  0.00000000000E+00  0.89023600729E+03  0.89023600729E+03  0.00000000000E+00 0. -1.
         -2   -1    0    0    0  501 -0.00000000000E+00 -0.00000000000E+00 -0.55689364644E+02  0.55689364644E+02  0.00000000000E+00 0.  1.
         25    2    1    2    0    0  0.92539004988E+02 -0.13384294391E+03  0.20792226990E+03  0.29215722929E+03  0.12508707059E+03 0.  0.
          5    1    3    3  502    0  0.10066742421E+03 -0.13630327381E+03  0.21942052878E+03  0.27726405032E+03  0.41800000000E+01 0. -1.
         -5    1    3    3    0  502 -0.81284192260E+01  0.24603299076E+01 -0.11498258885E+02  0.14893178968E+02  0.41800000000E+01 0. -1.
        -11    1    1    2    0    0 -0.31483685536E+02  0.80311626545E+02  0.46454670461E+03  0.47248790522E+03  0.00000000000E+00 0. -1.
         11    1    1    2    0    0 -0.61055319452E+02  0.53531317361E+02  0.16207766813E+03  0.18128023742E+03  0.00000000000E+00 0.  1.
</event>
<event>
 7    1  0.2522928E-009  0.7996835E+02  0.7561462E-02  0.1329141E+00
         -1   -1    0    0    0  501 -0.00000000000E+00  0.00000000000E+00  0.88875462619E+02  0.88875462619E+02  0.00000000000E+00 0.  1.
          1   -1    0    0  501    0  0.00000000000E+00 -0.00000000000E+00 -0.14357919327E+03  0.14357919327E+03  0.00000000000E+00 0. -1.
         25    2    1    2    0    0  0.10415702311E+02  0.24123904631E+02 -0.52319703351E+02  0.13811327529E+03  0.12508987099E+03 0.  0.
          5    1    3    3  502    0 -0.37789882376E+02 -0.15390981760E+02  0.17350790891E+02  0.44536275934E+02  0.41800000000E+01 0. -1.
         -5    1    3    3    0  502  0.48205584687E+02  0.39514886390E+02 -0.69670494242E+02  0.93576999361E+02  0.41800000000E+01 0. -1.
        -11    1    1    2    0    0 -0.28428446188E+02 -0.28477321064E+01  0.36590273722E+02  0.46423423633E+02  0.00000000000E+00 0.  1.
         11    1    1    2    0    0  0.18012743877E+02 -0.21276172524E+02 -0.38974301018E+02  0.47917956959E+02  0.00000000000E+00 0. -1.
</event>
<event>
 7    1  0.2522928E-009  0.1915456E+03  0.7561462E-02  0.1157075E+00
         -2   -1    0    0    0  501 -0.00000000000E+00  0.00000000000E+00  0.61130741443E+03  0.61130741443E+03  0.00000000000E+00 0.  1.
          2   -1    0    0  501    0  0.00000000000E+00 -0.00000000000E+00 -0.85444447574E+02  0.85444447574E+02  0.00000000000E+00 0. -1.
         25    2    1    2    0    0 -0.71340159155E+02  0.14683136473E+03  0.94165272369E+02  0.22619110300E+03  0.12508576490E+03 0.  0.
          5    1    3    3  502    0 -0.83590039506E+02  0.16120755190E+03  0.68666134236E+02  0.19418465409E+03  0.41800000000E+01 0. -1.
         -5    1    3    3    0  502  0.12249880351E+02 -0.14376187172E+02  0.25499138133E+02  0.32006448909E+02  0.41800000000E+01 0. -1.
        -11    1    1    2    0    0  0.67930216512E+02 -0.47904900611E+02  0.25265558297E+03  0.26597788898E+03  0.00000000000E+00 0.  1.
         11    1    1    2    0    0  0.34099426428E+01 -0.98926464118E+02  0.17904211152E+03  0.20458287003E+03  0.00000000000E+00 0. -1.
</event>
<event>
 7    1  0.2522928E-009  0.1249440E+03  0.7561462E-02  0.1235157E+00
         -2   -1    0    0    0  501 -0.00000000000E+00  0.00000000000E+00  0.47015934818E+02  0.47015934818E+02  0.00000000000E+00 0.  1.
          2   -1    0    0  501    0  0.00000000000E+00 -0.00000000000E+00 -0.46058453191E+03  0.46058453191E+03  0.00000000000E+00 0. -1.
         25    2    1    2    0    0  0.66166204600E+02 -0.72970482534E+02 -0.23779456925E+03  0.28617626639E+03  0.12509172764E+03 0.  0.
          5    1    3    3  502    0  0.84503865608E+02 -0.75697770957E+02 -0.11384038463E+03  0.16077363404E+03  0.41800000000E+01 0.  1.
         -5    1    3    3    0  502 -0.18337661008E+02  0.27272884229E+01 -0.12395418463E+03  0.12540263235E+03  0.41800000000E+01 0.  1.
        -11    1    1    2    0    0  0.67797680905E+01  0.33966717273E+02 -0.98274205142E+01  0.36003907172E+02  0.00000000000E+00 0.  1.
         11    1    1    2    0    0 -0.72945972691E+02  0.39003765261E+02 -0.16594660733E+03  0.18542029317E+03  0.00000000000E+00 0. -1.
</event>
<event>
 7    1  0.2522928E-009  0.1321613E+03  0.7561462E-02  0.1224284E+00
         -2   -1    0    0    0  501 -0.00000000000E+00  0.00000000000E+00  0.16975991667E+02  0.16975991667E+02  0.00000000000E+00 0.  1.
          2   -1    0    0  501    0  0.00000000000E+00 -0.00000000000E+00 -0.11618524347E+04  0.11618524347E+04  0.00000000000E+00 0. -1.
         25    2    1    2    0    0 -0.52092778527E+02 -0.61921622941E+02 -0.70288864785E+03  0.71850408904E+03  0.12509088586E+03 0.  0.
          5    1    3    3  502    0 -0.87051909458E+02 -0.65187426542E+02 -0.44060041047E+03  0.45384317735E+03  0.41800000000E+01 0. -1.
         -5    1    3    3    0  502  0.34959130931E+02  0.32658036012E+01 -0.26228823738E+03  0.26466091169E+03  0.41800000000E+01 0. -1.
        -11    1    1    2    0    0  0.54722933832E+02  0.82710344356E+02 -0.41181838108E+03  0.42359176048E+03  0.00000000000E+00 0. -1.
         11    1    1    2    0    0 -0.26301553049E+01 -0.20788721414E+02 -0.30169414127E+02  0.36732576873E+02  0.00000000000E+00 0.  1.
</event>
<event>
 7    1  0.2522928E-009  0.1339717E+03  0.7561462E-02  0.1221679E+00
         -2   -1    0    0    0  501 -0.00000000000E+00  0.00000000000E+00  0.39995993396E+02  0.39995993396E+02  0.00000000000E+00 0. -1.
          2   -1    0    0  501    0  0.00000000000E+00 -0.00000000000E+00 -0.59024587548E+03  0.59024587548E+03  0.00000000000E+00 0.  1.
         25    2    1    2    0    0  0.10251231137E+03 -0.17621925625E+02 -0.23443371713E+03  0.28535276626E+03  0.12509087594E+03 0.  0.
          5    1    3    3  502    0  0.66700272395E+02  0.47096869044E+02 -0.16341485962E+03  0.18272638057E+03  0.41800000000E+01 0. -1.
         -5    1    3    3    0  502  0.35812038979E+02 -0.64718794669E+02 -0.71018857511E+02  0.10262638570E+03  0.41800000000E+01 0. -1.
        -11    1    1    2    0    0 -0.33781847802E+02 -0.13845074453E+02 -0.21918115852E+03  0.22220098914E+03  0.00000000000E+00 0.  1.
         11    1    1    2    0    0 -0.68730463572E+02  0.31467000078E+02 -0.96635006437E+02  0.12268811347E+03  0.00000000000E+00 0. -1.
</event>
<event>
 7    1  0.2522928E-009  0.2864876E+03  0.7561462E-02  0.1092197E+00
          3   -1    0    0  501    0  0.00000000000E+00  0.00000000000E+00  0.18981530213E+03  0.18981530213E+03  0.00000000000E+00 0. -1.
         -3   -1    0    0    0  501 -0.00000000000E+00 -0.00000000000E+00 -0.50210250163E+03  0.50210250163E+03  0.00000000000E+00 0.  1.
         25    2    1    2    0    0  0.17930473746E+03 -0.20931790664E+03 -0.26299785220E+03  0.40095781511E+03  0.12504049070E+03 0.  0.
          5    1    3    3  502    0  0.11642637089E+03 -0.76957133337E+02 -0.63489984612E+02  0.15338171585E+03  0.41800000000E+01 0.  1.
         -5    1    3    3    0  502  0.62878366563E+02 -0.13236077331E+03 -0.19950786759E+03  0.24757609926E+03  0.41800000000E+01 0.  1.
        -11    1    1    2    0    0 -0.73869805216E+02  0.32097883441E+02 -0.13599639114E+02  0.81682142651E+02  0.00000000000E+00 0. -1.
         11    1    1    2    0    0 -0.10543493224E+03  0.17722002320E+03 -0.35689708179E+02  0.20927784601E+03  0.00000000000E+00 0.  1.
</event>
<event>
 7    1  0.2522928E-009  0.2418578E+03  0.7561462E-02  0.1118561E+00
         -1   -1    0    0    0  501 -0.00000000000E+00  0.00000000000E+00  0.21746954502E+03  0.21746954502E+03  0.00000000000E+00 0.  1.
          1   -1    0    0  501    0  0.00000000000E+00 -0.00000000000E+00 -0.36672553588E+03  0.36672553588E+03  0.00000000000E+00 0. -1.
         25    2    1    2    0    0 -0.50911629457E+02 -0.22650297283E+03  0.44520446481E+02  0.26744194477E+03  0.12509009934E+03 0.  0.
          5    1    3    3  502    0  0.17934881248E+02 -0.60311983935E+02 -0.33399510416E+02  0.71359617906E+02  0.41800000000E+01 0. -1.
         -5    1    3    3    0  502 -0.68846510705E+02 -0.16619098890E+03  0.77919956897E+02  0.19608232687E+03  0.41800000000E+01 0. -1.
        -11    1    1    2    0    0  0.56354231889E+02  0.10561794788E+03 -0.52445792282E+02  0.13069625662E+03  0.00000000000E+00 0.  1.
         11    1    1    2    0    0 -0.54426024324E+01  0.12088502496E+03 -0.14133064506E+03  0.18605687951E+03  0.00000000000E+00 0. -1.
</event>
<event>
 7    1  0.2522928E-009  0.1136088E+03  0.7561462E-02  0.1254029E+00
         -4   -1    0    0    0  501 -0.00000000000E+00  0.00000000000E+00  0.13193923691E+03  0.13193923691E+03  0.00000000000E+00 0.  1.
          4   -1    0    0  501    0  0.00000000000E+00 -0.00000000000E+00 -0.15945069783E+03  0.15945069783E+03  0.00000000000E+00 0. -1.
         25    2    1    2    0    0 -0.51555009456E+02 -0.59835593377E+02 -0.67813937572E+02  0.16272881544E+03  0.12507485763E+03 0.  0.
          5    1    3    3  502    0 -0.91901413808E+02 -0.54627518535E+02 -0.47424212289E+02  0.11703232012E+03  0.41800000000E+01 0. -1.
         -5    1    3    3    0  502  0.40346404352E+02 -0.52080748422E+01 -0.20389725283E+02  0.45696495323E+02  0.41800000000E+01 0. -1.
        -11    1    1    2    0    0  0.11272448304E+02  0.87374410707E+01  0.59209386761E+02  0.60902893592E+02  0.00000000000E+00 0.  1.
         11    1    1    2    0    0  0.40282561152E+02  0.51098152307E+02 -0.18906910109E+02  0.67758225715E+02  0.00000000000E+00 0. -1.
</event>
<event>
 7    1  0.2522928E-009  0.1440424E+03  0.7561462E-02  0.1207991E+00
         -1   -1    0    0    0  501 -0.00000000000E+00  0.00000000000E+00  0.52202832350E+02  0.52202832350E+02  0.00000000000E+00 0.  1.
          1   -1    0    0  501    0  0.00000000000E+00 -0.00000000000E+00 -0.42777905727E+03  0.42777905727E+03  0.00000000000E+00 0. -1.
         25    2    1    2    0    0 -0.92592546371E+02 -0.37234722788E+01 -0.24534481805E+03  0.29056486242E+03  0.12508643268E+03 0.  0.
          5    1    3    3  502    0 -0.29380709493E+02 -0.62541064149E+02 -0.10992538197E+03  0.12990640013E+03  0.41800000000E+01 0.  1.
         -5    1    3    3    0  502 -0.63211836877E+02  0.58817591870E+02 -0.13541943609E+03  0.16065846229E+03  0.41800000000E+01 0.  1.
        -11    1    1    2    0    0 -0.13790848865E+01 -0.31891176627E+02 -0.11650717494E+02  0.33980703935E+02  0.00000000000E+00 0.  1.
         11    1    1    2    0    0  0.93971631257E+02  0.35614648906E+02 -0.11858068938E+03  0.15543632327E+03  0.00000000000E+00 0. -1.
</event>
<event>
 7    1  0.2522928E-009  0.1088368E+03  0.7561462E-02  0.1262739E+00
         -2   -1    0    0    0  501 -0.00000000000E+00  0.00000000000E+00  0.17357233108E+03  0.17357233108E+03  0.00000000000E+00 0.  1.
          2   -1    0    0  501    0  0.00000000000E+00 -0.00000000000E+00 -0.11871985221E+03  0.11871985221E+03  0.00000000000E+00 0. -1.
         25    2    1    2    0    0  0.53474746819E+02 -0.52937272301E+01  0.11142869889E+03  0.17592817304E+03  0.12508714976E+03 0.  0.
          5    1    3    3  502    0  0.34720119476E+02 -0.53773250756E+02  0.10546486399E+03  0.12343969835E+03  0.41800000000E+01 0. -1.
         -5    1    3    3    0  502  0.18754627344E+02  0.48479523526E+02  0.59638349049E+01  0.52488474686E+02  0.41800000000E+01 0. -1.
        -11    1    1    2    0    0  0.17021888988E+02  0.23076827430E+02 -0.20127557016E+02  0.35034314898E+02  0.00000000000E+00 0.  1.
         11    1    1    2    0    0 -0.70496635807E+02 -0.17783100200E+02 -0.36448663007E+02  0.81329695363E+02  0.00000000000E+00 0. -1.
</event>
<event>
 7    1  0.2522928E-009  0.1305224E+03  0.7561462E-02  0.1226683E+00
          2   -1    0    0  501    0  0.00000000000E+00  0.00000000000E+00  0.36184507803E+03  0.36184507803E+03  0.00000000000E+00 0. -1.
         -2   -1    0    0    0  501 -0.00000000000E+00 -0.00000000000E+00 -0.48844309161E+02  0.48844309161E+02  0.00000000000E+00 0.  1.
         25    2    1    2    0    0  0.62755586913E+02 -0.41781744680E+02  0.14981627366E+03  0.20922745607E+03  0.12508890695E+03 0.  0.
          5    1    3    3  502    0  0.32467685266E+02 -0.85576249373E+02  0.82476616031E+02  0.12327736871E+03  0.41800000000E+01 0.  1.
         -5    1    3    3    0  502  0.30287901647E+02  0.43794504693E+02  0.67339657629E+02  0.85950087359E+02  0.41800000000E+01 0.  1.
        -11    1    1    2    0    0 -0.78123850031E+02  0.75519788836E+01  0.91499932381E+02  0.12055125862E+03  0.00000000000E+00 0.  1.
         11    1    1    2    0    0  0.15368263118E+02  0.34229765797E+02  0.71684562832E+02  0.80910672511E+02  0.00000000000E+00 0. -1.
</event>
<event>
 7    1  0.2522928E-009  0.1098515E+03  0.7561462E-02  0.1260845E+00
         -2   -1    0    0    0  501 -0.00000000000E+00  0.00000000000E+00  0.76903231293E+02  0.76903231293E+02  0.00000000000E+00 0.  1.
          2   -1    0    0  501    0  0.00000000000E+00 -0.00000000000E+00 -0.23701315155E+03  0.23701315155E+03  0.00000000000E+00 0. -1.
         25    2    1    2    0    0  0.33505996552E+02 -0.71594375516E+02 -0.75997778505E+02  0.16634556684E+03  0.12508708510E+03 0.  0.
          5    1    3    3  502    0  0.45896982490E+02  0.18467673423E+02 -0.31062664245E+01  0.49746449667E+02  0.41800000000E+01 0. -1.
         -5    1    3    3    0  502 -0.12390985938E+02 -0.90062048939E+02 -0.72891512080E+02  0.11659911717E+03  0.41800000000E+01 0. -1.
        -11    1    1    2    0    0 -0.21000629275E+02  0.45128235838E+02 -0.10183712151E+03  0.11335070982E+03  0.00000000000E+00 0. -1.
         11    1    1    2    0    0 -0.12505367277E+02  0.26466139678E+02  0.17724979754E+02  0.34220106187E+02  0.00000000000E+00 0.  1.
</event>
<event>
 7    1  0.2522928E-009  0.2690611E+03  0.7561462E-02  0.1101818E+00
         -2   -1    0    0    0  501 -0.00000000000E+00  0.00000000000E+00  0.17623425818E+03  0.17623425818E+03  0.00000000000E+00 0.  1.
          2   -1    0    0  501    0  0.00000000000E+00 -0.00000000000E+00 -0.47573702273E+03  0.47573702273E+03  0.00000000000E+00 0. -1.
         25    2    1    2    0    0 -0.21932064916E+03 -0.15027936896E+03 -0.19118850885E+03  0.35054976449E+03  0.12508659233E+03 0.  0.
          5    1    3    3  502    0 -0.63386718838E+02 -0.54380657671E+02 -0.13537965586E+03  0.15912339764E+03  0.41800000000E+01 0. -1.
         -5    1    3    3    0  502 -0.15593393032E+03 -0.95898711293E+02 -0.55808852987E+02  0.19142636685E+03  0.41800000000E+01 0. -1.
        -11    1    1    2    0    0  0.72653913087E+02  0.20352251012E+02  0.40332354129E+01  0.75558402551E+02  0.00000000000E+00 0.  1.
         11    1    1    2    0    0  0.14666673607E+03  0.12992711795E+03 -0.11234749111E+03  0.22586311387E+03  0.00000000000E+00 0. -1.
</event>
<event>
 7    1  0.2522928E-009  0.8955593E+02  0.7561462E-02  0.1303931E+00
          1   -1    0    0  501    0  0.00000000000E+00  0.00000000000E+00  0.67333085066E+02  0.67333085066E+02  0.00000000000E+00 0. -1.
         -1   -1    0    0    0  501 -0.00000000000E+00 -0.00000000000E+00 -0.30553582888E+03  0.30553582888E+03  0.00000000000E+00 0.  1.
         25    2    1    2    0    0 -0.33940268085E+02  0.29789531028E+02 -0.22784676160E+02  0.13493987358E+03  0.12510103940E+03 0.  0.
          5    1    3    3  502    0 -0.34693759190E+02 -0.16937181528E+02 -0.62424350265E+02  0.73517324155E+02  0.41800000000E+01 0.  1.
         -5    1    3    3    0  502  0.75349110513E+00  0.46726712556E+02  0.39639674105E+02  0.61422549429E+02  0.41800000000E+01 0.  1.
        -11    1    1    2    0    0 -0.22698963472E+02 -0.28854335005E+02 -0.13261904700E+03  0.13760678478E+03  0.00000000000E+00 0.  1.
         11    1    1    2    0    0  0.56639231557E+02 -0.93519602284E+00 -0.82799020654E+02  0.10032225558E+03  0.00000000000E+00 0. -1.
</event>
<event>
 7    1  0.2522928E-009  0.1336204E+03  0.7561462E-02  0.1222180E+00
          2   -1    0    0  501    0  0.00000000000E+00  0.00000000000E+00  0.35756103241E+03  0.35756103241E+03  0.00000000000E+00 0.  1.
         -2   -1    0    0    0  501 -0.00000000000E+00 -0.00000000000E+00 -0.57002031285E+02  0.57002031285E+02  0.00000000000E+00 0. -1.
         25    2    1    2    0    0  0.31541135379E+02 -0.78637822528E+02  0.22007761805E+03  0.26694726990E+03  0.12509171271E+03 0.  0.
          5    1    3    3  502    0  0.24643961714E+02  0.31293601181E+02  0.46999529890E+02  0.61749838330E+02  0.41800000000E+01 0. -1.
         -5    1    3    3    0  502  0.68971736646E+01 -0.10993142371E+03  0.17307808816E+03  0.20519743157E+03  0.41800000000E+01 0. -1.
        -11    1    1    2    0    0  0.41090839063E+01 -0.15639527582E+02  0.31816281394E+02  0.35689706573E+02  0.00000000000E+00 0.  1.
         11    1    1    2    0    0 -0.35650219285E+02  0.94277350110E+02  0.48665101685E+02  0.11192608722E+03  0.00000000000E+00 0. -1.
</event>
<event>
 7    1  0.2522928E-009  0.1483922E+03  0.7561462E-02  0.1202463E+00
         -1   -1    0    0    0  501 -0.00000000000E+00  0.00000000000E+00  0.53167889152E+03  0.53167889152E+03  0.00000000000E+00 0.  1.
          1   -1    0    0  501    0  0.00000000000E+00 -0.00000000000E+00 -0.42577304144E+02  0.42577304144E+02  0.00000000000E+00 0. -1.
         25    2    1    2    0    0 -0.10478073583E+03  0.51859029835E+01  0.27110880364E+03  0.31646909577E+03  0.12508720549E+03 0.  0.
          5    1    3    3  502    0 -0.36056253113E+02 -0.57552708516E+02  0.13976213888E+03  0.15544547439E+03  0.41800000000E+01 0.  1.
         -5    1    3    3    0  502 -0.68724482715E+02  0.62738611499E+02  0.13134666477E+03  0.16102362138E+03  0.41800000000E+01 0.  1.
        -11    1    1    2    0    0  0.31949993927E+02 -0.42968321258E+02  0.65296334766E+02  0.84443413465E+02  0.00000000000E+00 0. -1.
         11    1    1    2    0    0  0.72830741900E+02  0.37782418274E+02  0.15269644897E+03  0.17334368643E+03  0.00000000000E+00 0.  1.
</event>
<event>
 7    1  0.2522928E-009  0.1597050E+03  0.7561462E-02  0.1189030E+00
         -2   -1    0    0    0  501 -0.00000000000E+00  0.00000000000E+00  0.32388361183E+02  0.32388361183E+02  0.00000000000E+00 0. -1.
          2   -1    0    0  501    0  0.00000000000E+00 -0.00000000000E+00 -0.11379104792E+04  0.11379104792E+04  0.00000000000E+00 0.  1.
         25    2    1    2    0    0  0.88542259681E+02  0.11419506768E+03 -0.78131594301E+03  0.80435186121E+03  0.12508824325E+03 0.  0.
          5    1    3    3  502    0  0.10958428779E+03  0.87930649291E+02 -0.45344809716E+03  0.47473483592E+03  0.41800000000E+01 0.  1.
         -5    1    3    3    0  502 -0.21042028111E+02  0.26264418388E+02 -0.32786784585E+03  0.32961702529E+03  0.41800000000E+01 0.  1.
        -11    1    1    2    0    0 -0.61914414281E+02 -0.71130164589E+02 -0.28973227309E+03  0.30469277162E+03  0.00000000000E+00 0. -1.
         11    1    1    2    0    0 -0.26627845400E+02 -0.43064903090E+02 -0.34473901911E+02  0.61254207543E+02  0.00000000000E+00 0.  1.
</event>
<event>
 7    1  0.2522928E-009  0.1095928E+03  0.7561462E-02  0.1261326E+00
          1   -1    0    0  501    0  0.00000000000E+00  0.00000000000E+00  0.39268178376E+02  0.39268178376E+02  0.00000000000E+00 0. -1.
         -1   -1    0    0    0  501 -0.00000000000E+00 -0.00000000000E+00 -0.53332838568E+03  0.53332838568E+03  0.00000000000E+00 0.  1.
         25    2    1    2    0    0  0.71296268552E+02 -0.62002893983E+02 -0.30334207590E+03  0.34145575035E+03  0.12509235653E+03 0.  0.
          5    1    3    3  502    0  0.17855637373E+02 -0.38552821607E+02 -0.12070257724E+02  0.44365610121E+02  0.41800000000E+01 0. -1.
         -5    1    3    3    0  502  0.53440631178E+02 -0.23450072376E+02 -0.29127181818E+03  0.29709014023E+03  0.41800000000E+01 0. -1.
        -11    1    1    2    0    0 -0.58874956491E+02  0.43793625252E+01 -0.45887387989E+02  0.74773602925E+02  0.00000000000E+00 0. -1.
         11    1    1    2    0    0 -0.12421312061E+02  0.57623531458E+02 -0.14483074342E+03  0.15636721079E+03  0.00000000000E+00 0.  1.
</event>
<event>
 7    1  0.2522928E-009  0.1429365E+03  0.7561462E-02  0.1209431E+00
          1   -1    0    0  501    0  0.00000000000E+00  0.00000000000E+00  0.75416817249E+02  0.75416817249E+02  0.00000000000E+00 0. -1.
         -1   -1    0    0    0  501 -0.00000000000E+00 -0.00000000000E+00 -0.30942318030E+03  0.30942318030E+03  0.00000000000E+00 0.  1.
         25    2    1    2    0    0 -0.13116821825E+01  0.92055384764E+02 -0.18712795401E+03  0.24319028418E+03  0.12509487908E+03 0.  0.
          5    1    3    3  502    0  0.57339184746E+02  0.71134264304E+02 -0.94627521008E+02  0.13160435326E+03  0.41800000000E+01 0.  1.
         -5    1    3    3    0  502 -0.58650866929E+02  0.20921120460E+02 -0.92500433006E+02  0.11158593092E+03  0.41800000000E+01 0.  1.
        -11    1    1    2    0    0  0.28400521774E+02 -0.99851386389E+02 -0.27338670189E+02  0.10735125471E+03  0.00000000000E+00 0.  1.
         11    1    1    2    0    0 -0.27088839591E+02  0.77960016248E+01 -0.19539738845E+02  0.34298458651E+02  0.00000000000E+00 0. -1.
</event>
<event>
 7    1  0.2522928E-009  0.1375573E+03  0.7561462E-02  0.1216654E+00
         -1   -1    0    0    0  501 -0.00000000000E+00  0.00000000000E+00  0.14168082925E+03  0.14168082925E+03  0.00000000000E+00 0.  1.
          1   -1    0    0  501    0  0.00000000000E+00 -0.00000000000E+00 -0.17787787671E+03  0.17787787671E+03  0.00000000000E+00 0. -1.
         25    2    1    2    0    0 -0.47865144915E+02 -0.92711075917E+02 -0.74276066980E+02  0.17902279618E+03  0.12508321923E+03 0.  0.
          5    1    3    3  502    0 -0.65408365691E+02  0.28363643607E+01 -0.32093153686E+02  0.73032473453E+02  0.41800000000E+01 0. -1.
         -5    1    3    3    0  502  0.17543220775E+02 -0.95547440278E+02 -0.42182913294E+02  0.10599032273E+03  0.41800000000E+01 0. -1.
        -11    1    1    2    0    0  0.49950843135E+02  0.54190715504E+02  0.60994406529E+02  0.95666284576E+02  0.00000000000E+00 0.  1.
         11    1    1    2    0    0 -0.20856982195E+01  0.38520360412E+02 -0.22915387011E+02  0.44869625196E+02  0.00000000000E+00 0. -1.
</event>
<event>
 7    1  0.2522928E-009  0.1086007E+03  0.7561462E-02  0.1263183E+00
          2   -1    0    0  501    0  0.00000000000E+00  0.00000000000E+00  0.44022683291E+03  0.44022683291E+03  0.00000000000E+00 0. -1.
         -2   -1    0    0    0  501 -0.00000000000E+00 -0.00000000000E+00 -0.34028934076E+02  0.34028934076E+02  0.00000000000E+00 0.  1.
         25    2    1    2    0    0  0.16202459999E+02  0.53813366053E+02  0.21184961769E+03  0.25236181521E+03  0.12509127540E+03 0.  0.
          5    1    3    3  502    0 -0.54024676085E+02  0.19265281870E+02  0.10675442567E+03  0.12125921207E+03  0.41800000000E+01 0.  1.
         -5    1    3    3    0  502  0.70227136083E+02  0.34548084183E+02  0.10509519202E+03  0.13110260313E+03  0.41800000000E+01 0.  1.
        -11    1    1    2    0    0 -0.38531643199E+02 -0.36303828581E+02  0.43844536962E+02  0.68738627559E+02  0.00000000000E+00 0.  1.
         11    1    1    2    0    0  0.22329183200E+02 -0.17509537473E+02  0.15050374418E+03  0.15315532422E+03  0.00000000000E+00 0. -1.
</event>
<event>
 7    1  0.2522928E-009  0.5907755E+02  0.7561462E-02  0.1401744E+00
         -2   -1    0    0    0  501 -0.00000000000E+00  0.00000000000E+00  0.37973717316E+03  0.37973717316E+03  0.00000000000E+00 0.  1.
          2   -1    0    0  501    0  0.00000000000E+00 -0.00000000000E+00 -0.32562677634E+02  0.32562677634E+02  0.00000000000E+00 0. -1.
         25    2    1    2    0    0  0.10218130524E+02 -0.22815637156E+02  0.19271503425E+03  0.23110935613E+03  0.12508991397E+03 0.  0.
          5    1    3    3  502    0  0.50807940927E+01 -0.19951875303E+02 -0.13367271771E+02  0.24900766079E+02  0.41800000000E+01 0.  1.
         -5    1    3    3    0  502  0.51373364313E+01 -0.28637618530E+01  0.20608230602E+03  0.20620859005E+03  0.41800000000E+01 0.  1.
        -11    1    1    2    0    0 -0.24972020825E+02 -0.27705876024E+02  0.37287571553E+02  0.52740690010E+02  0.00000000000E+00 0. -1.
         11    1    1    2    0    0  0.14753890301E+02  0.50521513180E+02  0.11717188973E+03  0.12844980465E+03  0.00000000000E+00 0.  1.
</event>
<event>
 7    1  0.2522928E-009  0.1071631E+03  0.7561462E-02  0.1265915E+00
         -2   -1    0    0    0  501 -0.00000000000E+00  0.00000000000E+00  0.46503036722E+02  0.46503036722E+02  0.00000000000E+00 0.  1.
          2   -1    0    0  501    0  0.00000000000E+00 -0.00000000000E+00 -0.32623299131E+03  0.32623299131E+03  0.00000000000E+00 0. -1.
         25    2    1    2    0    0  0.44115397764E+02 -0.39053598171E+02 -0.17516128020E+03  0.22316568290E+03  0.12510034410E+03 0.  0.
          5    1    3    3  502    0  0.24456995057E+02  0.39782049127E+02 -0.10775230942E+03  0.11751080216E+03  0.41800000000E+01 0.  1.
         -5    1    3    3    0  502  0.19658402707E+02 -0.78835647298E+02 -0.67408970786E+02  0.10565488074E+03  0.41800000000E+01 0.  1.
        -11    1    1    2    0    0  0.11024833931E+02 -0.79793326381E+01 -0.66164130164E+02  0.67549306680E+02  0.00000000000E+00 0. -1.
         11    1    1    2    0    0 -0.55140231695E+02  0.47032930809E+02 -0.38404544225E+02  0.82021038453E+02  0.00000000000E+00 0.  1.
</event>
<event>
 6    1  0.2522928E-009  0.1028424E+03  0.7561462E-02  0.1274430E+00
         -4   -1    0    0    0  501 -0.00000000000E+00  0.00000000000E+00  0.80725503883E+02  0.80725503883E+02  0.00000000000E+00 0.  1.
          4   -1    0    0  501    0  0.00000000000E+00 -0.00000000000E+00 -0.34213217752E+03  0.34213217752E+03  0.00000000000E+00 0. -1.
          5    1    1    2  502    0 -0.53613056109E+02  0.15130032559E+02  0.49937570459E+02  0.74930040797E+02  0.41800000000E+01 0. -1.
         -5    1    1    2    0  502  0.14204649456E+02  0.38263348848E+02 -0.51323783359E+02  0.65707374544E+02  0.41800000000E+01 0. -1.
        -11    1    1    2    0    0  0.40083749003E+00 -0.67359280220E+02 -0.14272422877E+03  0.15782154093E+03  0.00000000000E+00 0.  1.
         11    1    1    2    0    0  0.39007569163E+02  0.13965898813E+02 -0.11729623197E+03  0.12439872513E+03  0.00000000000E+00 0. -1.
</event>
<event>
 6    1  0.2522928E-009  0.1068605E+03  0.7561462E-02  0.1266497E+00
         -2   -1    0    0    0  501 -0.00000000000E+00  0.00000000000E+00  0.36014769742E+03  0.36014769742E+03  0.00000000000E+00 0.  1.
          2   -1    0    0  501    0  0.00000000000E+00 -0.00000000000E+00 -0.34689967562E+02  0.34689967562E+02  0.00000000000E+00 0. -1.
          5    1    1    2  502    0 -0.49538053081E+02 -0.18875101890E+02  0.10358652581E+03  0.11643851984E+03  0.41800000000E+01 0.  1.
         -5    1    1    2    0  502  0.50867613887E+02  0.44997101286E+02  0.56401610135E+02  0.88379111177E+02  0.41800000000E+01 0.  1.
        -11    1    1    2    0    0  0.26261989171E+02 -0.49697921325E+02  0.11318554393E+03  0.12637461301E+03  0.00000000000E+00 0. -1.
         11    1    1    2    0    0 -0.27591549976E+02  0.23575921929E+02  0.52284049989E+02  0.63645420952E+02  0.00000000000E+00 0.  1.
</event>
<event>
 7    1  0.2522928E-009  0.1191287E+03  0.7561462E-02  0.1244541E+00
         -1   -1    0    0    0  501 -0.00000000000E+00  0.00000000000E+00  0.30207807146E+02  0.30207807146E+02  0.00000000000E+00 0.  1.
          1   -1    0    0  501    0  0.00000000000E+00 -0.00000000000E+00 -0.57834773137E+03  0.57834773137E+03  0.00000000000E+00 0. -1.
         25    2    1    2    0    0 -0.73273549558E+02  0.83284393730E+01 -0.32004507798E+03  0.35144521851E+03  0.12508602524E+03 0.  0.
          5    1    3    3  502    0  0.19361110645E+02  0.41689110181E+02 -0.88845682890E+02  0.10011924032E+03  0.41800000000E+01 0. -1.
         -5    1    3    3    0  502 -0.92634660202E+02 -0.33360670808E+02 -0.23119939509E+03  0.25132597820E+03  0.41800000000E+01 0. -1.
        -11    1    1    2    0    0  0.38168294351E+02  0.24611392796E+02 -0.32933603150E+02  0.56099568318E+02  0.00000000000E+00 0.  1.
         11    1    1    2    0    0  0.35105255207E+02 -0.32939832169E+02 -0.19516124309E+03  0.20101075168E+03  0.00000000000E+00 0. -1.
</event>
<event>
 7    1  0.2522928E-009  0.1183252E+03  0.7561462E-02  0.1245886E+00
         -2   -1    0    0    0  501 -0.00000000000E+00  0.00000000000E+00  0.25007488247E+02  0.25007488247E+02  0.00000000000E+00 0. -1.
          2   -1    0    0  501    0  0.00000000000E+00 -0.00000000000E+00 -0.70716931738E+03  0.70716931738E+03  0.00000000000E+00 0.  1.
         25    2    1    2    0    0 -0.43368909851E+02  0.60527678418E+02 -0.33007137686E+03  0.36074349066E+03  0.12507713633E+03 0.  0.
          5    1    3    3  502    0 -0.29311376826E+02 -0.24016854876E+02 -0.29616901017E+02  0.48276281499E+02  0.41800000000E+01 0.  1.
         -5    1    3    3    0  502 -0.14057533025E+02  0.84544533294E+02 -0.30045447584E+03  0.31246720916E+03  0.41800000000E+01 0.  1.
        -11    1    1    2    0    0  0.60980844225E+02 -0.69906149049E+02 -0.23485894369E+03  0.25251585390E+03  0.00000000000E+00 0. -1.
         11    1    1    2    0    0 -0.17611934374E+02  0.93784706314E+01 -0.11723150858E+03  0.11891746107E+03  0.00000000000E+00 0.  1.
</event>
<event>
 7    1  0.2522928E-009  0.1029371E+03  0.7561462E-02  0.1274238E+00
         -1   -1    0    0    0  501 -0.00000000000E+00  0.00000000000E+00  0.61843677101E+02  0.61843677101E+02  0.00000000000E+00 0.  1.
          1   -1    0    0  501    0  0.00000000000E+00 -0.00000000000E+00 -0.21456613678E+03  0.21456613678E+03  0.00000000000E+00 0. -1.
         25    2    1    2    0    0 -0.31160263388E+02 -0.21516983040E+02 -0.79352454504E+02  0.15290082563E+03  0.12509159791E+03 0.  0.
          5    1    3    3  502    0  0.48258930460E+02 -0.60625098478E+01 -0.38467732678E+02  0.62152371252E+02  0.41800000000E+01 0. -1.
         -5    1    3    3    0  502 -0.79419193849E+02 -0.15454473192E+02 -0.40884721826E+02  0.90748454378E+02  0.41800000000E+01 0. -1.
        -11    1    1    2    0    0  0.30356993009E+02 -0.18805260543E+02  0.43244979561E+01  0.35970628730E+02  0.00000000000E+00 0.  1.
         11    1    1    2    0    0  0.80327037891E+00  0.40322243582E+02 -0.77694503128E+02  0.87538359518E+02  0.00000000000E+00 0. -1.
</event>
<event>
 7    1  0.2522928E-009  0.1650609E+03  0.7561462E-02  0.1183099E+00
          1   -1    0    0  501    0  0.00000000000E+00  0.00000000000E+00  0.37330567546E+03  0.37330567546E+03  0.00000000000E+00 0. -1.
         -1   -1    0    0    0  501 -0.00000000000E+00 -0.00000000000E+00 -0.16591214252E+03  0.16591214252E+03  0.00000000000E+00 0.  1.
         25    2    1    2    0    0  0.54442369238E+02 -0.14651371423E+03 -0.68288674573E+02  0.21149574218E+03  0.12504745443E+03 0.  0.
          5    1    3    3  502    0  0.38221887872E+02 -0.12241828223E+03 -0.10407511725E+03  0.16521577093E+03  0.41800000000E+01 0.  1.
         -5    1    3    3    0  502  0.16220481366E+02 -0.24095432000E+02  0.35786442672E+02  0.46279971242E+02  0.41800000000E+01 0.  1.
        -11    1    1    2    0    0 -0.67496779693E+02  0.79958909865E+02  0.12888069904E+03  0.16601047293E+03  0.00000000000E+00 0.  1.
         11    1    1    2    0    0  0.13054410454E+02  0.66554804361E+02  0.14680150846E+03  0.16171160287E+03  0.00000000000E+00 0. -1.
</event>
<event>
 7    1  0.2522928E-009  0.1182150E+03  0.7561462E-02  0.1246071E+00
          2   -1    0    0  501    0  0.00000000000E+00  0.00000000000E+00  0.13428547897E+04  0.13428547897E+04  0.00000000000E+00 0. -1.
         -2   -1    0    0    0  501 -0.00000000000E+00 -0.00000000000E+00 -0.19157682975E+02  0.19157682975E+02  0.00000000000E+00 0.  1.
         25    2    1    2    0    0 -0.83511148380E+02 -0.50448119933E+02  0.98541406340E+03  0.99810192275E+03  0.12508975634E+03 0.  0.
          5    1    3    3  502    0 -0.18856911477E+02 -0.42045970034E+02  0.98951372369E+02  0.10923503650E+03  0.41800000000E+01 0. -1.
         -5    1    3    3    0  502 -0.64654236902E+02 -0.84021498988E+01  0.88646269103E+03  0.88886688624E+03  0.41800000000E+01 0. -1.
        -11    1    1    2    0    0  0.98738437764E+02  0.46244486526E+02  0.32644074691E+03  0.34416768132E+03  0.00000000000E+00 0. -1.
         11    1    1    2    0    0 -0.15227289384E+02  0.42036334071E+01  0.11842296394E+02  0.19742868578E+02  0.00000000000E+00 0.  1.
</event>
<event>
 7    1  0.2547418E-009  0.1033625E+03  0.7561462E-02  0.1273380E+00
          2   -1    0    0  501    0  0.00000000000E+00  0.00000000000E+00  0.47646157844E+03  0.47646157844E+03  0.00000000000E+00 0. -1.
         -2   -1    0    0    0  501 -0.00000000000E+00 -0.00000000000E+00 -0.36008627589E+02  0.36008627589E+02  0.00000000000E+00 0.  1.
         25    2    1    2    0    0 -0.48017416949E+02 -0.20612161299E+02  0.34506174855E+03  0.37073782021E+03  0.12509351501E+03 0.  0.
          5    1    3    3  502    0  0.30376443010E+02  0.19772677736E+02  0.44858621043E+02  0.57822619767E+02  0.41800000000E+01 0. -1.
         -5    1    3    3    0  502 -0.78393859959E+02 -0.40384839035E+02  0.30020312751E+03  0.31291520045E+03  0.41800000000E+01 0. -1.
        -11    1    1    2    0    0 -0.48936538263E+01  0.28095677315E+02 -0.40868210115E+01  0.28810016271E+02  0.00000000000E+00 0.  1.
         11    1    1    2    0    0  0.52911070775E+02 -0.74835160152E+01  0.99478023310E+02  0.11292236955E+03  0.00000000000E+00 0. -1.
</event>
<event>
 7    1  0.2522928E-009  0.9139648E+02  0.7561462E-02  0.1299505E+00
          1   -1    0    0  501    0  0.00000000000E+00  0.00000000000E+00  0.56165319077E+02  0.56165319077E+02  0.00000000000E+00 0. -1.
         -1   -1    0    0    0  501 -0.00000000000E+00 -0.00000000000E+00 -0.22179606991E+03  0.22179606991E+03  0.00000000000E+00 0.  1.
         25    2    1    2    0    0 -0.13294237753E+02  0.18389148518E+02 -0.80247385467E+02  0.15034035672E+03  0.12509069688E+03 0.  0.
          5    1    3    3  502    0  0.64829226101E+01 -0.52599380263E+02 -0.37332043231E+02  0.64960579904E+02  0.41800000000E+01 0.  1.
         -5    1    3    3    0  502 -0.19777160363E+02  0.70988528781E+02 -0.42915342236E+02  0.85379776820E+02  0.41800000000E+01 0.  1.
        -11    1    1    2    0    0  0.73304804984E+01 -0.36253420215E+02  0.31364838664E+01  0.37119859276E+02  0.00000000000E+00 0. -1.
         11    1    1    2    0    0  0.59637572547E+01  0.17864271697E+02 -0.88519849238E+02  0.90501172992E+02  0.00000000000E+00 0.  1.
</event>
<event>
 7    1  0.2522928E-009  0.8230995E+02  0.7561462E-02  0.1322621E+00
          1   -1    0    0  501    0  0.00000000000E+00  0.00000000000E+00  0.89087199734E+02  0.89087199734E+02  0.00000000000E+00 0. -1.
         -1   -1    0    0    0  501 -0.00000000000E+00 -0.00000000000E+00 -0.15159481475E+03  0.15159481475E+03  0.00000000000E+00 0.  1.
         25    2    1    2    0    0 -0.10087053592E+02  0.32979344974E+02 -0.62769926998E+02  0.14414462551E+03  0.12509285944E+03 0.  0.
          5    1    3    3  502    0 -0.36274707007E+02  0.54453750249E+02 -0.81990046990E+02  0.10498050052E+03  0.41800000000E+01 0.  1.
         -5    1    3    3    0  502  0.26187653415E+02 -0.21474405275E+02  0.19220119992E+02  0.39164124985E+02  0.41800000000E+01 0.  1.
        -11    1    1    2    0    0 -0.22100158413E+02 -0.21296304066E+02 -0.35565999538E+02  0.46977546678E+02  0.00000000000E+00 0.  1.
         11    1    1    2    0    0  0.32187212005E+02 -0.11683040908E+02  0.35828311525E+02  0.49559842294E+02  0.00000000000E+00 0. -1.
</event>
<event>
 7    1  0.2522928E-009  0.8465684E+02  0.7561462E-02  0.1316332E+00
         -2   -1    0    0    0  501 -0.00000000000E+00  0.00000000000E+00  0.44239909129E+03  0.44239909129E+03  0.00000000000E+00 0.  1.
          2   -1    0    0  501    0  0.00000000000E+00 -0.00000000000E+00 -0.31796210938E+02  0.31796210938E+02  0.00000000000E+00 0. -1.
         25    2    1    2    0    0  0.51005986288E+02  0.87090389783E+01  0.20372598735E+03  0.24459544777E+03  0.12508076252E+03 0.  0.
          5    1    3    3  502    0 -0.93933695677E+01 -0.11493138854E+02 -0.12054642486E+02  0.19573309328E+02  0.41800000000E+01 0. -1.
         -5    1    3    3    0  502  0.60399355856E+02  0.20202177833E+02  0.21578062984E+03  0.22502213845E+03  0.41800000000E+01 0. -1.
        -11    1    1    2    0    0 -0.38457926423E+02  0.30382572026E+02  0.15974079925E+03  0.16709050163E+03  0.00000000000E+00 0.  1.
         11    1    1    2    0    0 -0.12548059865E+02 -0.39091611004E+02  0.47136093745E+02  0.62509352827E+02  0.00000000000E+00 0. -1.
</event>
<event>
 7    1  0.2522928E-009  0.7942565E+02  0.7561462E-02  0.1330689E+00
          1   -1    0    0  501    0  0.00000000000E+00  0.00000000000E+00  0.62884912341E+03  0.62884912341E+03  0.00000000000E+00 0. -1.
         -1   -1    0    0    0  501 -0.00000000000E+00 -0.00000000000E+00 -0.25537952677E+02  0.25537952677E+02  0.00000000000E+00 0.  1.
         25    2    1    2    0    0  0.49470346486E+02 -0.36195290907E+02  0.39376552409E+03  0.41767848539E+03  0.12508642985E+03 0.  0.
          5    1    3    3  502    0  0.81442321599E+01 -0.11361326739E+02 -0.54241174906E+01  0.15566043598E+02  0.41800000000E+01 0. -1.
         -5    1    3    3    0  502  0.41326114326E+02 -0.24833964168E+02  0.39918964158E+03  0.40211244179E+03  0.41800000000E+01 0. -1.
        -11    1    1    2    0    0 -0.32069378092E+02  0.59016997311E+02  0.82115701195E+02  0.10608694248E+03  0.00000000000E+00 0.  1.
         11    1    1    2    0    0 -0.17400968394E+02 -0.22821706404E+02  0.12742994545E+03  0.13062164821E+03  0.00000000000E+00 0. -1.
</event>
<event>
 7    1  0.2522928E-009  0.1022533E+03  0.7561462E-02  0.1275628E+00
          3   -1    0    0  501    0  0.00000000000E+00  0.00000000000E+00  0.12304834366E+03  0.12304834366E+03  0.00000000000E+00 0. -1.
         -3   -1    0    0    0  501 -0.00000000000E+00 -0.00000000000E+00 -0.10484623730E+03  0.10484623730E+03  0.00000000000E+00 0.  1.
         25    2    1    2    0    0 -0.76596425941E+01 -0.17210190403E+02  0.43897499545E+02  0.13390005247E+03  0.12508945922E+03 0.  0.
          5    1    3    3  502    0 -0.59637284732E+02 -0.34522613868E+02  0.11130165953E+02  0.69926887480E+02  0.41800000000E+01 0.  1.
         -5    1    3    3    0  502  0.51977642138E+02  0.17312423465E+02  0.32767333592E+02  0.63973164993E+02  0.41800000000E+01 0.  1.
        -11    1    1    2    0    0  0.41801632431E+02  0.19865258877E+02  0.68083931529E+01  0.46779901683E+02  0.00000000000E+00 0. -1.
         11    1    1    2    0    0 -0.34141989837E+02 -0.26550684740E+01 -0.32503786333E+02  0.47214626808E+02  0.00000000000E+00 0.  1.
</event>
<event>
 7    1  0.2522928E-009  0.1863836E+03  0.7561462E-02  0.1161764E+00
          2   -1    0    0  501    0  0.00000000000E+00  0.00000000000E+00  0.12712510858E+04  0.12712510858E+04  0.00000000000E+00 0. -1.
         -2   -1    0    0    0  501 -0.00000000000E+00 -0.00000000000E+00 -0.36623859927E+02  0.36623859927E+02  0.00000000000E+00 0.  1.
         25    2    1    2    0    0  0.11309170463E+03 -0.12064719019E+03  0.89494618410E+03  0.91865734249E+03  0.12512858309E+03 0.  0.
          5    1    3    3  502    0 -0.22180082845E+02 -0.12462478484E+01  0.17409695239E+03  0.17555833914E+03  0.41800000000E+01 0.  1.
         -5    1    3    3    0  502  0.13527178748E+03 -0.11940094234E+03  0.72084923171E+03  0.74309900335E+03  0.41800000000E+01 0.  1.
        -11    1    1    2    0    0 -0.75833621479E+02  0.10440496451E+03  0.16285690518E+03  0.20778235326E+03  0.00000000000E+00 0.  1.
         11    1    1    2    0    0 -0.37258083154E+02  0.16242225678E+02  0.17682413662E+03  0.18143525001E+03  0.00000000000E+00 0. -1.
</event>
<event>
 7    1  0.2522928E-009  0.9883550E+02  0.7561462E-02  0.1282764E+00
         -2   -1    0    0    0  501 -0.00000000000E+00  0.00000000000E+00  0.26857886660E+02  0.26857886660E+02  0.00000000000E+00 0.  1.
          2   -1    0    0  501    0  0.00000000000E+00 -0.00000000000E+00 -0.78433667541E+03  0.78433667541E+03  0.00000000000E+00 0. -1.
         25    2    1    2    0    0 -0.58268829861E+02  0.71588120997E+02 -0.49414838718E+03  0.51802556405E+03  0.12509093032E+03 0.  0.
          5    1    3    3  502    0 -0.33479784921E+02  0.17456167178E+02 -0.25872985037E+02  0.45961913859E+02  0.41800000000E+01 0.  1.
         -5    1    3    3    0  502 -0.24789044940E+02  0.54131953819E+02 -0.46827540215E+03  0.47206365019E+03  0.41800000000E+01 0.  1.
        -11    1    1    2    0    0  0.29025377562E+02 -0.63246340187E+02 -0.25080579374E+03  0.26028084498E+03  0.00000000000E+00 0. -1.
         11    1    1    2    0    0  0.29243452298E+02 -0.83417808102E+01 -0.12524607827E+02  0.32888153044E+02  0.00000000000E+00 0.  1.
</event>
<event>
 7    1  0.2522928E-009  0.7038847E+02  0.7561462E-02  0.1358777E+00
          2   -1    0    0  501    0  0.00000000000E+00  0.00000000000E+00  0.74188703814E+02  0.74188703814E+02  0.00000000000E+00 0. -1.
         -2   -1    0    0    0  501 -0.00000000000E+00 -0.00000000000E+00 -0.18021306519E+03  0.18021306519E+03  0.00000000000E+00 0.  1.
         25    2    1    2    0    0 -0.21062706235E+02  0.18287328376E+02 -0.27294521740E+02  0.13103794780E+03  0.12509152198E+03 0.  0.
          5    1    3    3  502    0 -0.36912359534E+02  0.22368612070E+02  0.41607184187E+02  0.60095817394E+02  0.41800000000E+01 0.  1.
         -5    1    3    3    0  502  0.15849653300E+02 -0.40812836942E+01 -0.68901705926E+02  0.70942130401E+02  0.41800000000E+01 0.  1.
        -11    1    1    2    0    0 -0.14128662918E+02  0.22551812522E+02 -0.61100974006E+02  0.66644822667E+02  0.00000000000E+00 0.  1.
         11    1    1    2    0    0  0.35191369153E+02 -0.40839140898E+02 -0.17628865631E+02  0.56718998542E+02  0.00000000000E+00 0. -1.
</event>
<event>
 7    1  0.2522928E-009  0.1150429E+03  0.7561462E-02  0.1251506E+00
          1   -1    0    0  501    0  0.00000000000E+00  0.00000000000E+00  0.42797460489E+03  0.42797460489E+03  0.00000000000E+00 0. -1.
         -1   -1    0    0    0  501 -0.00000000000E+00 -0.00000000000E+00 -0.35031153022E+02  0.35031153022E+02  0.00000000000E+00 0.  1.
         25    2    1    2    0    0  0.49397463308E+02  0.23336227119E+02  0.18463370819E+03  0.22960726880E+03  0.12508078512E+03 0.  0.
          5    1    3    3  502    0 -0.34615997289E+02 -0.66823853312E+01  0.16338200357E+02  0.39081078964E+02  0.41800000000E+01 0. -1.
         -5    1    3    3    0  502  0.84013460597E+02  0.30018612450E+02  0.16829550784E+03  0.19052618983E+03  0.41800000000E+01 0. -1.
        -11    1    1    2    0    0 -0.38386593015E+02  0.31303674884E+02  0.97963425884E+02  0.10977378282E+03  0.00000000000E+00 0. -1.
         11    1    1    2    0    0 -0.11010870292E+02 -0.54639902003E+02  0.11034631779E+03  0.12362470629E+03  0.00000000000E+00 0.  1.
</event>
<event>
 7    1  0.2522928E-009  0.1322890E+03  0.7561462E-02  0.1224098E+00
         -2   -1    0    0    0  501 -0.00000000000E+00  0.00000000000E+00  0.41091193893E+02  0.41091193893E+02  0.00000000000E+00 0.  1.
          2   -1    0    0  501    0  0.00000000000E+00 -0.00000000000E+00 -0.54238511509E+03  0.54238511509E+03  0.00000000000E+00 0. -1.
         25    2    1    2    0    0  0.59967594353E+02  0.81418559723E+02 -0.23336874979E+03  0.28343246889E+03  0.12509155370E+03 0.  0.
          5    1    3    3  502    0 -0.26092125498E+02  0.67862168400E+02 -0.12039093961E+03  0.14070367320E+03  0.41800000000E+01 0. -1.
         -5    1    3    3    0  502  0.86059719851E+02  0.13556391323E+02 -0.11297781018E+03  0.14272879569E+03  0.41800000000E+01 0. -1.
        -11    1    1    2    0    0 -0.13681207974E+02 -0.40510858500E+02 -0.25309842662E+02  0.49687958739E+02  0.00000000000E+00 0.  1.
         11    1    1    2    0    0 -0.46286386378E+02 -0.40907701223E+02 -0.24261532875E+03  0.25035588136E+03  0.00000000000E+00 0. -1.
</event>
<event>
 6    1  0.2867412E-009  0.2052026E+03  0.7561462E-02  0.1145422E+00
         -2   -1    0    0    0  501 -0.00000000000E+00  0.00000000000E+00  0.31326441929E+02  0.31326441929E+02  0.00000000000E+00 0.  1.
          2   -1    0    0  501    0  0.00000000000E+00 -0.00000000000E+00 -0.14791769562E+04  0.14791769562E+04  0.00000000000E+00 0. -1.
          5    1    1    2  502    0 -0.49721511109E+02  0.35153302312E+02 -0.15239258448E+03  0.16416137041E+03  0.41800000000E+01 0.  1.
         -5    1    1    2    0  502 -0.10809293962E+03 -0.10836179723E+03 -0.37267292848E+03  0.40290066607E+03  0.41800000000E+01 0.  1.
        -11    1    1    2    0    0  0.50797272033E+02  0.73368783435E+02 -0.43347276723E+03  0.44256296858E+03  0.00000000000E+00 0.  1.
         11    1    1    2    0    0  0.10701717869E+03 -0.16028851984E+00 -0.48931223409E+03  0.50087839308E+03  0.00000000000E+00 0. -1.
</event>
<event>
 7    1  0.2522928E-009  0.8773896E+02  0.7561462E-02  0.1308421E+00
          1   -1    0    0  501    0  0.00000000000E+00  0.00000000000E+00  0.11528579047E+03  0.11528579047E+03  0.00000000000E+00 0. -1.
         -1   -1    0    0    0  501 -0.00000000000E+00 -0.00000000000E+00 -0.14072558251E+03  0.14072558251E+03  0.00000000000E+00 0.  1.
         25    2    1    2    0    0  0.11894308374E+02 -0.22001354906E+02  0.49944237586E+02  0.13699258483E+03  0.12508799799E+03 0.  0.
          5    1    3    3  502    0 -0.65724114667E+01  0.38241985412E+02 -0.19078664654E+02  0.43440924089E+02  0.41800000000E+01 0. -1.
         -5    1    3    3    0  502  0.18466719841E+02 -0.60243340318E+02  0.69022902240E+02  0.93551660744E+02  0.41800000000E+01 0. -1.
        -11    1    1    2    0    0 -0.26168939376E+02 -0.17379260734E+02  0.15156726926E+01  0.31450744911E+02  0.00000000000E+00 0. -1.
         11    1    1    2    0    0  0.14274631002E+02  0.39380615640E+02 -0.76899702322E+02  0.87568043233E+02  0.00000000000E+00 0.  1.
</event>
<event>
 7    1  0.2522928E-009  0.9215621E+02  0.7561462E-02  0.1297713E+00
          1   -1    0    0  501    0  0.00000000000E+00  0.00000000000E+00  0.61204215153E+03  0.61204215153E+03  0.00000000000E+00 0. -1.
         -1   -1    0    0    0  501 -0.00000000000E+00 -0.00000000000E+00 -0.26150845928E+02  0.26150845928E+02  0.00000000000E+00 0.  1.
         25    2    1    2    0    0  0.56206402628E+02  0.35259609457E+01  0.41298982042E+03  0.43517750101E+03  0.12508906233E+03 0.  0.
          5    1    3    3  502    0  0.37235927160E+02 -0.35885140831E+02  0.37029607274E+03  0.37391297315E+03  0.41800000000E+01 0. -1.
         -5    1    3    3    0  502  0.18970475468E+02  0.39411101777E+02  0.42693747689E+02  0.61264527864E+02  0.41800000000E+01 0. -1.
        -11    1    1    2    0    0 -0.18746062731E+02 -0.34908516668E+02  0.13634728202E+03  0.14198803020E+03  0.00000000000E+00 0. -1.
         11    1    1    2    0    0 -0.37460339897E+02  0.31382555722E+02  0.36554203159E+02  0.61027466254E+02  0.00000000000E+00 0.  1.
</event>
<event>
 7    1  0.3019943E-009  0.1328255E+03  0.7561462E-02  0.1223322E+00
          1   -1    0    0  501    0  0.00000000000E+00  0.00000000000E+00  0.13618879862E+04  0.13618879862E+04  0.00000000000E+00 0. -1.
         -1   -1    0    0    0  501 -0.00000000000E+00 -0.00000000000E+00 -0.17823838394E+02  0.17823838394E+02  0.00000000000E+00 0.  1.
         25    2    1    2    0    0  0.85263768622E+02 -0.69568923009E+02  0.64673620430E+03  0.66785169928E+03  0.12509368085E+03 0.  0.
          5    1    3    3  502    0  0.54054446514E+02 -0.85423082817E+01  0.80279877191E+02  0.97248060652E+02  0.41800000000E+01 0. -1.
         -5    1    3    3    0  502  0.31209322108E+02 -0.61026614728E+02  0.56645632711E+03  0.57060363862E+03  0.41800000000E+01 0. -1.
        -11    1    1    2    0    0  0.13660799609E+02  0.34554248502E+02  0.14753531515E+03  0.15214231085E+03  0.00000000000E+00 0.  1.
         11    1    1    2    0    0 -0.98924568231E+02  0.35014674507E+02  0.54979262832E+03  0.55971781443E+03  0.00000000000E+00 0. -1.
</event>
<event>
 7    1  0.2522928E-009  0.1345628E+03  0.7561462E-02  0.1220838E+00
         -3   -1    0    0    0  501 -0.00000000000E+00  0.00000000000E+00  0.31088811358E+03  0.31088811358E+03  0.00000000000E+00 0.  1.
          3   -1    0    0  501    0  0.00000000000E+00 -0.00000000000E+00 -0.15441152085E+03  0.15441152085E+03  0.00000000000E+00 0. -1.
         25    2    1    2    0    0 -0.10952437205E+03  0.31887652363E+02  0.24222460735E+03  0.29551565713E+03  0.12507730712E+03 0.  0.
          5    1    3    3  502    0 -0.71644755656E+02  0.70037105879E+02  0.20995804740E+03  0.23267578577E+03  0.41800000000E+01 0. -1.
         -5    1    3    3    0  502 -0.37879616396E+02 -0.38149453516E+02  0.32266559944E+02  0.62839871360E+02  0.41800000000E+01 0. -1.
        -11    1    1    2    0    0  0.79696706392E+02 -0.29574824900E+02 -0.10432126157E+03  0.13457028236E+03  0.00000000000E+00 0. -1.
         11    1    1    2    0    0  0.29827665659E+02 -0.23128274635E+01  0.18573246949E+02  0.35213694947E+02  0.00000000000E+00 0.  1.
</event>
<event>
 7    1  0.2522928E-009  0.1042936E+03  0.7561462E-02  0.1271518E+00
          1   -1    0    0  501    0  0.00000000000E+00  0.00000000000E+00  0.88453933270E+02  0.88453933270E+02  0.00000000000E+00 0. -1.
         -1   -1    0    0    0  501 -0.00000000000E+00 -0.00000000000E+00 -0.15687471879E+03  0.15687471879E+03  0.00000000000E+00 0.  1.
         25    2    1    2    0    0 -0.22533132310E+02 -0.39850806754E+02 -0.33677324256E+02  0.13739679399E+03  0.12509151842E+03 0.  0.
          5    1    3    3  502    0 -0.55504503582E+00  0.39808817192E+02 -0.37106773208E+02  0.54584201186E+02  0.41800000000E+01 0.  1.
         -5    1    3    3    0  502 -0.21978087274E+02 -0.79659623946E+02  0.34294489514E+01  0.82812592808E+02  0.41800000000E+01 0.  1.
        -11    1    1    2    0    0 -0.13046390543E+02  0.47638128481E+02  0.98395620113E+01  0.50362849124E+02  0.00000000000E+00 0. -1.
         11    1    1    2    0    0  0.35579522853E+02 -0.77873217264E+01 -0.44583023271E+02  0.57569008938E+02  0.00000000000E+00 0.  1.
</event>
<event>
 7    1  0.2522928E-009  0.9279323E+02  0.7561462E-02  0.1296225E+00
          1   -1    0    0  501    0  0.00000000000E+00  0.00000000000E+00  0.68275169692E+02  0.68275169692E+02  0.00000000000E+00 0. -1.
         -1   -1    0    0    0  501 -0.00000000000E+00 -0.00000000000E+00 -0.21806639408E+03  0.21806639408E+03  0.00000000000E+00 0.  1.
         25    2    1    2    0    0 -0.12574606282E+02 -0.33252196406E+02 -0.13512552769E+03  0.18753688245E+03  0.12508934709E+03 0.  0.
          5    1    3    3  502    0 -0.23326885676E+02  0.25429887108E+02 -0.12126193757E+03  0.12614575956E+03  0.41800000000E+01 0.  1.
         -5    1    3    3    0  502  0.10752279394E+02 -0.58682083514E+02 -0.13863590126E+02  0.61391122883E+02  0.41800000000E+01 0.  1.
        -11    1    1    2    0    0 -0.25391112893E+02  0.44664044730E+02  0.96819304232E+01  0.52281213474E+02  0.00000000000E+00 0. -1.
         11    1    1    2    0    0  0.37965719175E+02 -0.11411848324E+02 -0.24347627121E+02  0.46523467853E+02  0.00000000000E+00 0.  1.
</event>
<event>
 7    1  0.2522928E-009  0.1072135E+03  0.7561462E-02  0.1265819E+00
         -3   -1    0    0    0  501 -0.00000000000E+00  0.00000000000E+00  0.16123420484E+03  0.16123420484E+03  0.00000000000E+00 0.  1.
          3   -1    0    0  501    0  0.00000000000E+00 -0.00000000000E+00 -0.97406336734E+02  0.97406336734E+02  0.00000000000E+00 0. -1.
         25    2    1    2    0    0 -0.32820319827E+02 -0.16514430361E+01  0.82678486843E+02  0.15351120022E+03  0.12510018285E+03 0.  0.
          5    1    3    3  502    0  0.19833367680E+02 -0.41698370556E+02  0.73064203962E+02  0.86533039246E+02  0.41800000000E+01 0.  1.
         -5    1    3    3    0  502 -0.52653687507E+02  0.40046927520E+02  0.96142828811E+01  0.66978160972E+02  0.41800000000E+01 0.  1.
        -11    1    1    2    0    0 -0.71962422242E+01  0.43374608106E+02 -0.17442200476E+02  0.47300876186E+02  0.00000000000E+00 0. -1.
         11    1    1    2    0    0  0.40016562051E+02 -0.41723165070E+02 -0.14084182609E+01  0.57828465170E+02  0.00000000000E+00 0.  1.
</event>
<event>
 7    1  0.2522928E-009  0.1281532E+03  0.7561462E-02  0.1230222E+00
          2   -1    0    0  501    0  0.00000000000E+00  0.00000000000E+00  0.59976361455E+03  0.59976361455E+03  0.00000000000E+00 0.  1.
         -2   -1    0    0    0  501 -0.00000000000E+00 -0.00000000000E+00 -0.50740080053E+02  0.50740080053E+02  0.00000000000E+00 0. -1.
         25    2    1    2    0    0  0.98268554857E+02 -0.59149410132E+02  0.43589658120E+03  0.46776999208E+03  0.12509026499E+03 0.  0.
          5    1    3    3  502    0  0.11122541633E+02 -0.77079471813E+01 -0.52810960854E+01  0.15115745367E+02  0.41800000000E+01 0.  1.
         -5    1    3    3    0  502  0.87146013224E+02 -0.51441462951E+02  0.44117767728E+03  0.45265424671E+03  0.41800000000E+01 0.  1.
        -11    1    1    2    0    0 -0.10025348875E+03  0.20710033557E+02  0.96913372402E+02  0.14096761773E+03  0.00000000000E+00 0.  1.
         11    1    1    2    0    0  0.19849338966E+01  0.38439376575E+02  0.16213580898E+02  0.41766084801E+02  0.00000000000E+00 0. -1.
</event>
<event>
 7    1  0.2522928E-009  0.1103731E+03  0.7561462E-02  0.1259881E+00
         -2   -1    0    0    0  501 -0.00000000000E+00  0.00000000000E+00  0.86301230443E+02  0.86301230443E+02  0.00000000000E+00 0.  1.
          2   -1    0    0  501    0  0.00000000000E+00 -0.00000000000E+00 -0.29517295146E+03  0.29517295146E+03  0.00000000000E+00 0. -1.
         25    2    1    2    0    0  0.49844579535E+02  0.36862188798E+02 -0.23503162952E+03  0.27337425326E+03  0.12510120864E+03 0.  0.
          5    1    3    3  502    0 -0.35325394466E+02 -0.13908442462E+02 -0.45283399328E+02  0.59240078668E+02  0.41800000000E+01 0. -1.
         -5    1    3    3    0  502  0.85169974001E+02  0.50770631260E+02 -0.18974823019E+03  0.21413417460E+03  0.41800000000E+01 0. -1.
        -11    1    1    2    0    0 -0.19451849248E+02 -0.47324666421E+02  0.47257773817E+02  0.69651243185E+02  0.00000000000E+00 0.  1.
         11    1    1    2    0    0 -0.30392730287E+02  0.10462477624E+02 -0.21097865321E+02  0.38448685458E+02  0.00000000000E+00 0. -1.
</event>
<event>
 7    1  0.2522928E-009  0.3465839E+03  0.7561462E-02  0.1064026E+00
         -2   -1    0    0    0  501 -0.00000000000E+00  0.00000000000E+00  0.59589517984E+02  0.59589517984E+02  0.00000000000E+00 0.  1.
          2   -1    0    0  501    0  0.00000000000E+00 -0.00000000000E+00 -0.21318840740E+04  0.21318840740E+04  0.00000000000E+00 0. -1.
         25    2    1    2    0    0  0.11232042146E+03 -0.31143415501E+03 -0.12608023219E+04  0.13095330559E+04  0.12508884714E+03 0.  0.
          5    1    3    3  502    0 -0.17008665605E+02 -0.10115455079E+03 -0.47009042366E+03  0.48116942616E+03  0.41800000000E+01 0.  1.
         -5    1    3    3    0  502  0.12932908707E+03 -0.21027960421E+03 -0.79071189824E+03  0.82836362977E+03  0.41800000000E+01 0.  1.
        -11    1    1    2    0    0 -0.65766947278E+02  0.63782559757E+02 -0.25806533990E+03  0.27384525912E+03  0.00000000000E+00 0. -1.
         11    1    1    2    0    0 -0.46553474185E+02  0.24765159525E+03 -0.55342689418E+03  0.60809527690E+03  0.00000000000E+00 0.  1.
</event>
<event>
 7    1  0.2522928E-009  0.8133964E+02  0.7561462E-02  0.1325292E+00
         -1   -1    0    0    0  501 -0.00000000000E+00  0.00000000000E+00  0.86965950325E+03  0.86965950325E+03  0.00000000000E+00 0.  1.
          1   -1    0    0  501    0  0.00000000000E+00 -0.00000000000E+00 -0.20954022716E+02  0.20954022716E+02  0.00000000000E+00 0. -1.
         25    2    1    2    0    0  0.10941833448E+02 -0.19624717006E+02  0.69145410603E+03  0.70303715383E+03  0.12509039007E+03 0.  0.
          5    1    3    3  502    0  0.20187816671E+01  0.24635193744E+02  0.26279174167E+02  0.36318530327E+02  0.41800000000E+01 0. -1.
         -5    1    3    3    0  502  0.89230517808E+01 -0.44259910750E+02  0.66517493186E+03  0.66671862351E+03  0.41800000000E+01 0. -1.
        -11    1    1    2    0    0 -0.48826383550E+02  0.23495339191E+02  0.12972836124E+03  0.14058980903E+03  0.00000000000E+00 0.  1.
         11    1    1    2    0    0  0.37884550102E+02 -0.38706221848E+01  0.27523013264E+02  0.46986563097E+02  0.00000000000E+00 0. -1.
</event>
<event>
 7    1  0.2522928E-009  0.1266249E+03  0.7561462E-02  0.1232552E+00
         -1   -1    0    0    0  501 -0.00000000000E+00  0.00000000000E+00  0.17280439115E+03  0.17280439115E+03  0.00000000000E+00 0.  1.
          1   -1    0    0  501    0  0.00000000000E+00 -0.00000000000E+00 -0.11695624049E+03  0.11695624049E+03  0.00000000000E+00 0. -1.
         25    2    1    2    0    0  0.58190532744E+02  0.51543419243E+02  0.65987570916E+02  0.16139215415E+03  0.12510078232E+03 0.  0.
          5    1    3    3  502    0  0.64918285790E+02  0.82110463957E+02  0.74668151545E+02  0.12864415018E+03  0.41800000000E+01 0.  1.
         -5    1    3    3    0  502 -0.67277530459E+01 -0.30567044714E+02 -0.86805806300E+01  0.32748003965E+02  0.41800000000E+01 0.  1.
        -11    1    1    2    0    0  0.12754149626E+01  0.22170196299E+02  0.19054873174E+02  0.29261450390E+02  0.00000000000E+00 0.  1.
         11    1    1    2    0    0 -0.59465947706E+02 -0.73713615542E+02 -0.29194293422E+02  0.99107027103E+02  0.00000000000E+00 0. -1.
</event>
<event>
 7    1  0.2522928E-009  0.7037565E+02  0.7561462E-02  0.1358820E+00
          3   -1    0    0  501    0  0.00000000000E+00  0.00000000000E+00  0.11774337790E+03  0.11774337790E+03  0.00000000000E+00 0. -1.
         -3   -1    0    0    0  501 -0.00000000000E+00 -0.00000000000E+00 -0.10141613313E+03  0.10141613313E+03  0.00000000000E+00 0.  1.
         25    2    1    2    0    0  0.14422670085E+02 -0.45099638769E+01  0.14753920790E+02  0.12686170373E+03  0.12509140861E+03 0.  0.
          5    1    3    3  502    0  0.40692303758E+02  0.27484461761E+02  0.51550247250E+02  0.71317316375E+02  0.41800000000E+01 0.  1.
         -5    1    3    3    0  502 -0.26269633673E+02 -0.31994425638E+02 -0.36796326460E+02  0.55544387351E+02  0.41800000000E+01 0.  1.
        -11    1    1    2    0    0 -0.11859515657E+02 -0.21056557279E+02  0.39607310271E+02  0.46397906666E+02  0.00000000000E+00 0. -1.
         11    1    1    2    0    0 -0.25631544280E+01  0.25566521156E+02 -0.38033986297E+02  0.45899900635E+02  0.00000000000E+00 0.  1.
</event>
<event>
 7    1  0.2522928E-009  0.1254792E+03  0.7561462E-02  0.1234322E+00
          2   -1    0    0  501    0  0.00000000000E+00  0.00000000000E+00  0.10686699636E+03  0.10686699636E+03  0.00000000000E+00 0. -1.
         -2   -1    0    0    0  501 -0.00000000000E+00 -0.00000000000E+00 -0.16782077027E+03  0.16782077027E+03  0.00000000000E+00 0.  1.
         25    2    1    2    0    0  0.21465079248E+02  0.51534068653E+02  0.30353923786E+01  0.13701508488E+03  0.12508960795E+03 0.  0.
          5    1    3    3  502    0 -0.43690527585E+02  0.54107987956E+02 -0.10007405095E+02  0.70385773549E+02  0.41800000000E+01 0. -1.
         -5    1    3    3    0  502  0.65155606833E+02 -0.25739193037E+01  0.13042797473E+02  0.66629311330E+02  0.41800000000E+01 0. -1.
        -11    1    1    2    0    0 -0.60008635669E+02 -0.48729396337E+02 -0.61793705260E+02  0.98964905052E+02  0.00000000000E+00 0.  1.
         11    1    1    2    0    0  0.38543556420E+02 -0.28046723157E+01 -0.21954610332E+01  0.38707776705E+02  0.00000000000E+00 0. -1.
</event>
<event>
 7    1  0.2522928E-009  0.1045232E+03  0.7561462E-02  0.1271062E+00
          2   -1    0    0  501    0  0.00000000000E+00  0.00000000000E+00  0.27500792162E+03  0.27500792162E+03  0.00000000000E+00 0.  1.
         -2   -1    0    0    0  501 -0.00000000000E+00 -0.00000000000E+00 -0.51487198974E+02  0.51487198974E+02  0.00000000000E+00 0. -1.
         25    2    1    2    0    0 -0.42593938981E+01 -0.24466202955E+02  0.18231542383E+03  0.22248752802E+03  0.12508016963E+03 0.  0.
          5    1    3    3  502    0 -0.57455619732E+02 -0.57541127655E+01  0.14109867106E+03  0.15251414828E+03  0.41800000000E+01 0. -1.
         -5    1    3    3    0  502  0.53196225834E+02 -0.18712090190E+02  0.41216752773E+02  0.69973379734E+02  0.41800000000E+01 0. -1.
        -11    1    1    2    0    0  0.39564056852E+02 -0.14396220935E+02  0.25424151286E+02  0.49182855147E+02  0.00000000000E+00 0.  1.
         11    1    1    2    0    0 -0.35304662953E+02  0.38862423891E+02  0.15781147530E+02  0.54824737430E+02  0.00000000000E+00 0. -1.
</event>
<event>
 7    1  0.2522928E-009  0.8961806E+02  0.7561462E-02  0.1303779E+00
          1   -1    0    0  501    0  0.00000000000E+00  0.00000000000E+00  0.68930619990E+02  0.68930619990E+02  0.00000000000E+00 0. -1.
         -1   -1    0    0    0  501 -0.00000000000E+00 -0.00000000000E+00 -0.21061199803E+03  0.21061199803E+03  0.00000000000E+00 0.  1.
         25    2    1    2    0    0 -0.45937901367E+02  0.10666743951E+02 -0.55185910723E+02  0.14462702697E+03  0.12508965577E+03 0.  0.
          5    1    3    3  502    0 -0.59176778481E+02 -0.20062917768E+02  0.17053279981E+02  0.64905304397E+02  0.41800000000E+01 0.  1.
         -5    1    3    3    0  502  0.13238877114E+02  0.30729661720E+02 -0.72239190704E+02  0.79721722574E+02  0.41800000000E+01 0.  1.
        -11    1    1    2    0    0  0.54496474772E+02  0.14430373455E+02 -0.14525015750E+02  0.58215784141E+02  0.00000000000E+00 0. -1.
         11    1    1    2    0    0 -0.85585734056E+01 -0.25097117406E+02 -0.71970451572E+02  0.76699806912E+02  0.00000000000E+00 0.  1.
</event>
<event>
 7    1  0.2522928E-009  0.2112369E+03  0.7561462E-02  0.1140590E+00
          1   -1    0    0  501    0  0.00000000000E+00  0.00000000000E+00  0.59146366485E+03  0.59146366485E+03  0.00000000000E+00 0. -1.
         -1   -1    0    0    0  501 -0.00000000000E+00 -0.00000000000E+00 -0.11066147307E+03  0.11066147307E+03  0.00000000000E+00 0.  1.
         25    2    1    2    0    0 -0.19154597043E+03 -0.33340254884E+02  0.41530311810E+03  0.47531596084E+03  0.12508857397E+03 0.  0.
          5    1    3    3  502    0 -0.18210011153E+03 -0.12691363111E+02  0.25654537020E+03  0.31488810820E+03  0.41800000000E+01 0. -1.
         -5    1    3    3    0  502 -0.94458589005E+01 -0.20648891773E+02  0.15875774790E+03  0.16042785263E+03  0.41800000000E+01 0. -1.
        -11    1    1    2    0    0  0.52985708871E+02 -0.33776598408E+02  0.13185641629E+02  0.64204400860E+02  0.00000000000E+00 0. -1.
         11    1    1    2    0    0  0.13856026156E+03  0.67116853291E+02  0.52313432051E+02  0.16260477623E+03  0.00000000000E+00 0.  1.
</event>
<event>
 7    1  0.2522928E-009  0.1177544E+03  0.7561462E-02  0.1246848E+00
         -2   -1    0    0    0  501 -0.00000000000E+00  0.00000000000E+00  0.18890318671E+03  0.18890318671E+03  0.00000000000E+00 0.  1.
          2   -1    0    0  501    0  0.00000000000E+00 -0.00000000000E+00 -0.11625588625E+03  0.11625588625E+03  0.00000000000E+00 0. -1.
         25    2    1    2    0    0 -0.51413350774E+02 -0.42822729506E+02  0.11453397283E+03  0.18232288422E+03  0.12508590798E+03 0.  0.
          5    1    3    3  502    0  0.26501759186E+02 -0.55733083654E+02  0.40093705715E+02  0.73712261473E+02  0.41800000000E+01 0. -1.
         -5    1    3    3    0  502 -0.77915109960E+02  0.12910354148E+02  0.74440267118E+02  0.10861062274E+03  0.41800000000E+01 0. -1.
        -11    1    1    2    0    0  0.20958046397E+01  0.45145304586E+02  0.14900832393E+02  0.47587033205E+02  0.00000000000E+00 0. -1.
         11    1    1    2    0    0  0.49317546134E+02 -0.23225750805E+01 -0.56787504764E+02  0.75249155536E+02  0.00000000000E+00 0.  1.
</event>
<event>
 7    1  0.2522928E-009  0.1172507E+03  0.7561462E-02  0.1247703E+00
         -1   -1    0    0    0  501 -0.00000000000E+00  0.00000000000E+00  0.57614730949E+02  0.57614730949E+02  0.00000000000E+00 0.  1.
          1   -1    0    0  501    0  0.00000000000E+00 -0.00000000000E+00 -0.32969417544E+03  0.32969417544E+03  0.00000000000E+00 0. -1.
         25    2    1    2    0    0  0.78734709015E+02  0.16876865815E+02 -0.11148341857E+03  0.18590245900E+03  0.12508872309E+03 0.  0.
          5    1    3    3  502    0  0.11207316897E+03  0.21060280229E+02 -0.77569548457E+02  0.13797984582E+03  0.41800000000E+01 0. -1.
         -5    1    3    3    0  502 -0.33338459952E+02 -0.41834144135E+01 -0.33913870110E+02  0.47922613180E+02  0.41800000000E+01 0. -1.
        -11    1    1    2    0    0 -0.74967394561E+02 -0.62164449111E+01 -0.17051170155E+03  0.18636790174E+03  0.00000000000E+00 0. -1.
         11    1    1    2    0    0 -0.37673144546E+01 -0.10660420904E+02  0.99156756244E+01  0.15038545646E+02  0.00000000000E+00 0.  1.
</event>
<event>
 7    1  0.2522928E-009  0.1098002E+03  0.7561462E-02  0.1260940E+00
          1   -1    0    0  501    0  0.00000000000E+00  0.00000000000E+00  0.40795176612E+03  0.40795176612E+03  0.00000000000E+00 0. -1.
         -1   -1    0    0    0  501 -0.00000000000E+00 -0.00000000000E+00 -0.35896523272E+02  0.35896523272E+02  0.00000000000E+00 0.  1.
         25    2    1    2    0    0  0.48876478062E+02  0.19246724218E+02  0.22920430112E+03  0.26634895393E+03  0.12509119516E+03 0.  0.
          5    1    3    3  502    0  0.72557749123E+02  0.54951610128E+02  0.13621621754E+03  0.16387994610E+03  0.41800000000E+01 0. -1.
         -5    1    3    3    0  502 -0.23681271061E+02 -0.35704885910E+02  0.92988083581E+02  0.10246900783E+03  0.41800000000E+01 0. -1.
        -11    1    1    2    0    0 -0.50863652394E+02  0.13505502472E+02  0.13331976262E+03  0.14333062770E+03  0.00000000000E+00 0. -1.
         11    1    1    2    0    0  0.19871743313E+01 -0.32752226690E+02  0.95311791057E+01  0.34168707762E+02  0.00000000000E+00 0.  1.
</event>
<event>
 7    1  0.2522928E-009  0.1020158E+03  0.7561462E-02  0.1276113E+00
          1   -1    0    0  501    0  0.00000000000E+00  0.00000000000E+00  0.13544353039E+03  0.13544353039E+03  0.00000000000E+00 0. -1.
         -1   -1    0    0    0  501 -0.00000000000E+00 -0.00000000000E+00 -0.99262301660E+02  0.99262301660E+02  0.00000000000E+00 0.  1.
         25    2    1    2    0    0 -0.46513481566E+02 -0.11518105397E+02 -0.45532654943E+01  0.13402949747E+03  0.12508798202E+03 0.  0.
          5    1    3    3  502    0  0.30888195859E+02 -0.14707266002E+02  0.33108074838E+02  0.47791226560E+02  0.41800000000E+01 0. -1.
         -5    1    3    3    0  502 -0.77401677425E+02  0.31891606049E+01 -0.37661340332E+02  0.86238270908E+02  0.41800000000E+01 0. -1.
        -11    1    1    2    0    0 -0.19239919122E+02 -0.11387683730E+02  0.11732667091E+02  0.25248946623E+02  0.00000000000E+00 0. -1.
         11    1    1    2    0    0  0.65753400688E+02  0.22905789127E+02  0.29001827137E+02  0.75427387962E+02  0.00000000000E+00 0.  1.
</event>
<event>
 7    1  0.2522928E-009  0.1043841E+03  0.7561462E-02  0.1271338E+00
         -2   -1    0    0    0  501 -0.00000000000E+00  0.00000000000E+00  0.19839620796E+02  0.19839620796E+02  0.00000000000E+00 0.  1.
          2   -1    0    0  501    0  0.00000000000E+00 -0.00000000000E+00 -0.72594446348E+03  0.72594446348E+03  0.00000000000E+00 0. -1.
         25    2    1    2    0    0 -0.45781994427E+02 -0.23036365373E+02 -0.33482383582E+03  0.36108721988E+03  0.12510121575E+03 0.  0.
          5    1    3    3  502    0 -0.51369069477E+02  0.30781940641E+02 -0.26977384033E+03  0.27637240545E+03  0.41800000000E+01 0. -1.
         -5    1    3    3    0  502  0.55870750498E+01 -0.53818306014E+02 -0.65049995490E+02  0.84714814425E+02  0.41800000000E+01 0. -1.
        -11    1    1    2    0    0 -0.57364732559E+01  0.39861102693E+02 -0.22757784637E+03  0.23111358851E+03  0.00000000000E+00 0. -1.
         11    1    1    2    0    0  0.51518467683E+02 -0.16824737320E+02 -0.14370316049E+03  0.15358327589E+03  0.00000000000E+00 0.  1.
</event>
<event>
 7    1  0.2522928E-009  0.1316603E+03  0.7561462E-02  0.1225013E+00
         -3   -1    0    0    0  501 -0.00000000000E+00  0.00000000000E+00  0.11311618708E+03  0.11311618708E+03  0.00000000000E+00 0.  1.
          3   -1    0    0  501    0  0.00000000000E+00 -0.00000000000E+00 -0.17722615059E+03  0.17722615059E+03  0.00000000000E+00 0. -1.
         25    2    1    2    0    0  0.76343511837E+02  0.28649904066E+02  0.33040331139E+01  0.14940674796E+03  0.12514915460E+03 0.  0.
          5    1    3    3  502    0  0.57839379299E+02  0.76564768197E+02 -0.88668973714E+01  0.96455439430E+02  0.41800000000E+01 0. -1.
         -5    1    3    3    0  502  0.18504132539E+02 -0.47914864130E+02  0.12170930485E+02  0.52951308525E+02  0.41800000000E+01 0. -1.
        -11    1    1    2    0    0 -0.93042469309E+02 -0.15152450394E+02 -0.32057607116E+02  0.99570015677E+02  0.00000000000E+00 0.  1.
         11    1    1    2    0    0  0.16698957471E+02 -0.13497453673E+02 -0.35356389506E+02  0.41365574034E+02  0.00000000000E+00 0. -1.
</event>
<event>
 7    1  0.2522928E-009  0.9128631E+02  0.7561462E-02  0.1299766E+00
          1   -1    0    0  501    0  0.00000000000E+00  0.00000000000E+00  0.33005769047E+02  0.33005769047E+02  0.00000000000E+00 0. -1.
         -1   -1    0    0    0  501 -0.00000000000E+00 -0.00000000000E+00 -0.50542059001E+03  0.50542059001E+03  0.00000000000E+00 0.  1.
         25    2    1    2    0    0 -0.25934922428E+02 -0.30311396039E+02 -0.37863020315E+03  0.40075096713E+03  0.12509638679E+03 0.  0.
          5    1    3    3  502    0  0.81371210061E-01  0.22875821300E+02 -0.68221119432E+01  0.24234756710E+02  0.41800000000E+01 0. -1.
         -5    1    3    3    0  502 -0.26016293638E+02 -0.53187217339E+02 -0.37180809120E+03  0.37651621042E+03  0.41800000000E+01 0. -1.
        -11    1    1    2    0    0  0.10239259400E+02  0.62932828129E+02 -0.51126758750E+02  0.81727160416E+02  0.00000000000E+00 0.  1.
         11    1    1    2    0    0  0.15695663027E+02 -0.32621432089E+02 -0.42657859066E+02  0.55948231513E+02  0.00000000000E+00 0. -1.
</event>
<event>
 7    1  0.2522928E-009  0.9727090E+02  0.7561462E-02  0.1286142E+00
          2   -1    0    0  501    0  0.00000000000E+00  0.00000000000E+00  0.29606562193E+03  0.29606562193E+03  0.00000000000E+00 0.  1.
         -2   -1    0    0    0  501 -0.00000000000E+00 -0.00000000000E+00 -0.43095132846E+02  0.43095132846E+02  0.00000000000E+00 0. -1.
         25    2    1    2    0    0 -0.74746231066E+01 -0.15163236196E+02  0.10736159163E+03  0.16571231529E+03  0.12509303081E+03 0.  0.
          5    1    3    3  502    0 -0.46086636822E+01 -0.61012277578E+02  0.16024109808E+02  0.63387556282E+02  0.41800000000E+01 0.  1.
         -5    1    3    3    0  502 -0.28659594244E+01  0.45849041382E+02  0.91337481826E+02  0.10232475901E+03  0.41800000000E+01 0.  1.
        -11    1    1    2    0    0 -0.28836577445E+02  0.35286249224E+02  0.10882944462E+03  0.11798523466E+03  0.00000000000E+00 0.  1.
         11    1    1    2    0    0  0.36311200551E+02 -0.20123013029E+02  0.36779452834E+02  0.55463204826E+02  0.00000000000E+00 0. -1.
</event>
<event>
 7    1  0.2522928E-009  0.1098891E+03  0.7561462E-02  0.1260775E+00
         -1   -1    0    0    0  501 -0.00000000000E+00  0.00000000000E+00  0.40004417306E+02  0.40004417306E+02  0.00000000000E+00 0.  1.
          1   -1    0    0  501    0  0.00000000000E+00 -0.00000000000E+00 -0.62867260080E+03  0.62867260080E+03  0.00000000000E+00 0. -1.
         25    2    1    2    0    0 -0.63581240397E+02  0.38847528597E+02 -0.50282901890E+03  0.52348071025E+03  0.12507328711E+03 0.  0.
          5    1    3    3  502    0 -0.79526490789E+01  0.76907067369E+02 -0.24429676865E+03  0.25627392612E+03  0.41800000000E+01 0. -1.
         -5    1    3    3    0  502 -0.55628591318E+02 -0.38059538772E+02 -0.25853225025E+03  0.26720678413E+03  0.41800000000E+01 0. -1.
        -11    1    1    2    0    0  0.28708054838E+02 -0.13620998166E+02 -0.95872812778E+02  0.10100138729E+03  0.00000000000E+00 0. -1.
         11    1    1    2    0    0  0.34873185559E+02 -0.25226530431E+02  0.10033648181E+02  0.44194920573E+02  0.00000000000E+00 0.  1.
</event>
<event>
 7    1  0.2522928E-009  0.8222969E+02  0.7561462E-02  0.1322840E+00
         -2   -1    0    0    0  501 -0.00000000000E+00  0.00000000000E+00  0.15491786282E+03  0.15491786282E+03  0.00000000000E+00 0.  1.
          2   -1    0    0  501    0  0.00000000000E+00 -0.00000000000E+00 -0.11064043928E+03  0.11064043928E+03  0.00000000000E+00 0. -1.
         25    2    1    2    0    0 -0.21624698610E+02  0.29565667405E+02 -0.40813523432E+02  0.13658497003E+03  0.12509178256E+03 0.  0.
          5    1    3    3  502    0 -0.61208319955E+02  0.45619904409E+02  0.12868557458E+01  0.76464125626E+02  0.41800000000E+01 0. -1.
         -5    1    3    3    0  502  0.39583621346E+02 -0.16054237004E+02 -0.42100379177E+02  0.60120844401E+02  0.41800000000E+01 0. -1.
        -11    1    1    2    0    0  0.21727845297E+02 -0.74482302167E+01 -0.14362747827E+02  0.27089922845E+02  0.00000000000E+00 0. -1.
         11    1    1    2    0    0 -0.10314668741E+00 -0.22117437188E+02  0.99453694800E+02  0.10188340923E+03  0.00000000000E+00 0.  1.
</event>
<event>
 7    1  0.2522928E-009  0.2165101E+03  0.7561462E-02  0.1136512E+00
          2   -1    0    0  501    0  0.00000000000E+00  0.00000000000E+00  0.11652271449E+04  0.11652271449E+04  0.00000000000E+00 0. -1.
         -2   -1    0    0    0  501 -0.00000000000E+00 -0.00000000000E+00 -0.48698897145E+02  0.48698897145E+02  0.00000000000E+00 0.  1.
         25    2    1    2    0    0  0.20094153994E+03 -0.52809217897E+02  0.68130933786E+03  0.72318475698E+03  0.12508981931E+03 0.  0.
          5    1    3    3  502    0  0.11013940637E+02  0.18837776560E+02  0.19403121439E+03  0.19529913792E+03  0.41800000000E+01 0. -1.
         -5    1    3    3    0  502  0.18992759931E+03 -0.71646994457E+02  0.48727812347E+03  0.52788561906E+03  0.41800000000E+01 0. -1.
        -11    1    1    2    0    0 -0.49955691037E+02  0.12731693304E+02  0.38403526769E+02  0.64284507851E+02  0.00000000000E+00 0.  1.
         11    1    1    2    0    0 -0.15098584891E+03  0.40077524593E+02  0.39681538308E+03  0.42645677717E+03  0.00000000000E+00 0. -1.
</event>
<event>
 7    1  0.2522928E-009  0.1040127E+03  0.7561462E-02  0.1272077E+00
         -1   -1    0    0    0  501 -0.00000000000E+00  0.00000000000E+00  0.38862143377E+02  0.38862143377E+02  0.00000000000E+00 0.  1.
          1   -1    0    0  501    0  0.00000000000E+00 -0.00000000000E+00 -0.50650953123E+03  0.50650953123E+03  0.00000000000E+00 0. -1.
         25    2    1    2    0    0  0.83514523872E+02 -0.11281605067E+02 -0.19944838652E+03  0.25005397432E+03  0.12508149694E+03 0.  0.
          5    1    3    3  502    0  0.60287468619E+02  0.28042892658E+02 -0.27465744909E+02  0.72061239544E+02  0.41800000000E+01 0. -1.
         -5    1    3    3    0  502  0.23227055253E+02 -0.39324497725E+02 -0.17198264161E+03  0.17799273478E+03  0.41800000000E+01 0. -1.
        -11    1    1    2    0    0 -0.50419695696E+02 -0.15736150709E+02 -0.49175927513E+02  0.72166779061E+02  0.00000000000E+00 0.  1.
         11    1    1    2    0    0 -0.33094828176E+02  0.27017755776E+02 -0.21902307381E+03  0.22315092122E+03  0.00000000000E+00 0. -1.
</event>
<event>
 7    1  0.2522928E-009  0.1075826E+03  0.7561462E-02  0.1265113E+00
         -1   -1    0    0    0  501 -0.00000000000E+00  0.00000000000E+00  0.46754438802E+02  0.46754438802E+02  0.00000000000E+00 0.  1.
          1   -1    0    0  501    0  0.00000000000E+00 -0.00000000000E+00 -0.34119086962E+03  0.34119086962E+03  0.00000000000E+00 0. -1.
         25    2    1    2    0    0  0.89237244114E+01  0.50076611482E+02 -0.22554569651E+03  0.26287945017E+03  0.12508974470E+03 0.  0.
          5    1    3    3  502    0 -0.46334932865E+02 -0.14618323517E+02 -0.66584984787E+02  0.82532744926E+02  0.41800000000E+01 0. -1.
         -5    1    3    3    0  502  0.55258657276E+02  0.64694934999E+02 -0.15896071173E+03  0.18034670524E+03  0.41800000000E+01 0. -1.
        -11    1    1    2    0    0  0.11310284344E+02  0.11661584661E+02 -0.56675866268E+02  0.58958196258E+02  0.00000000000E+00 0. -1.
         11    1    1    2    0    0 -0.20234008755E+02 -0.61738196143E+02 -0.12214868033E+02  0.66107661994E+02  0.00000000000E+00 0.  1.
</event>
<event>
 7    1  0.2522928E-009  0.1740453E+03  0.7561462E-02  0.1173694E+00
          1   -1    0    0  501    0  0.00000000000E+00  0.00000000000E+00  0.41754963721E+02  0.41754963721E+02  0.00000000000E+00 0. -1.
         -1   -1    0    0    0  501 -0.00000000000E+00 -0.00000000000E+00 -0.96619700954E+03  0.96619700954E+03  0.00000000000E+00 0.  1.
         25    2    1    2    0    0  0.47933990892E+02  0.13521445926E+03 -0.26319298172E+03  0.32480486769E+03  0.12508812483E+03 0.  0.
          5    1    3    3  502    0  0.67500092890E+02  0.28295869669E+02 -0.15460915561E+03  0.17110926971E+03  0.41800000000E+01 0. -1.
         -5    1    3    3    0  502 -0.19566101998E+02  0.10691858959E+03 -0.10858382611E+03  0.15369559799E+03  0.41800000000E+01 0. -1.
        -11    1    1    2    0    0 -0.26602391763E+02 -0.14133244055E+03 -0.61828387127E+03  0.63478932842E+03  0.00000000000E+00 0.  1.
         11    1    1    2    0    0 -0.21331599129E+02  0.61179812842E+01 -0.42965192824E+02  0.48357777149E+02  0.00000000000E+00 0. -1.
</event>
<event>
 7    1  0.2522928E-009  0.1633920E+03  0.7561462E-02  0.1184920E+00
         -2   -1    0    0    0  501 -0.00000000000E+00  0.00000000000E+00  0.34483563175E+02  0.34483563175E+02  0.00000000000E+00 0.  1.
          2   -1    0    0  501    0  0.00000000000E+00 -0.00000000000E+00 -0.10197293105E+04  0.10197293105E+04  0.00000000000E+00 0. -1.
         25    2    1    2    0    0  0.11277219230E+03  0.82140573300E+02 -0.78795398112E+03  0.80992833347E+03  0.12509111819E+03 0.  0.
          5    1    3    3  502    0  0.10849656624E+02  0.84434372871E+02 -0.34436261598E+03  0.35475338202E+03  0.41800000000E+01 0.  1.
         -5    1    3    3    0  502  0.10192253568E+03 -0.22937995705E+01 -0.44359136515E+03  0.45517495145E+03  0.41800000000E+01 0.  1.
        -11    1    1    2    0    0 -0.98666081466E+02 -0.72246111730E+02 -0.14752672384E+03  0.19162105975E+03  0.00000000000E+00 0.  1.
         11    1    1    2    0    0 -0.14106110838E+02 -0.98944615701E+01 -0.49765042410E+02  0.52663480505E+02  0.00000000000E+00 0. -1.
</event>
<event>
 7    1  0.2522928E-009  0.6923253E+02  0.7561462E-02  0.1362722E+00
          2   -1    0    0  501    0  0.00000000000E+00  0.00000000000E+00  0.31919028317E+03  0.31919028317E+03  0.00000000000E+00 0. -1.
         -2   -1    0    0    0  501 -0.00000000000E+00 -0.00000000000E+00 -0.45237387376E+02  0.45237387376E+02  0.00000000000E+00 0.  1.
         25    2    1    2    0    0 -0.43641457125E+02 -0.28082921915E+01  0.10873142417E+03  0.17141192912E+03  0.12508822309E+03 0.  0.
          5    1    3    3  502    0 -0.18691987403E+02 -0.32825949046E+02 -0.15561059803E+02  0.41067655230E+02  0.41800000000E+01 0.  1.
         -5    1    3    3    0  502 -0.24949469723E+02  0.30017656855E+02  0.12429248397E+03  0.13034427389E+03  0.41800000000E+01 0.  1.
        -11    1    1    2    0    0  0.20208712662E+02  0.22753582339E+02  0.62166165087E+01  0.31060648698E+02  0.00000000000E+00 0.  1.
         11    1    1    2    0    0  0.23432744464E+02 -0.19945290148E+02  0.15900485511E+03  0.16195509273E+03  0.00000000000E+00 0. -1.
</event>
<event>
 7    1  0.2522928E-009  0.1262748E+03  0.7561462E-02  0.1233090E+00
          1   -1    0    0  501    0  0.00000000000E+00  0.00000000000E+00  0.75009158007E+03  0.75009158007E+03  0.00000000000E+00 0. -1.
         -1   -1    0    0    0  501 -0.00000000000E+00 -0.00000000000E+00 -0.36121515528E+02  0.36121515528E+02  0.00000000000E+00 0.  1.
         25    2    1    2    0    0 -0.89217442461E+02  0.64806284470E+02  0.51977541370E+03  0.54587923480E+03  0.12513213716E+03 0.  0.
          5    1    3    3  502    0 -0.25654582228E+02  0.73346629321E+02  0.42033403953E+03  0.42747638860E+03  0.41800000000E+01 0.  1.
         -5    1    3    3    0  502 -0.63562860232E+02 -0.85403448514E+01  0.99441374172E+02  0.11840284620E+03  0.41800000000E+01 0.  1.
        -11    1    1    2    0    0  0.40859116353E+02 -0.33706125732E+02  0.16981322207E+03  0.17788226637E+03  0.00000000000E+00 0. -1.
         11    1    1    2    0    0  0.48358326108E+02 -0.31100158738E+02  0.24381428775E+02  0.62451594428E+02  0.00000000000E+00 0.  1.
</event>
<event>
 7    1  0.2522928E-009  0.2723220E+03  0.7561462E-02  0.1099958E+00
          1   -1    0    0  501    0  0.00000000000E+00  0.00000000000E+00  0.16126624087E+04  0.16126624087E+04  0.00000000000E+00 0. -1.
         -1   -1    0    0    0  501 -0.00000000000E+00 -0.00000000000E+00 -0.60849086954E+02  0.60849086954E+02  0.00000000000E+00 0.  1.
         25    2    1    2    0    0  0.52541486960E+02 -0.25732989339E+03  0.43902049891E+03  0.52665477198E+03  0.12508784316E+03 0.  0.
          5    1    3    3  502    0  0.44162505801E+02 -0.90603170461E+02  0.27358909935E+03  0.29159514588E+03  0.41800000000E+01 0.  1.
         -5    1    3    3    0  502  0.83789811588E+01 -0.16672672293E+03  0.16543139955E+03  0.23505962610E+03  0.41800000000E+01 0.  1.
        -11    1    1    2    0    0  0.24302111432E+02  0.77317429012E+02  0.29084195324E+03  0.30192320085E+03  0.00000000000E+00 0.  1.
         11    1    1    2    0    0 -0.76843598392E+02  0.18001246438E+03  0.82195086965E+03  0.84493352286E+03  0.00000000000E+00 0. -1.
</event>
<event>
 7    1  0.2522928E-009  0.2508481E+03  0.7561462E-02  0.1112770E+00
          2   -1    0    0  501    0  0.00000000000E+00  0.00000000000E+00  0.16175127133E+04  0.16175127133E+04  0.00000000000E+00 0. -1.
         -2   -1    0    0    0  501 -0.00000000000E+00 -0.00000000000E+00 -0.48633133146E+02  0.48633133146E+02  0.00000000000E+00 0.  1.
         25    2    1    2    0    0 -0.24632856735E+03  0.81785079988E+01  0.56457198937E+03  0.62859564297E+03  0.12508517133E+03 0.  0.
          5    1    3    3  502    0 -0.18977700278E+03 -0.95049946907E+01  0.52197708776E+03  0.55550266269E+03  0.41800000000E+01 0.  1.
         -5    1    3    3    0  502 -0.56551564568E+02  0.17683502690E+02  0.42594901613E+02  0.73092980278E+02  0.41800000000E+01 0.  1.
        -11    1    1    2    0    0  0.10101377359E+03  0.23034954996E+02  0.29022730160E+03  0.30816599131E+03  0.00000000000E+00 0. -1.
         11    1    1    2    0    0  0.14531479376E+03 -0.31213462995E+02  0.71408028914E+03  0.72938421212E+03  0.00000000000E+00 0.  1.
</event>
<event>
 7    1  0.2522928E-009  0.1862593E+03  0.7561462E-02  0.1161879E+00
          1   -1    0    0  501    0  0.00000000000E+00  0.00000000000E+00  0.70494977577E+03  0.70494977577E+03  0.00000000000E+00 0. -1.
         -1   -1    0    0    0  501 -0.00000000000E+00 -0.00000000000E+00 -0.53815342942E+02  0.53815342942E+02  0.00000000000E+00 0.  1.
         25    2    1    2    0    0 -0.15351997437E+03 -0.16310752851E+02  0.25128916001E+03  0.32035588836E+03  0.12508888871E+03 0.  0.
          5    1    3    3  502    0 -0.12156730691E+03  0.44515109455E+02  0.15508659187E+03  0.20206317937E+03  0.41800000000E+01 0.  1.
         -5    1    3    3    0  502 -0.31952667459E+02 -0.60825862306E+02  0.96202568139E+02  0.11829270899E+03  0.41800000000E+01 0.  1.
        -11    1    1    2    0    0  0.95588274707E+02 -0.29785903941E+02  0.28191885684E+03  0.29916978486E+03  0.00000000000E+00 0. -1.
         11    1    1    2    0    0  0.57931699666E+02  0.46096656792E+02  0.11792641598E+03  0.13923944549E+03  0.00000000000E+00 0.  1.
</event>
<event>
 7    1  0.2522928E-009  0.9873943E+02  0.7561462E-02  0.1282969E+00
         -2   -1    0    0    0  501 -0.00000000000E+00  0.00000000000E+00  0.66185287659E+02  0.66185287659E+02  0.00000000000E+00 0.  1.
          2   -1    0    0  501    0  0.00000000000E+00 -0.00000000000E+00 -0.27507146486E+03  0.27507146486E+03  0.00000000000E+00 0. -1.
         25    2    1    2    0    0 -0.20749871871E+02  0.74542757468E+02 -0.13583497397E+03  0.20022478479E+03  0.12510653226E+03 0.  0.
          5    1    3    3  502    0 -0.50319155178E+02  0.74396197562E+02 -0.37437522104E+02  0.97395338958E+02  0.41800000000E+01 0.  1.
         -5    1    3    3    0  502  0.29569283307E+02  0.14655990562E+00 -0.98397451871E+02  0.10282944583E+03  0.41800000000E+01 0.  1.
        -11    1    1    2    0    0  0.13812257141E+02 -0.60277966133E+02  0.43776861144E+01  0.61994965797E+02  0.00000000000E+00 0.  1.
         11    1    1    2    0    0  0.69376147294E+01 -0.14264791334E+02 -0.77428889337E+02  0.79037001929E+02  0.00000000000E+00 0. -1.
</event>
<event>
 7    1  0.2522928E-009  0.1193680E+03  0.7561462E-02  0.1244143E+00
          2   -1    0    0  501    0  0.00000000000E+00  0.00000000000E+00  0.14014352956E+03  0.14014352956E+03  0.00000000000E+00 0. -1.
         -2   -1    0    0    0  501 -0.00000000000E+00 -0.00000000000E+00 -0.16105045409E+03  0.16105045409E+03  0.00000000000E+00 0.  1.
         25    2    1    2    0    0 -0.48927272087E+02 -0.73538697813E+02  0.44197968479E+02  0.15938651052E+03  0.12509508898E+03 0.  0.
          5    1    3    3  502    0  0.56044199286E+01 -0.72907477866E+02  0.67809474465E+02  0.99812359348E+02  0.41800000000E+01 0.  1.
         -5    1    3    3    0  502 -0.54531692015E+02 -0.63121994691E+00 -0.23611505986E+02  0.59574151170E+02  0.41800000000E+01 0.  1.
        -11    1    1    2    0    0  0.27200227995E+02 -0.64142096748E+01 -0.50443889068E+02  0.57667845746E+02  0.00000000000E+00 0.  1.
         11    1    1    2    0    0  0.21727044092E+02  0.79952907487E+02 -0.14661003937E+02  0.84139627389E+02  0.00000000000E+00 0. -1.
</event>
<event>
 7    1  0.2522928E-009  0.1295476E+03  0.7561462E-02  0.1228129E+00
          1   -1    0    0  501    0  0.00000000000E+00  0.00000000000E+00  0.36839944194E+03  0.36839944194E+03  0.00000000000E+00 0. -1.
         -1   -1    0    0    0  501 -0.00000000000E+00 -0.00000000000E+00 -0.69423383051E+02  0.69423383051E+02  0.00000000000E+00 0.  1.
         25    2    1    2    0    0 -0.76070766933E+02  0.24373705925E+02  0.27863838663E+03  0.31570116419E+03  0.12508811071E+03 0.  0.
          5    1    3    3  502    0  0.28827903939E+02 -0.15716598924E+02  0.39935591032E+02  0.51868905505E+02  0.41800000000E+01 0.  1.
         -5    1    3    3    0  502 -0.10489867087E+03  0.40090304849E+02  0.23870279560E+03  0.26383225868E+03  0.41800000000E+01 0.  1.
        -11    1    1    2    0    0  0.87739190730E+02 -0.12830501550E+01 -0.22498698682E+01  0.87777410090E+02  0.00000000000E+00 0. -1.
         11    1    1    2    0    0 -0.11668423797E+02 -0.23090655770E+02  0.22587542122E+02  0.34344250711E+02  0.00000000000E+00 0.  1.
</event>
<event>
 7    1  0.2522928E-009  0.1108137E+03  0.7561462E-02  0.1259070E+00
         -2   -1    0    0    0  501 -0.00000000000E+00  0.00000000000E+00  0.16932258720E+03  0.16932258720E+03  0.00000000000E+00 0. -1.
          2   -1    0    0  501    0  0.00000000000E+00 -0.00000000000E+00 -0.99728898668E+02  0.99728898668E+02  0.00000000000E+00 0.  1.
         25    2    1    2    0    0 -0.37417511642E+02  0.18915922892E+02 -0.21353280295E+02  0.13364691672E+03  0.12509058100E+03 0.  0.
          5    1    3    3  502    0  0.22849781416E+02 -0.40350375136E+02 -0.14388324023E+02  0.48731525243E+02  0.41800000000E+01 0. -1.
         -5    1    3    3    0  502 -0.60267293058E+02  0.59266298028E+02 -0.69649562721E+01  0.84915391481E+02  0.41800000000E+01 0. -1.
        -11    1    1    2    0    0 -0.19231105511E+02  0.15021765709E+02  0.18080285078E+01  0.24469528628E+02  0.00000000000E+00 0.  1.
         11    1    1    2    0    0  0.56648617153E+02 -0.33937688602E+02  0.89138940321E+02  0.11093504052E+03  0.00000000000E+00 0. -1.
</event>
<event>
 7    1  0.2522928E-009  0.1160165E+03  0.7561462E-02  0.1249817E+00
          1   -1    0    0  501    0  0.00000000000E+00  0.00000000000E+00  0.55797588034E+03  0.55797588034E+03  0.00000000000E+00 0. -1.
         -1   -1    0    0    0  501 -0.00000000000E+00 -0.00000000000E+00 -0.32113160099E+02  0.32113160099E+02  0.00000000000E+00 0.  1.
         25    2    1    2    0    0  0.62283960002E+02  0.39698575763E+02  0.34931491559E+03  0.37831644092E+03  0.12508857112E+03 0.  0.
          5    1    3    3  502    0 -0.33064210653E+02 -0.70798700406E+01  0.13306871840E+03  0.13736128567E+03  0.41800000000E+01 0.  1.
         -5    1    3    3    0  502  0.95348170655E+02  0.46778445803E+02  0.21624619719E+03  0.24095515525E+03  0.41800000000E+01 0.  1.
        -11    1    1    2    0    0  0.99957536499E+01 -0.77538244706E+01 -0.51309009517E+01  0.13651484517E+02  0.00000000000E+00 0.  1.
         11    1    1    2    0    0 -0.72279713652E+02 -0.31944751292E+02  0.18167870560E+03  0.19812111500E+03  0.00000000000E+00 0. -1.
</event>
<event>
 7    1  0.2522928E-009  0.1424823E+03  0.7561462E-02  0.1210027E+00
          2   -1    0    0  501    0  0.00000000000E+00  0.00000000000E+00  0.12240885724E+03  0.12240885724E+03  0.00000000000E+00 0. -1.
         -2   -1    0    0    0  501 -0.00000000000E+00 -0.00000000000E+00 -0.18258347673E+03  0.18258347673E+03  0.00000000000E+00 0.  1.
         25    2    1    2    0    0 -0.66626923272E+02 -0.70240097937E+02 -0.57480828463E+02  0.16829837871E+03  0.12508988917E+03 0.  0.
          5    1    3    3  502    0 -0.22169200781E+02 -0.98322148005E+02 -0.18143527310E+02  0.10249574740E+03  0.41800000000E+01 0. -1.
         -5    1    3    3    0  502 -0.44457722490E+02  0.28082050068E+02 -0.39337301153E+02  0.65802631308E+02  0.41800000000E+01 0. -1.
        -11    1    1    2    0    0  0.20760900382E+02 -0.20805220056E+02 -0.16677388276E+02  0.33793600666E+02  0.00000000000E+00 0.  1.
         11    1    1    2    0    0  0.45866022890E+02  0.91045317994E+02  0.13983597241E+02  0.10290035460E+03  0.00000000000E+00 0. -1.
</event>
<event>
 7    1  0.2522928E-009  0.1420305E+03  0.7561462E-02  0.1210623E+00
         -2   -1    0    0    0  501 -0.00000000000E+00  0.00000000000E+00  0.63460237414E+02  0.63460237414E+02  0.00000000000E+00 0.  1.
          2   -1    0    0  501    0  0.00000000000E+00 -0.00000000000E+00 -0.66395937049E+03  0.66395937049E+03  0.00000000000E+00 0. -1.
         25    2    1    2    0    0  0.12355562991E+03  0.41640157720E+02 -0.51891272718E+03  0.54946973415E+03  0.12508666558E+03 0.  0.
          5    1    3    3  502    0  0.59885444488E+00 -0.16892800279E+02 -0.54595733657E+01  0.18248415527E+02  0.41800000000E+01 0. -1.
         -5    1    3    3    0  502  0.12295677546E+03  0.58532957999E+02 -0.51345315381E+03  0.53122131863E+03  0.41800000000E+01 0. -1.
        -11    1    1    2    0    0 -0.10375126227E+03 -0.34020024512E+02 -0.10133318165E+03  0.14896341898E+03  0.00000000000E+00 0. -1.
         11    1    1    2    0    0 -0.19804367637E+02 -0.76201332079E+01  0.19746775751E+02  0.28986454770E+02  0.00000000000E+00 0.  1.
</event>
<event>
 7    1  0.2522928E-009  0.2499171E+03  0.7561462E-02  0.1113357E+00
          1   -1    0    0  501    0  0.00000000000E+00  0.00000000000E+00  0.61841322628E+03  0.61841322628E+03  0.00000000000E+00 0.  1.
         -1   -1    0    0    0  501 -0.00000000000E+00 -0.00000000000E+00 -0.16012735718E+03  0.16012735718E+03  0.00000000000E+00 0. -1.
         25    2    1    2    0    0 -0.19950197235E+03  0.11079231262E+03  0.26647459912E+01  0.26025351102E+03  0.12509522620E+03 0.  0.
          5    1    3    3  502    0 -0.17657611561E+03  0.36468870184E+02 -0.12938763655E+02  0.18081478673E+03  0.41800000000E+01 0.  1.
         -5    1    3    3    0  502 -0.22925856739E+02  0.74323442434E+02  0.15603509646E+02  0.79438724283E+02  0.41800000000E+01 0.  1.
        -11    1    1    2    0    0  0.16929789424E+03 -0.54754157618E+02  0.28285593370E+03  0.33416653633E+03  0.00000000000E+00 0. -1.
         11    1    1    2    0    0  0.30204078111E+02 -0.56038155000E+02  0.17276518940E+03  0.18412053611E+03  0.00000000000E+00 0.  1.
</event>
<event>
 7    1  0.2522928E-009  0.1398499E+03  0.7561462E-02  0.1213531E+00
          1   -1    0    0  501    0  0.00000000000E+00  0.00000000000E+00  0.10878760284E+04  0.10878760284E+04  0.00000000000E+00 0. -1.
         -1   -1    0    0    0  501 -0.00000000000E+00 -0.00000000000E+00 -0.22561527300E+02  0.22561527300E+02  0.00000000000E+00 0.  1.
         25    2    1    2    0    0 -0.49203383307E+02  0.84905370587E+02  0.73908052063E+03  0.75598764792E+03  0.12508961965E+03 0.  0.
          5    1    3    3  502    0 -0.43252539608E+02 -0.19612476124E+02  0.14213089801E+03  0.14991362837E+03  0.41800000000E+01 0. -1.
         -5    1    3    3    0  502 -0.59508436997E+01  0.10451784671E+03  0.59694962262E+03  0.60607401954E+03  0.41800000000E+01 0. -1.
        -11    1    1    2    0    0  0.67012742420E+02 -0.37898974533E+02  0.12312373051E+03  0.14521188977E+03  0.00000000000E+00 0.  1.
         11    1    1    2    0    0 -0.17809359113E+02 -0.47006396054E+02  0.20311025001E+03  0.20923801806E+03  0.00000000000E+00 0. -1.
</event>
<event>
 7    1  0.2522928E-009  0.4654607E+02  0.7561462E-02  0.1464914E+00
         -2   -1    0    0    0  501 -0.00000000000E+00  0.00000000000E+00  0.76297569932E+02  0.76297569932E+02  0.00000000000E+00 0.  1.
          2   -1    0    0  501    0  0.00000000000E+00 -0.00000000000E+00 -0.23507858209E+03  0.23507858209E+03  0.00000000000E+00 0. -1.
         25    2    1    2    0    0  0.15665264210E+02  0.51256740817E+01 -0.16672498042E+03  0.20908084558E+03  0.12508360346E+03 0.  0.
          5    1    3    3  502    0  0.18501294317E+02  0.58481061682E+01 -0.18706268606E+03  0.18811278307E+03  0.41800000000E+01 0. -1.
         -5    1    3    3    0  502 -0.28360301069E+01 -0.72243208649E+00  0.20337705640E+02  0.20968062514E+02  0.41800000000E+01 0. -1.
        -11    1    1    2    0    0  0.19809352573E+02 -0.21356653679E+02 -0.34161951174E+02  0.44894944189E+02  0.00000000000E+00 0. -1.
         11    1    1    2    0    0 -0.35474616783E+02  0.16230979597E+02  0.42105919438E+02  0.57400362249E+02  0.00000000000E+00 0.  1.
</event>
<event>
 7    1  0.2522928E-009  0.1002991E+03  0.7561462E-02  0.1279668E+00
          1   -1    0    0  501    0  0.00000000000E+00  0.00000000000E+00  0.20560411466E+03  0.20560411466E+03  0.00000000000E+00 0. -1.
         -1   -1    0    0    0  501 -0.00000000000E+00 -0.00000000000E+00 -0.73353345094E+02  0.73353345094E+02  0.00000000000E+00 0.  1.
         25    2    1    2    0    0 -0.45297025863E+02  0.80823075483E+01  0.36123115546E+02  0.13809724800E+03  0.12509526842E+03 0.  0.
          5    1    3    3  502    0  0.42932353093E+02  0.37068415722E+01  0.21920564068E+02  0.48527426736E+02  0.41800000000E+01 0.  1.
         -5    1    3    3    0  502 -0.88229378955E+02  0.43754659761E+01  0.14202551478E+02  0.89569821267E+02  0.41800000000E+01 0.  1.
        -11    1    1    2    0    0  0.15741303055E+02 -0.28767110525E+02 -0.52911799048E+01  0.33216439523E+02  0.00000000000E+00 0.  1.
         11    1    1    2    0    0  0.29555722807E+02  0.20684802976E+02  0.10141883393E+03  0.10764377223E+03  0.00000000000E+00 0. -1.
</event>
<event>
 7    1  0.2522928E-009  0.2760846E+03  0.7561462E-02  0.1097847E+00
         -2   -1    0    0    0  501 -0.00000000000E+00  0.00000000000E+00  0.51157191976E+02  0.51157191976E+02  0.00000000000E+00 0.  1.
          2   -1    0    0  501    0  0.00000000000E+00 -0.00000000000E+00 -0.17557549648E+04  0.17557549648E+04  0.00000000000E+00 0. -1.
         25    2    1    2    0    0 -0.50322842923E+02 -0.26647888169E+03 -0.66964142519E+03  0.73321949359E+03  0.12509118493E+03 0.  0.
          5    1    3    3  502    0 -0.20901934732E+02 -0.11187162601E+03 -0.13889490324E+03  0.17961463784E+03  0.41800000000E+01 0. -1.
         -5    1    3    3    0  502 -0.29420908191E+02 -0.15460725568E+03 -0.53074652196E+03  0.55360485576E+03  0.41800000000E+01 0. -1.
        -11    1    1    2    0    0  0.69444628626E+02  0.21465106190E+03 -0.74070864684E+03  0.77430416138E+03  0.00000000000E+00 0.  1.
         11    1    1    2    0    0 -0.19121785704E+02  0.51827819782E+02 -0.29424770075E+03  0.29938850176E+03  0.00000000000E+00 0. -1.
</event>
<event>
 7    1  0.2522928E-009  0.1657566E+03  0.7561462E-02  0.1182347E+00
         -1   -1    0    0    0  501 -0.00000000000E+00  0.00000000000E+00  0.80719748203E+02  0.80719748203E+02  0.00000000000E+00 0.  1.
          1   -1    0    0  501    0  0.00000000000E+00 -0.00000000000E+00 -0.39860436307E+03  0.39860436307E+03  0.00000000000E+00 0. -1.
         25    2    1    2    0    0  0.12852440250E+03  0.61740862343E+02 -0.16561814163E+03  0.25180705598E+03  0.12508784306E+03 0.  0.
          5    1    3    3  502    0  0.13334386549E+03  0.89332784978E+02 -0.14858229445E+03  0.21875809370E+03  0.41800000000E+01 0.  1.
         -5    1    3    3    0  502 -0.48194629911E+01 -0.27591922635E+02 -0.17035847178E+02  0.33048962272E+02  0.41800000000E+01 0.  1.
        -11    1    1    2    0    0 -0.56308293598E+02 -0.29169323249E+02 -0.93343618033E+01  0.64098390440E+02  0.00000000000E+00 0.  1.
         11    1    1    2    0    0 -0.72216108906E+02 -0.32571539094E+02 -0.14293211144E+03  0.16341866486E+03  0.00000000000E+00 0. -1.
</event>
<event>
 7    1  0.2522928E-009  0.1231973E+03  0.7561462E-02  0.1237914E+00
         -2   -1    0    0    0  501 -0.00000000000E+00  0.00000000000E+00  0.11655594570E+03  0.11655594570E+03  0.00000000000E+00 0. -1.
          2   -1    0    0  501    0  0.00000000000E+00 -0.00000000000E+00 -0.18432878312E+03  0.18432878312E+03  0.00000000000E+00 0.  1.
         25    2    1    2    0    0  0.27549021300E+02  0.93318612077E+02 -0.37526197999E+02  0.16285981177E+03  0.12509113006E+03 0.  0.
          5    1    3    3  502    0  0.58585744269E+02  0.99312411316E+02 -0.23799989415E+01  0.11540529133E+03  0.41800000000E+01 0. -1.
         -5    1    3    3    0  502 -0.31036722969E+02 -0.59937992398E+01 -0.35146199058E+02  0.47454520440E+02  0.41800000000E+01 0. -1.
        -11    1    1    2    0    0 -0.26936217062E+02 -0.59599444242E+02  0.27661016324E+02  0.71012571899E+02  0.00000000000E+00 0.  1.
         11    1    1    2    0    0 -0.61280423786E+00 -0.33719167835E+02 -0.57907655743E+02  0.67012345148E+02  0.00000000000E+00 0. -1.
</event>
<event>
 7    1  0.2522928E-009  0.1306460E+03  0.7561462E-02  0.1226500E+00
          1   -1    0    0  501    0  0.00000000000E+00  0.00000000000E+00  0.45853003183E+03  0.45853003183E+03  0.00000000000E+00 0. -1.
         -1   -1    0    0    0  501 -0.00000000000E+00 -0.00000000000E+00 -0.43738736581E+02  0.43738736581E+02  0.00000000000E+00 0.  1.
         25    2    1    2    0    0  0.74785224669E+02 -0.30323353283E+02  0.15243702245E+03  0.21306582378E+03  0.12509062261E+03 0.  0.
          5    1    3    3  502    0 -0.84794746356E+01 -0.56644473126E+02  0.85325050189E+02  0.10285103021E+03  0.41800000000E+01 0.  1.
         -5    1    3    3    0  502  0.83264699305E+02  0.26321119843E+02  0.67111972263E+02  0.11021479357E+03  0.41800000000E+01 0.  1.
        -11    1    1    2    0    0 -0.50120503977E+02 -0.24894218112E+02  0.16851673090E+03  0.17756597536E+03  0.00000000000E+00 0. -1.
         11    1    1    2    0    0 -0.24664720692E+02  0.55217571395E+02  0.93837541898E+02  0.11163696927E+03  0.00000000000E+00 0.  1.
</event>
<event>
 7    1  0.2522928E-009  0.1223503E+03  0.7561462E-02  0.1239269E+00
          1   -1    0    0  501    0  0.00000000000E+00  0.00000000000E+00  0.13166594137E+04  0.13166594137E+04  0.00000000000E+00 0. -1.
         -1   -1    0    0    0  501 -0.00000000000E+00 -0.00000000000E+00 -0.20030521701E+02  0.20030521701E+02  0.00000000000E+00 0.  1.
         25    2    1    2    0    0  0.71924269312E+02  0.16371270639E+01  0.10762083277E+04  0.10858403015E+04  0.12509602304E+03 0.  0.
          5    1    3    3  502    0 -0.32626101859E+02  0.38398941303E+01  0.14313706753E+03  0.14691800370E+03  0.41800000000E+01 0.  1.
         -5    1    3    3    0  502  0.10455037117E+03 -0.22027670664E+01  0.93307126015E+03  0.93892229775E+03  0.41800000000E+01 0.  1.
        -11    1    1    2    0    0  0.17494181198E+02 -0.15245930924E-01  0.59481928728E+01  0.18477759785E+02  0.00000000000E+00 0.  1.
         11    1    1    2    0    0 -0.89418450510E+02 -0.16218811330E+01  0.21447237142E+03  0.23237187415E+03  0.00000000000E+00 0. -1.
</event>
<event>
 7    1  0.2522928E-009  0.1558146E+03  0.7561462E-02  0.1193505E+00
          2   -1    0    0  501    0  0.00000000000E+00  0.00000000000E+00  0.69198803376E+03  0.69198803376E+03  0.00000000000E+00 0. -1.
         -2   -1    0    0    0  501 -0.00000000000E+00 -0.00000000000E+00 -0.42962543160E+02  0.42962543160E+02  0.00000000000E+00 0.  1.
         25    2    1    2    0    0 -0.30930423428E+02  0.12774070725E+03  0.36190964599E+03  0.40484665548E+03  0.12509133948E+03 0.  0.
          5    1    3    3  502    0  0.88789817555E+01 -0.83497803048E+01 -0.30899216427E+01  0.13250477875E+02  0.41800000000E+01 0. -1.
         -5    1    3    3    0  502 -0.39809405184E+02  0.13609048756E+03  0.36499956764E+03  0.39159617761E+03  0.41800000000E+01 0. -1.
        -11    1    1    2    0    0  0.59470499381E+02 -0.10383473422E+03  0.17524444820E+03  0.21220039809E+03  0.00000000000E+00 0. -1.
         11    1    1    2    0    0 -0.28540075953E+02 -0.23905973037E+02  0.11187139641E+03  0.11790352335E+03  0.00000000000E+00 0.  1.
</event>
<event>
 7    1  0.2522928E-009  0.1250436E+03  0.7561462E-02  0.1235001E+00
         -3   -1    0    0    0  501 -0.00000000000E+00  0.00000000000E+00  0.23026007382E+02  0.23026007382E+02  0.00000000000E+00 0.  1.
          3   -1    0    0  501    0  0.00000000000E+00 -0.00000000000E+00 -0.10238882790E+04  0.10238882790E+04  0.00000000000E+00 0. -1.
         25    2    1    2    0    0  0.10297147204E+03 -0.23587754207E+01 -0.42435287015E+03  0.45423743177E+03  0.12509035993E+03 0.  0.
          5    1    3    3  502    0  0.26612481285E+02 -0.26858995406E+02 -0.32153229221E+03  0.32377479384E+03  0.41800000000E+01 0. -1.
         -5    1    3    3    0  502  0.76358990758E+02  0.24500219986E+02 -0.10282057794E+03  0.13046263793E+03  0.41800000000E+01 0. -1.
        -11    1    1    2    0    0  0.78600522006E+01  0.18163768157E+02 -0.40208331555E+02  0.44815319041E+02  0.00000000000E+00 0.  1.
         11    1    1    2    0    0 -0.11083152424E+03 -0.15804992737E+02 -0.53630106996E+03  0.54786153561E+03  0.00000000000E+00 0. -1.
</event>
<event>
 7    1  0.2522928E-009  0.7087658E+02  0.7561462E-02  0.1357137E+00
         -2   -1    0    0    0  501 -0.00000000000E+00  0.00000000000E+00  0.34648537690E+02  0.34648537690E+02  0.00000000000E+00 0.  1.
          2   -1    0    0  501    0  0.00000000000E+00 -0.00000000000E+00 -0.40939334672E+03  0.40939334672E+03  0.00000000000E+00 0. -1.
         25    2    1    2    0    0 -0.35945302693E+01 -0.21812605563E+01 -0.30803106959E+03  0.33248726256E+03  0.12508781470E+03 0.  0.
          5    1    3    3  502    0 -0.35375832056E+02 -0.10352704218E+02 -0.29436860645E+03  0.29669677592E+03  0.41800000000E+01 0. -1.
         -5    1    3    3    0  502  0.31781301786E+02  0.81714436620E+01 -0.13662463139E+02  0.35790486638E+02  0.41800000000E+01 0. -1.
        -11    1    1    2    0    0 -0.31853863402E+02 -0.11085274978E+02 -0.65513979480E+02  0.73686046455E+02  0.00000000000E+00 0. -1.
         11    1    1    2    0    0  0.35448393671E+02  0.13266535534E+02 -0.11997599653E+01  0.37868575401E+02  0.00000000000E+00 0.  1.
</event>
<event>
 7    1  0.2522928E-009  0.1082681E+03  0.7561462E-02  0.1263811E+00
         -1   -1    0    0    0  501 -0.00000000000E+00  0.00000000000E+00  0.86489665640E+02  0.86489665640E+02  0.00000000000E+00 0.  1.
          1   -1    0    0  501    0  0.00000000000E+00 -0.00000000000E+00 -0.28698045690E+03  0.28698045690E+03  0.00000000000E+00 0. -1.
         25    2    1    2    0    0 -0.40649231981E+02 -0.18529697460E+02  0.16155823368E+02  0.13379936368E+03  0.12508217037E+03 0.  0.
          5    1    3    3  502    0  0.17615844172E+02 -0.55467053258E+02  0.26200698279E+02  0.63959838596E+02  0.41800000000E+01 0. -1.
         -5    1    3    3    0  502 -0.58265076153E+02  0.36937355798E+02 -0.10044874911E+02  0.69839525087E+02  0.41800000000E+01 0. -1.
        -11    1    1    2    0    0 -0.23160517844E+02  0.73123943110E+01 -0.16662131982E+02  0.29453477546E+02  0.00000000000E+00 0.  1.
         11    1    1    2    0    0  0.63809749824E+02  0.11217303149E+02 -0.19998448264E+03  0.21021728131E+03  0.00000000000E+00 0. -1.
</event>
<event>
 7    1  0.2522928E-009  0.9678415E+02  0.7561462E-02  0.1287208E+00
          1   -1    0    0  501    0  0.00000000000E+00  0.00000000000E+00  0.20128845252E+03  0.20128845252E+03  0.00000000000E+00 0. -1.
         -1   -1    0    0    0  501 -0.00000000000E+00 -0.00000000000E+00 -0.89154201302E+02  0.89154201302E+02  0.00000000000E+00 0.  1.
         25    2    1    2    0    0  0.68745684175E+02 -0.39075804330E+01  0.10276865992E+03  0.17592378076E+03  0.12508613391E+03 0.  0.
          5    1    3    3  502    0  0.43842818900E+02  0.16746936206E+02 -0.18292319864E+02  0.50544376615E+02  0.41800000000E+01 0.  1.
         -5    1    3    3    0  502  0.24902865275E+02 -0.20654516639E+02  0.12106097979E+03  0.12537940415E+03  0.41800000000E+01 0.  1.
        -11    1    1    2    0    0 -0.75063985103E+02  0.34483362624E+02  0.30331007217E+01  0.82661380689E+02  0.00000000000E+00 0.  1.
         11    1    1    2    0    0  0.63183009276E+01 -0.30575782191E+02  0.63324905674E+01  0.31857492368E+02  0.00000000000E+00 0. -1.
</event>
<event>
 7    1  0.2522928E-009  0.8842235E+02  0.7561462E-02  0.1306718E+00
          2   -1    0    0  501    0  0.00000000000E+00  0.00000000000E+00  0.23285355072E+03  0.23285355072E+03  0.00000000000E+00 0. -1.
         -2   -1    0    0    0  501 -0.00000000000E+00 -0.00000000000E+00 -0.63475397715E+02  0.63475397715E+02  0.00000000000E+00 0.  1.
         25    2    1    2    0    0  0.23163336652E+01 -0.16623362022E+02  0.15708740936E+03  0.20150601648E+03  0.12508604612E+03 0.  0.
          5    1    3    3  502    0  0.32149768754E+02  0.33996851852E+02  0.12689841385E+03  0.13531471984E+03  0.41800000000E+01 0. -1.
         -5    1    3    3    0  502 -0.29833435089E+02 -0.50620213874E+02  0.30188995508E+02  0.66191296646E+02  0.41800000000E+01 0. -1.
        -11    1    1    2    0    0  0.26379117030E+02 -0.13266088338E+02  0.36411482912E+02  0.46879025192E+02  0.00000000000E+00 0. -1.
         11    1    1    2    0    0 -0.28695450695E+02  0.29889450360E+02 -0.24120739262E+02  0.47943906765E+02  0.00000000000E+00 0.  1.
</event>
<event>
 7    1  0.2522928E-009  0.7380306E+02  0.7561462E-02  0.1347618E+00
         -3   -1    0    0    0  501 -0.00000000000E+00  0.00000000000E+00  0.15027972170E+03  0.15027972170E+03  0.00000000000E+00 0.  1.
          3   -1    0    0  501    0  0.00000000000E+00 -0.00000000000E+00 -0.12780367888E+03  0.12780367888E+03  0.00000000000E+00 0. -1.
         25    2    1    2    0    0 -0.68010853111E+02  0.21428055276E+02 -0.29378259316E+02  0.14695014933E+03  0.12508647638E+03 0.  0.
          5    1    3    3  502    0 -0.24924335258E+02  0.17588852062E+02 -0.76730638776E+02  0.82678011175E+02  0.41800000000E+01 0. -1.
         -5    1    3    3    0  502 -0.43086517853E+02  0.38392032142E+01  0.47352379459E+02  0.64272138151E+02  0.41800000000E+01 0. -1.
        -11    1    1    2    0    0  0.17988551856E+02 -0.13981770038E+02 -0.28316259233E+02  0.36344028784E+02  0.00000000000E+00 0. -1.
         11    1    1    2    0    0  0.50022301254E+02 -0.74462852385E+01  0.80170561365E+02  0.94789222469E+02  0.00000000000E+00 0.  1.
</event>
<event>
 7    1  0.2522928E-009  0.1122227E+03  0.7561462E-02  0.1256508E+00
         -2   -1    0    0    0  501 -0.00000000000E+00  0.00000000000E+00  0.21122100555E+02  0.21122100555E+02  0.00000000000E+00 0. -1.
          2   -1    0    0  501    0  0.00000000000E+00 -0.00000000000E+00 -0.75182016222E+03  0.75182016222E+03  0.00000000000E+00 0.  1.
         25    2    1    2    0    0 -0.61208496093E+01  0.63567741599E+02 -0.36058154996E+03  0.38696881615E+03  0.12508991937E+03 0.  0.
          5    1    3    3  502    0  0.44667534495E+02  0.31932844548E+02 -0.28603585690E+03  0.29128830912E+03  0.41800000000E+01 0.  1.
         -5    1    3    3    0  502 -0.50788384104E+02  0.31634897051E+02 -0.74545693059E+02  0.95680507027E+02  0.41800000000E+01 0.  1.
        -11    1    1    2    0    0 -0.29873699264E+02  0.65476096524E+01 -0.96288991582E+02  0.10102909977E+03  0.00000000000E+00 0.  1.
         11    1    1    2    0    0  0.35994548874E+02 -0.70115351251E+02 -0.27382752013E+03  0.28494434687E+03  0.00000000000E+00 0. -1.
</event>
<event>
 7    1  0.2978682E-009  0.8115148E+02  0.7561462E-02  0.1325815E+00
          3   -1    0    0  501    0  0.00000000000E+00  0.00000000000E+00  0.10047746781E+04  0.10047746781E+04  0.00000000000E+00 0. -1.
         -3   -1    0    0    0  501 -0.00000000000E+00 -0.00000000000E+00 -0.23703422109E+02  0.23703422109E+02  0.00000000000E+00 0.  1.
         25    2    1    2    0    0 -0.42667661817E+02 -0.14763180830E+02  0.85992973571E+03  0.87015562123E+03  0.12511264500E+03 0.  0.
          5    1    3    3  502    0 -0.46958440274E+02  0.35898985497E+01  0.10702543070E+03  0.11700383627E+03  0.41800000000E+01 0.  1.
         -5    1    3    3    0  502  0.42907784572E+01 -0.18353079379E+02  0.75290430500E+03  0.75315178496E+03  0.41800000000E+01 0.  1.
        -11    1    1    2    0    0  0.50400702543E+01 -0.33860719354E+02  0.19131768859E+02  0.39217026952E+02  0.00000000000E+00 0.  1.
         11    1    1    2    0    0  0.37627591563E+02  0.48623900183E+02  0.10200975143E+03  0.11910545202E+03  0.00000000000E+00 0. -1.
</event>
<event>
 7    1  0.2522928E-009  0.2342873E+03  0.7561462E-02  0.1123658E+00
          2   -1    0    0  501    0  0.00000000000E+00  0.00000000000E+00  0.28302469753E+04  0.28302469753E+04  0.00000000000E+00 0. -1.
         -2   -1    0    0    0  501 -0.00000000000E+00 -0.00000000000E+00 -0.26007237736E+02  0.26007237736E+02  0.00000000000E+00 0.  1.
         25    2    1    2    0    0 -0.18317671716E+03 -0.10853184055E+03  0.21088589142E+04  0.21232679118E+04  0.12509130587E+03 0.  0.
          5    1    3    3  502    0 -0.28097018534E+02 -0.80695512759E+02  0.57444647907E+03  0.58078174725E+03  0.41800000000E+01 0. -1.
         -5    1    3    3    0  502 -0.15507969863E+03 -0.27836327787E+02  0.15344124352E+04  0.15424861645E+04  0.41800000000E+01 0. -1.
        -11    1    1    2    0    0  0.11488852404E+03  0.10716410983E+03  0.39855756681E+03  0.42840594470E+03  0.00000000000E+00 0.  1.
         11    1    1    2    0    0  0.68288193122E+02  0.13677307177E+01  0.29682325652E+03  0.30458035658E+03  0.00000000000E+00 0. -1.
</event>
<event>
 7    1  0.2522928E-009  0.8909649E+02  0.7561462E-02  0.1305055E+00
          2   -1    0    0  501    0  0.00000000000E+00  0.00000000000E+00  0.77517328167E+03  0.77517328167E+03  0.00000000000E+00 0. -1.
         -2   -1    0    0    0  501 -0.00000000000E+00 -0.00000000000E+00 -0.37879729707E+02  0.37879729707E+02  0.00000000000E+00 0.  1.
         25    2    1    2    0    0  0.78947920046E+02  0.84270163487E+01  0.64593090047E+03  0.66270485899E+03  0.12508882151E+03 0.  0.
          5    1    3    3  502    0  0.82274926487E+02 -0.25160649747E+01  0.19619046083E+03  0.21279958513E+03  0.41800000000E+01 0. -1.
         -5    1    3    3    0  502 -0.33270064408E+01  0.10943081323E+02  0.44974043964E+03  0.44990527386E+03  0.41800000000E+01 0. -1.
        -11    1    1    2    0    0 -0.63138302204E+02  0.43224352129E+01  0.71124527815E+01  0.63684500752E+02  0.00000000000E+00 0.  1.
         11    1    1    2    0    0 -0.15809617842E+02 -0.12749451562E+02  0.84250198717E+02  0.86663651638E+02  0.00000000000E+00 0. -1.
</event>
<event>
 7    1  0.2522928E-009  0.1789518E+03  0.7561462E-02  0.1168821E+00
          2   -1    0    0  501    0  0.00000000000E+00  0.00000000000E+00  0.11378506142E+03  0.11378506142E+03  0.00000000000E+00 0. -1.
         -2   -1    0    0    0  501 -0.00000000000E+00 -0.00000000000E+00 -0.34315232837E+03  0.34315232837E+03  0.00000000000E+00 0.  1.
         25    2    1    2    0    0  0.10600455874E+03  0.12328165443E+03 -0.15840509671E+03  0.25917995723E+03  0.12508694085E+03 0.  0.
          5    1    3    3  502    0  0.65024902857E+02  0.43079627708E+00 -0.94283314272E+02  0.11460907175E+03  0.41800000000E+01 0.  1.
         -5    1    3    3    0  502  0.40979655885E+02  0.12285085815E+03 -0.64121782439E+02  0.14457088548E+03  0.41800000000E+01 0.  1.
        -11    1    1    2    0    0 -0.73666056552E+02 -0.75593066905E+02 -0.88268980726E+02  0.13759510388E+03  0.00000000000E+00 0.  1.
         11    1    1    2    0    0 -0.32338502190E+02 -0.47688587526E+02  0.17306810483E+02  0.60162328688E+02  0.00000000000E+00 0. -1.
</event>
<event>
 7    1  0.2522928E-009  0.1356297E+03  0.7561462E-02  0.1219333E+00
         -1   -1    0    0    0  501 -0.00000000000E+00  0.00000000000E+00  0.59963860420E+03  0.59963860420E+03  0.00000000000E+00 0.  1.
          1   -1    0    0  501    0  0.00000000000E+00 -0.00000000000E+00 -0.39486349320E+02  0.39486349320E+02  0.00000000000E+00 0. -1.
         25    2    1    2    0    0 -0.50658295138E+02  0.84042935129E+02  0.20674068944E+03  0.26080621302E+03  0.12509472518E+03 0.  0.
          5    1    3    3  502    0  0.31165355476E+02  0.23287514716E+02  0.12224629939E+03  0.12835582510E+03  0.41800000000E+01 0. -1.
         -5    1    3    3    0  502 -0.81823650614E+02  0.60755420413E+02  0.84494390055E+02  0.13245038792E+03  0.41800000000E+01 0. -1.
        -11    1    1    2    0    0  0.12071548914E+02 -0.90245711487E+02  0.28874027672E+03  0.30275560794E+03  0.00000000000E+00 0.  1.
         11    1    1    2    0    0  0.38586746224E+02  0.62027763585E+01  0.64671288713E+02  0.75563132562E+02  0.00000000000E+00 0. -1.
</event>
<event>
 7    1  0.2522928E-009  0.1997750E+03  0.7561462E-02  0.1149929E+00
          2   -1    0    0  501    0  0.00000000000E+00  0.00000000000E+00  0.22446771514E+03  0.22446771514E+03  0.00000000000E+00 0. -1.
         -2   -1    0    0    0  501 -0.00000000000E+00 -0.00000000000E+00 -0.31560252574E+03  0.31560252574E+03  0.00000000000E+00 0.  1.
         25    2    1    2    0    0 -0.19059154603E+03  0.49695761664E+02  0.95322670411E+02  0.25205052988E+03  0.12509297330E+03 0.  0.
          5    1    3    3  502    0 -0.10686075676E+03  0.31065621993E+02 -0.14862092295E+02  0.11235056027E+03  0.41800000000E+01 0. -1.
         -5    1    3    3    0  502 -0.83730789274E+02  0.18630139671E+02  0.11018476271E+03  0.13969996961E+03  0.41800000000E+01 0. -1.
        -11    1    1    2    0    0  0.12715453222E+03 -0.10163641383E+02 -0.16815824287E+03  0.21106579381E+03  0.00000000000E+00 0.  1.
         11    1    1    2    0    0  0.63437013812E+02 -0.39532120282E+02 -0.18299238135E+02  0.76953917195E+02  0.00000000000E+00 0. -1.
</event>
<event>
 7    1  0.2522928E-009  0.9957251E+02  0.7561462E-02  0.1281197E+00
         -2   -1    0    0    0  501 -0.00000000000E+00  0.00000000000E+00  0.35564946639E+02  0.35564946639E+02  0.00000000000E+00 0. -1.
          2   -1    0    0  501    0  0.00000000000E+00 -0.00000000000E+00 -0.43519828307E+03  0.43519828307E+03  0.00000000000E+00 0.  1.
         25    2    1    2    0    0  0.43082806163E+02  0.39290978424E+02 -0.20209391634E+03  0.24472315568E+03  0.12509021837E+03 0.  0.
          5    1    3    3  502    0  0.91695201625E+01 -0.22175658575E+02 -0.16189863562E+03  0.16372073952E+03  0.41800000000E+01 0. -1.
         -5    1    3    3    0  502  0.33913286000E+02  0.61466636999E+02 -0.40195280720E+02  0.81002416158E+02  0.41800000000E+01 0. -1.
        -11    1    1    2    0    0 -0.52454615111E+02  0.10754466366E+02 -0.13604418370E+03  0.14620247984E+03  0.00000000000E+00 0.  1.
         11    1    1    2    0    0  0.93718089483E+01 -0.50045444790E+02 -0.61495236387E+02  0.79837594186E+02  0.00000000000E+00 0. -1.
</event>
<event>
 7    1  0.2522928E-009  0.1448732E+03  0.7561462E-02  0.1206918E+00
          1   -1    0    0  501    0  0.00000000000E+00  0.00000000000E+00  0.17774676157E+03  0.17774676157E+03  0.00000000000E+00 0. -1.
         -1   -1    0    0    0  501 -0.00000000000E+00 -0.00000000000E+00 -0.17077850315E+03  0.17077850315E+03  0.00000000000E+00 0.  1.
         25    2    1    2    0    0 -0.55750951610E+02 -0.98915415216E+02 -0.71707308557E+02  0.18352625064E+03  0.12509004197E+03 0.  0.
          5    1    3    3  502    0 -0.23094513892E+02  0.23944327730E+02  0.65824996156E+01  0.34168539675E+02  0.41800000000E+01 0. -1.
         -5    1    3    3    0  502 -0.32656437718E+02 -0.12285974295E+03 -0.78289808172E+02  0.14935771097E+03  0.41800000000E+01 0. -1.
        -11    1    1    2    0    0  0.67854963869E+02  0.94062283053E+02  0.37634459918E+02  0.12193589212E+03  0.00000000000E+00 0.  1.
         11    1    1    2    0    0 -0.12104012259E+02  0.48531321632E+01  0.41041107058E+02  0.43063121962E+02  0.00000000000E+00 0. -1.
</event>
<event>
 7    1  0.2522928E-009  0.1531189E+03  0.7561462E-02  0.1196692E+00
         -1   -1    0    0    0  501 -0.00000000000E+00  0.00000000000E+00  0.24678814731E+03  0.24678814731E+03  0.00000000000E+00 0.  1.
          1   -1    0    0  501    0  0.00000000000E+00 -0.00000000000E+00 -0.16880044118E+03  0.16880044118E+03  0.00000000000E+00 0. -1.
         25    2    1    2    0    0  0.84564188800E+02  0.12182942869E+03  0.13055121956E+03  0.23384815172E+03  0.12509126833E+03 0.  0.
          5    1    3    3  502    0 -0.48305253550E+01  0.37065314194E+01  0.75341453626E+02  0.75702571851E+02  0.41800000000E+01 0.  1.
         -5    1    3    3    0  502  0.89394714155E+02  0.11812289727E+03  0.55209765930E+02  0.15814557987E+03  0.41800000000E+01 0.  1.
        -11    1    1    2    0    0 -0.21300478211E+02 -0.53259302671E+02 -0.66043270048E+02  0.87475580659E+02  0.00000000000E+00 0. -1.
         11    1    1    2    0    0 -0.63263710589E+02 -0.68570126020E+02  0.13479756618E+02  0.94264856115E+02  0.00000000000E+00 0.  1.
</event>
<event>
 7    1  0.2522928E-009  0.1212170E+03  0.7561462E-02  0.1241103E+00
          2   -1    0    0  501    0  0.00000000000E+00  0.00000000000E+00  0.70244239830E+03  0.70244239830E+03  0.00000000000E+00 0. -1.
         -2   -1    0    0    0  501 -0.00000000000E+00 -0.00000000000E+00 -0.32599031911E+02  0.32599031911E+02  0.00000000000E+00 0.  1.
         25    2    1    2    0    0  0.46227749645E+02 -0.94196477512E+02  0.36599068881E+03  0.40075832096E+03  0.12509223121E+03 0.  0.
          5    1    3    3  502    0  0.19145791557E+02 -0.13243438600E+02 -0.12683014630E+01  0.23686092732E+02  0.41800000000E+01 0.  1.
         -5    1    3    3    0  502  0.27081958088E+02 -0.80953038912E+02  0.36725899027E+03  0.37707222823E+03  0.41800000000E+01 0. -1.
        -11    1    1    2    0    0 -0.60855008147E+02  0.10042023589E+03  0.29114600201E+03  0.31393239763E+03  0.00000000000E+00 0. -1.
         11    1    1    2    0    0  0.14627258503E+02 -0.62237583778E+01  0.12706675563E+02  0.20350711622E+02  0.00000000000E+00 0.  1.
</event>
<event>
 7    1  0.2522928E-009  0.1526585E+03  0.7561462E-02  0.1197244E+00
          2   -1    0    0  501    0  0.00000000000E+00  0.00000000000E+00  0.15280022932E+03  0.15280022932E+03  0.00000000000E+00 0.  1.
         -2   -1    0    0    0  501 -0.00000000000E+00 -0.00000000000E+00 -0.17531072799E+03  0.17531072799E+03  0.00000000000E+00 0. -1.
         25    2    1    2    0    0  0.90176779294E+02 -0.80978265982E+02 -0.17498669255E+02  0.17505476798E+03  0.12509451340E+03 0.  0.
          5    1    3    3  502    0  0.77802544540E+02 -0.11370053972E+03 -0.58974007437E+01  0.13796122791E+03  0.41800000000E+01 0.  1.
         -5    1    3    3    0  502  0.12374234755E+02  0.32722273738E+02 -0.11601268511E+02  0.37093540077E+02  0.41800000000E+01 0.  1.
        -11    1    1    2    0    0 -0.28287391332E+02 -0.24254914902E+01 -0.34893795409E+02  0.44984847175E+02  0.00000000000E+00 0.  1.
         11    1    1    2    0    0 -0.61889387962E+02  0.83403757472E+02  0.29881965987E+02  0.10807134215E+03  0.00000000000E+00 0. -1.
</event>
<event>
 7    1  0.2522928E-009  0.6697655E+02  0.7561462E-02  0.1370687E+00
          2   -1    0    0  501    0  0.00000000000E+00  0.00000000000E+00  0.30180780403E+03  0.30180780403E+03  0.00000000000E+00 0. -1.
         -2   -1    0    0    0  501 -0.00000000000E+00 -0.00000000000E+00 -0.36928234128E+02  0.36928234128E+02  0.00000000000E+00 0.  1.
         25    2    1    2    0    0  0.43388044871E-01  0.44506340638E+01  0.21639469816E+03  0.24998740159E+03  0.12508887055E+03 0.  0.
          5    1    3    3  502    0  0.34118699558E+02  0.14758166142E+02  0.21033312240E+03  0.21363376115E+03  0.41800000000E+01 0.  1.
         -5    1    3    3    0  502 -0.34075311513E+02 -0.10307532079E+02  0.60615757667E+01  0.36353640437E+02  0.41800000000E+01 0.  1.
        -11    1    1    2    0    0  0.28772876623E+02  0.71316044133E+01 -0.17430081563E+01  0.29694718186E+02  0.00000000000E+00 0. -1.
         11    1    1    2    0    0 -0.28816264668E+02 -0.11582238477E+02  0.50227879897E+02  0.59053918384E+02  0.00000000000E+00 0.  1.
</event>
<event>
 7    1  0.2522928E-009  0.1056266E+03  0.7561462E-02  0.1268890E+00
          2   -1    0    0  501    0  0.00000000000E+00  0.00000000000E+00  0.15070024479E+03  0.15070024479E+03  0.00000000000E+00 0. -1.
         -2   -1    0    0    0  501 -0.00000000000E+00 -0.00000000000E+00 -0.93981718619E+02  0.93981718619E+02  0.00000000000E+00 0.  1.
         25    2    1    2    0    0 -0.31038385816E+00  0.18418409517E+02 -0.76937631418E+01  0.12669354643E+03  0.12511085712E+03 0.  0.
          5    1    3    3  502    0 -0.61903020951E+02  0.56125268311E+01 -0.12213325575E+02  0.63483243316E+02  0.41800000000E+01 0. -1.
         -5    1    3    3    0  502  0.61592637093E+02  0.12805882686E+02  0.45195624332E+01  0.63210303116E+02  0.41800000000E+01 0. -1.
        -11    1    1    2    0    0 -0.33232541901E+02 -0.35192749682E+02  0.64303016848E+02  0.80484839859E+02  0.00000000000E+00 0.  1.
         11    1    1    2    0    0  0.33542925759E+02  0.16774340165E+02  0.10927246909E+00  0.37503577122E+02  0.00000000000E+00 0. -1.
</event>
<event>
 7    1  0.2522928E-009  0.1589877E+03  0.7561462E-02  0.1189844E+00
          2   -1    0    0  501    0  0.00000000000E+00  0.00000000000E+00  0.20726183010E+03  0.20726183010E+03  0.00000000000E+00 0. -1.
         -2   -1    0    0    0  501 -0.00000000000E+00 -0.00000000000E+00 -0.14190655122E+03  0.14190655122E+03  0.00000000000E+00 0.  1.
         25    2    1    2    0    0 -0.14839006842E+02  0.11596969473E+03  0.94521591895E+02  0.19558688318E+03  0.12510288294E+03 0.  0.
          5    1    3    3  502    0 -0.34247797624E+02  0.13732008852E+03  0.83766268511E+02  0.16451133241E+03  0.41800000000E+01 0. -1.
         -5    1    3    3    0  502  0.19408790782E+02 -0.21350393790E+02  0.10755323383E+02  0.31075550770E+02  0.41800000000E+01 0. -1.
        -11    1    1    2    0    0  0.40614963658E+02 -0.15440101254E+02 -0.24076086206E+02  0.49675244606E+02  0.00000000000E+00 0. -1.
         11    1    1    2    0    0 -0.25775956816E+02 -0.10052959347E+03 -0.50902268173E+01  0.10390625353E+03  0.00000000000E+00 0.  1.
</event>
<event>
 7    1  0.2522928E-009  0.1215852E+03  0.7561462E-02  0.1240505E+00
         -1   -1    0    0    0  501 -0.00000000000E+00  0.00000000000E+00  0.10892952768E+03  0.10892952768E+03  0.00000000000E+00 0.  1.
          1   -1    0    0  501    0  0.00000000000E+00 -0.00000000000E+00 -0.19915614801E+03  0.19915614801E+03  0.00000000000E+00 0. -1.
         25    2    1    2    0    0 -0.89344102121E+02  0.13879999666E+02 -0.13186760267E+01  0.15435178512E+03  0.12509081377E+03 0.  0.
          5    1    3    3  502    0 -0.18306389669E+01 -0.32531543982E+02 -0.36539191907E+02  0.49134891250E+02  0.41800000000E+01 0.  1.
         -5    1    3    3    0  502 -0.87513463154E+02  0.46411543649E+02  0.35220515880E+02  0.10521689387E+03  0.41800000000E+01 0.  1.
        -11    1    1    2    0    0  0.57929510636E+02  0.23351898967E+02 -0.13407785586E+02  0.63881985741E+02  0.00000000000E+00 0.  1.
         11    1    1    2    0    0  0.31414591484E+02 -0.37231898634E+02 -0.75500158718E+02  0.89851904824E+02  0.00000000000E+00 0. -1.
</event>
<event>
 7    1  0.2522928E-009  0.1122180E+03  0.7561462E-02  0.1256517E+00
          1   -1    0    0  501    0  0.00000000000E+00  0.00000000000E+00  0.38848190733E+02  0.38848190733E+02  0.00000000000E+00 0. -1.
         -1   -1    0    0    0  501 -0.00000000000E+00 -0.00000000000E+00 -0.42492382719E+03  0.42492382719E+03  0.00000000000E+00 0.  1.
         25    2    1    2    0    0  0.67218340912E+02 -0.72613392561E+01 -0.19390213899E+03  0.24045126527E+03  0.12509092317E+03 0.  0.
          5    1    3    3  502    0  0.33537923504E+02 -0.63367447521E+02 -0.70110735517E+02  0.10036539918E+03  0.41800000000E+01 0. -1.
         -5    1    3    3    0  502  0.33680417408E+02  0.56106108265E+02 -0.12379140348E+03  0.14008586608E+03  0.41800000000E+01 0. -1.
        -11    1    1    2    0    0 -0.56966666169E+02 -0.18033747736E+02 -0.18596640322E+03  0.19533028500E+03  0.00000000000E+00 0.  1.
         11    1    1    2    0    0 -0.10251674744E+02  0.25295086992E+02 -0.62070942492E+01  0.27990467663E+02  0.00000000000E+00 0. -1.
</event>
<event>
 7    1  0.2522928E-009  0.1148447E+03  0.7561462E-02  0.1251852E+00
          1   -1    0    0  501    0  0.00000000000E+00  0.00000000000E+00  0.48541875842E+03  0.48541875842E+03  0.00000000000E+00 0. -1.
         -1   -1    0    0    0  501 -0.00000000000E+00 -0.00000000000E+00 -0.30795411990E+02  0.30795411990E+02  0.00000000000E+00 0.  1.
         25    2    1    2    0    0 -0.54378435039E+02 -0.14098453875E+02  0.25729980749E+03  0.29155892810E+03  0.12509051533E+03 0.  0.
          5    1    3    3  502    0  0.39553972480E+02 -0.15636463974E+02  0.90298716415E+02  0.99901683323E+02  0.41800000000E+01 0. -1.
         -5    1    3    3    0  502 -0.93932407519E+02  0.15380100986E+01  0.16700109107E+03  0.19165724478E+03  0.41800000000E+01 0. -1.
        -11    1    1    2    0    0  0.20607910739E+02 -0.30600118725E+02  0.28028712917E+02  0.46332083903E+02  0.00000000000E+00 0.  1.
         11    1    1    2    0    0  0.33770524300E+02  0.44698572600E+02  0.16929482603E+03  0.17832315840E+03  0.00000000000E+00 0. -1.
</event>
<event>
 7    1  0.2522928E-009  0.1069263E+03  0.7561462E-02  0.1266370E+00
         -1   -1    0    0    0  501 -0.00000000000E+00  0.00000000000E+00  0.32968010814E+03  0.32968010814E+03  0.00000000000E+00 0.  1.
          1   -1    0    0  501    0  0.00000000000E+00 -0.00000000000E+00 -0.60057115529E+02  0.60057115529E+02  0.00000000000E+00 0. -1.
         25    2    1    2    0    0 -0.87616571108E+01  0.86392773453E+02  0.17936595185E+03  0.23528586312E+03  0.12508722861E+03 0.  0.
          5    1    3    3  502    0 -0.22376083395E+01  0.99869590880E+02  0.63634067612E+02  0.11851459418E+03  0.41800000000E+01 0. -1.
         -5    1    3    3    0  502 -0.65240487713E+01 -0.13476817427E+02  0.11573188423E+03  0.11677126893E+03  0.41800000000E+01 0. -1.
        -11    1    1    2    0    0  0.27539179017E+02 -0.43255193379E+02  0.94186311962E+02  0.10724028859E+03  0.00000000000E+00 0.  1.
         11    1    1    2    0    0 -0.18777521906E+02 -0.43137580074E+02 -0.39292711989E+01  0.47211071961E+02  0.00000000000E+00 0. -1.
</event>
<event>
 7    1  0.2522928E-009  0.7620383E+02  0.7561462E-02  0.1340183E+00
         -1   -1    0    0    0  501 -0.00000000000E+00  0.00000000000E+00  0.17176929056E+03  0.17176929056E+03  0.00000000000E+00 0.  1.
          1   -1    0    0  501    0  0.00000000000E+00 -0.00000000000E+00 -0.75833735271E+02  0.75833735271E+02  0.00000000000E+00 0. -1.
         25    2    1    2    0    0 -0.38512397719E+01 -0.32033357850E+02  0.41595056470E+02  0.13571766020E+03  0.12509263169E+03 0.  0.
          5    1    3    3  502    0 -0.47611036051E+02 -0.41670884332E+02 -0.13243156249E+02  0.64777518803E+02  0.41800000000E+01 0.  1.
         -5    1    3    3    0  502  0.43759796279E+02  0.96375264814E+01  0.54838212719E+02  0.70940141396E+02  0.41800000000E+01 0.  1.
        -11    1    1    2    0    0  0.11725306687E+02  0.76447739551E+00 -0.24244680001E+02  0.26942007181E+02  0.00000000000E+00 0. -1.
         11    1    1    2    0    0 -0.78740669155E+01  0.31268880455E+02  0.78585178824E+02  0.84943358455E+02  0.00000000000E+00 0.  1.
</event>
<event>
 7    1  0.2522928E-009  0.8621854E+02  0.7561462E-02  0.1312276E+00
         -1   -1    0    0    0  501 -0.00000000000E+00  0.00000000000E+00  0.34781861489E+03  0.34781861489E+03  0.00000000000E+00 0.  1.
          1   -1    0    0  501    0  0.00000000000E+00 -0.00000000000E+00 -0.47818721149E+02  0.47818721149E+02  0.00000000000E+00 0. -1.
         25    2    1    2    0    0  0.49817070988E+02 -0.38645658305E+02  0.22322820440E+03  0.26353172661E+03  0.12507162835E+03 0.  0.
          5    1    3    3  502    0 -0.26881605397E+01 -0.29191870961E+02 -0.41859532602E+01  0.29906289338E+02  0.41800000000E+01 0. -1.
         -5    1    3    3    0  502  0.52505231528E+02 -0.94537873443E+01  0.22741415766E+03  0.23362543727E+03  0.41800000000E+01 0. -1.
        -11    1    1    2    0    0 -0.65026081999E+02  0.28296874470E+02  0.21882179693E+02  0.74215458181E+02  0.00000000000E+00 0. -1.
         11    1    1    2    0    0  0.15209011011E+02  0.10348783836E+02  0.54889509644E+02  0.57890151250E+02  0.00000000000E+00 0.  1.
</event>
<event>
 7    1  0.2522928E-009  0.1552832E+03  0.7561462E-02  0.1194127E+00
          1   -1    0    0  501    0  0.00000000000E+00  0.00000000000E+00  0.26568005638E+03  0.26568005638E+03  0.00000000000E+00 0. -1.
         -1   -1    0    0    0  501 -0.00000000000E+00 -0.00000000000E+00 -0.12203729838E+03  0.12203729838E+03  0.00000000000E+00 0.  1.
         25    2    1    2    0    0 -0.72096951079E+02  0.91844016761E+02 -0.12807838208E+02  0.17160373469E+03  0.12510198748E+03 0.  0.
          5    1    3    3  502    0  0.20332627110E+02 -0.11628817355E+02 -0.22117086858E+02  0.32485120430E+02  0.41800000000E+01 0.  1.
         -5    1    3    3    0  502 -0.92429578188E+02  0.10347283412E+03  0.93092486496E+01  0.13911861426E+03  0.41800000000E+01 0.  1.
        -11    1    1    2    0    0  0.81722241678E+01 -0.83036619772E+02  0.10121529666E+03  0.13117317465E+03  0.00000000000E+00 0. -1.
         11    1    1    2    0    0  0.63924726911E+02 -0.88073969893E+01  0.55235299550E+02  0.84940445423E+02  0.00000000000E+00 0.  1.
</event>
<event>
 7    1  0.2522928E-009  0.1000556E+03  0.7561462E-02  0.1280179E+00
          2   -1    0    0  501    0  0.00000000000E+00  0.00000000000E+00  0.81964506785E+03  0.81964506785E+03  0.00000000000E+00 0. -1.
         -2   -1    0    0    0  501 -0.00000000000E+00 -0.00000000000E+00 -0.21636738716E+02  0.21636738716E+02  0.00000000000E+00 0.  1.
         25    2    1    2    0    0  0.12044569199E+02  0.70707914361E+02  0.36841038867E+03  0.39562415486E+03  0.12509027392E+03 0.  0.
          5    1    3    3  502    0  0.33114227072E+02  0.59673156986E+02  0.36486538069E+03  0.37121645454E+03  0.41800000000E+01 0. -1.
         -5    1    3    3    0  502 -0.21069657873E+02  0.11034757374E+02  0.35450079832E+01  0.24407700317E+02  0.41800000000E+01 0. -1.
        -11    1    1    2    0    0  0.34085027779E+02 -0.22358388934E+02  0.80626437307E+02  0.90345498323E+02  0.00000000000E+00 0.  1.
         11    1    1    2    0    0 -0.46129596978E+02 -0.48349525426E+02  0.34897150316E+03  0.35531215338E+03  0.00000000000E+00 0. -1.
</event>
<event>
 7    1  0.2522928E-009  0.1524954E+03  0.7561462E-02  0.1197440E+00
         -2   -1    0    0    0  501 -0.00000000000E+00  0.00000000000E+00  0.44113136019E+02  0.44113136019E+02  0.00000000000E+00 0. -1.
          2   -1    0    0  501    0  0.00000000000E+00 -0.00000000000E+00 -0.75745963383E+03  0.75745963383E+03  0.00000000000E+00 0.  1.
         25    2    1    2    0    0 -0.10509091060E+03  0.79322779623E+02 -0.47568921525E+03  0.50917950837E+03  0.12508932560E+03 0.  0.
          5    1    3    3  502    0 -0.16850700094E+02 -0.26633484330E+02 -0.34450301144E+02  0.46878398332E+02  0.41800000000E+01 0. -1.
         -5    1    3    3    0  502 -0.88240210508E+02  0.10595626395E+03 -0.44123891410E+03  0.46230111003E+03  0.41800000000E+01 0. -1.
        -11    1    1    2    0    0  0.16663634764E+02 -0.31686347680E+00  0.88333017999E+01  0.18862776749E+02  0.00000000000E+00 0. -1.
         11    1    1    2    0    0  0.88427275839E+02 -0.79005916146E+02 -0.24649058437E+03  0.27353048473E+03  0.00000000000E+00 0.  1.
</event>
<event>
 7    1  0.2522928E-009  0.1171468E+03  0.7561462E-02  0.1247880E+00
          1   -1    0    0  501    0  0.00000000000E+00  0.00000000000E+00  0.57726768606E+03  0.57726768606E+03  0.00000000000E+00 0. -1.
         -1   -1    0    0    0  501 -0.00000000000E+00 -0.00000000000E+00 -0.46881992800E+02  0.46881992800E+02  0.00000000000E+00 0.  1.
         25    2    1    2    0    0  0.72542943198E+02  0.12770351150E+02  0.94128458674E+02  0.17301198624E+03  0.12508964855E+03 0.  0.
          5    1    3    3  502    0  0.36434121346E+02  0.57284322791E+02  0.93393951977E+02  0.11553718666E+03  0.41800000000E+01 0.  1.
         -5    1    3    3    0  502  0.36108821852E+02 -0.44513971641E+02  0.73450669729E+00  0.57474799581E+02  0.41800000000E+01 0.  1.
        -11    1    1    2    0    0 -0.84910826959E+02 -0.27795953079E+02  0.40132882129E+03  0.41115360431E+03  0.00000000000E+00 0. -1.
         11    1    1    2    0    0  0.12367883760E+02  0.15025601929E+02  0.34928413302E+02  0.39984088308E+02  0.00000000000E+00 0.  1.
</event>
<event>
 7    1  0.2522928E-009  0.1067494E+03  0.7561462E-02  0.1266711E+00
          1   -1    0    0  501    0  0.00000000000E+00  0.00000000000E+00  0.36351116523E+03  0.36351116523E+03  0.00000000000E+00 0. -1.
         -1   -1    0    0    0  501 -0.00000000000E+00 -0.00000000000E+00 -0.33320031188E+02  0.33320031188E+02  0.00000000000E+00 0.  1.
         25    2    1    2    0    0  0.93286196961E-02 -0.14673326612E+02  0.15551876911E+03  0.20012210981E+03  0.12508982648E+03 0.  0.
          5    1    3    3  502    0  0.49163083552E+02 -0.44950306074E+02  0.68760854860E+02  0.95828317118E+02  0.41800000000E+01 0.  1.
         -5    1    3    3    0  502 -0.49153754933E+02  0.30276979461E+02  0.86757914250E+02  0.10429379269E+03  0.41800000000E+01 0.  1.
        -11    1    1    2    0    0 -0.16615917968E+02 -0.33783209151E+02  0.92636427335E+02  0.99994507948E+02  0.00000000000E+00 0. -1.
         11    1    1    2    0    0  0.16606589348E+02  0.48456535764E+02  0.82035937600E+02  0.96714578662E+02  0.00000000000E+00 0.  1.
</event>
<event>
 7    1  0.2522928E-009  0.1260976E+03  0.7561462E-02  0.1233364E+00
         -2   -1    0    0    0  501 -0.00000000000E+00  0.00000000000E+00  0.27994000774E+02  0.27994000774E+02  0.00000000000E+00 0.  1.
          2   -1    0    0  501    0  0.00000000000E+00 -0.00000000000E+00 -0.77110864129E+03  0.77110864129E+03  0.00000000000E+00 0. -1.
         25    2    1    2    0    0  0.16768450995E+02  0.88471463929E+02 -0.35297187375E+03  0.38515566480E+03  0.12508941438E+03 0.  0.
          5    1    3    3  502    0 -0.30869210343E+02  0.81129092039E+02 -0.12586098518E+03  0.15294867672E+03  0.41800000000E+01 0. -1.
         -5    1    3    3    0  502  0.47637661337E+02  0.73423718901E+01 -0.22711088857E+03  0.23220698807E+03  0.41800000000E+01 0. -1.
        -11    1    1    2    0    0 -0.25961565014E+00  0.13554511022E+02 -0.38876010975E+01  0.14103390076E+02  0.00000000000E+00 0.  1.
         11    1    1    2    0    0 -0.16508835344E+02 -0.10202597495E+03 -0.38625516568E+03  0.39984358720E+03  0.00000000000E+00 0. -1.
</event>
<event>
 7    1  0.2522928E-009  0.2754058E+03  0.7561462E-02  0.1098225E+00
          1   -1    0    0  501    0  0.00000000000E+00  0.00000000000E+00  0.18095420677E+04  0.18095420677E+04  0.00000000000E+00 0. -1.
         -1   -1    0    0    0  501 -0.00000000000E+00 -0.00000000000E+00 -0.46912399357E+02  0.46912399357E+02  0.00000000000E+00 0.  1.
         25    2    1    2    0    0  0.25637990925E+03  0.55972868502E+02  0.69889045565E+03  0.75694255839E+03  0.12510214960E+03 0.  0.
          5    1    3    3  502    0  0.71170078527E+02 -0.19137902602E+02  0.32162335316E+03  0.32998559528E+03  0.41800000000E+01 0.  1.
         -5    1    3    3    0  502  0.18520983072E+03  0.75110771104E+02  0.37726710249E+03  0.42695696311E+03  0.41800000000E+01 0.  1.
        -11    1    1    2    0    0 -0.20389461796E+03 -0.80432158014E+02  0.79937392695E+03  0.82887937745E+03  0.00000000000E+00 0.  1.
         11    1    1    2    0    0 -0.52485291289E+02  0.24459289512E+02  0.26436528576E+03  0.27063253123E+03  0.00000000000E+00 0. -1.
</event>
<event>
 7    1  0.2522928E-009  0.1238562E+03  0.7561462E-02  0.1236868E+00
         -2   -1    0    0    0  501 -0.00000000000E+00  0.00000000000E+00  0.91525456186E+02  0.91525456186E+02  0.00000000000E+00 0. -1.
          2   -1    0    0  501    0  0.00000000000E+00 -0.00000000000E+00 -0.18866290020E+03  0.18866290020E+03  0.00000000000E+00 0.  1.
         25    2    1    2    0    0  0.24278557168E+02  0.69303896298E+02 -0.50352038876E+02  0.15354905537E+03  0.12509798641E+03 0.  0.
          5    1    3    3  502    0  0.68779047833E+02  0.47530788415E+02 -0.59886931183E+02  0.10292545941E+03  0.41800000000E+01 0. -1.
         -5    1    3    3    0  502 -0.44500490665E+02  0.21773107883E+02  0.95348923071E+01  0.50623595957E+02  0.41800000000E+01 0. -1.
        -11    1    1    2    0    0  0.15333689331E+02  0.14805712137E+02 -0.21536504262E+02  0.30301025663E+02  0.00000000000E+00 0.  1.
         11    1    1    2    0    0 -0.39612246499E+02 -0.84109608435E+02 -0.25248900881E+02  0.96338275361E+02  0.00000000000E+00 0. -1.
</event>
<event>
 7    1  0.2522928E-009  0.6594067E+02  0.7561462E-02  0.1374468E+00
          2   -1    0    0  501    0  0.00000000000E+00  0.00000000000E+00  0.44564706988E+02  0.44564706988E+02  0.00000000000E+00 0. -1.
         -2   -1    0    0    0  501 -0.00000000000E+00 -0.00000000000E+00 -0.36629296883E+03  0.36629296883E+03  0.00000000000E+00 0.  1.
         25    2    1    2    0    0 -0.27663618763E+02 -0.33243440941E+02 -0.92296229576E+02  0.16135906255E+03  0.12509097052E+03 0.  0.
          5    1    3    3  502    0  0.14976918854E+02 -0.16704649368E+01  0.26733990199E+02  0.30972200171E+02  0.41800000000E+01 0. -1.
         -5    1    3    3    0  502 -0.42640537617E+02 -0.31572976005E+02 -0.11903021978E+03  0.13038686238E+03  0.41800000000E+01 0. -1.
        -11    1    1    2    0    0  0.75103004904E+01  0.40809026373E+02 -0.22329023905E+03  0.22711299413E+03  0.00000000000E+00 0.  1.
         11    1    1    2    0    0  0.20153318272E+02 -0.75655854318E+01 -0.61417932196E+01  0.22385619140E+02  0.00000000000E+00 0. -1.
</event>
<event>
 7    1  0.2522928E-009  0.1257590E+03  0.7561462E-02  0.1233888E+00
         -1   -1    0    0    0  501 -0.00000000000E+00  0.00000000000E+00  0.72290110083E+02  0.72290110083E+02  0.00000000000E+00 0.  1.
          1   -1    0    0  501    0  0.00000000000E+00 -0.00000000000E+00 -0.32281574683E+03  0.32281574683E+03  0.00000000000E+00 0. -1.
         25    2    1    2    0    0 -0.65914803145E+02 -0.41436387532E+02 -0.40464135456E+02  0.15279218662E+03  0.12508545299E+03 0.  0.
          5    1    3    3  502    0 -0.90984078599E+02  0.62216663345E+01 -0.13045073973E+02  0.92219618550E+02  0.41800000000E+01 0.  1.
         -5    1    3    3    0  502  0.25069275454E+02 -0.47658053866E+02 -0.27419061484E+02  0.60572568071E+02  0.41800000000E+01 0.  1.
        -11    1    1    2    0    0  0.21415607745E+02 -0.20701720284E+02 -0.12258743190E+03  0.12615414356E+03  0.00000000000E+00 0. -1.
         11    1    1    2    0    0  0.44499195400E+02  0.62138107816E+02 -0.87474069387E+02  0.11615952673E+03  0.00000000000E+00 0.  1.
</event>
<event>
 6    1  0.2522928E-009  0.7691462E+02  0.7561462E-02  0.1338043E+00
         -1   -1    0    0    0  501 -0.00000000000E+00  0.00000000000E+00  0.50644939156E+02  0.50644939156E+02  0.00000000000E+00 0.  1.
          1   -1    0    0  501    0  0.00000000000E+00 -0.00000000000E+00 -0.24606496870E+03  0.24606496870E+03  0.00000000000E+00 0. -1.
          5    1    1    2  502    0  0.54758639830E+01 -0.38719108142E+02  0.38935178984E+01  0.39519442093E+02  0.41800000000E+01 0.  1.
         -5    1    1    2    0  502  0.94588593863E+00  0.29345294978E+02 -0.15061726308E+03  0.15350919639E+03  0.41800000000E+01 0.  1.
        -11    1    1    2    0    0 -0.28105575390E+02  0.39036862996E+02 -0.78464783690E+01  0.48737739621E+02  0.00000000000E+00 0. -1.
         11    1    1    2    0    0  0.21683825468E+02 -0.29663049832E+02 -0.40849805993E+02  0.54943529755E+02  0.00000000000E+00 0.  1.
</event>
<event>
 7    1  0.2522928E-009  0.1021737E+03  0.7561462E-02  0.1275790E+00
          2   -1    0    0  501    0  0.00000000000E+00  0.00000000000E+00  0.32747008798E+03  0.32747008798E+03  0.00000000000E+00 0. -1.
         -2   -1    0    0    0  501 -0.00000000000E+00 -0.00000000000E+00 -0.74452099283E+02  0.74452099283E+02  0.00000000000E+00 0.  1.
         25    2    1    2    0    0  0.42087940087E+01  0.40087033102E+02  0.37069420330E+00  0.13142489829E+03  0.12509069632E+03 0.  0.
          5    1    3    3  502    0 -0.47972844752E+02  0.55481351215E+02  0.14895373668E+02  0.74959447189E+02  0.41800000000E+01 0. -1.
         -5    1    3    3    0  502  0.52181638761E+02 -0.15394318112E+02 -0.14524679465E+02  0.56465451096E+02  0.41800000000E+01 0. -1.
        -11    1    1    2    0    0 -0.34328080354E+02 -0.26019942397E+02  0.21900850152E+03  0.22320434190E+03  0.00000000000E+00 0. -1.
         11    1    1    2    0    0  0.30119286345E+02 -0.14067090706E+02  0.33638792970E+02  0.47292947078E+02  0.00000000000E+00 0.  1.
</event>
<event>
 6    1  0.2522928E-009  0.1090680E+03  0.7561462E-02  0.1262306E+00
          1   -1    0    0  501    0  0.00000000000E+00  0.00000000000E+00  0.86779812957E+01  0.86779812957E+01  0.00000000000E+00 0. -1.
         -1   -1    0    0    0  501 -0.00000000000E+00 -0.00000000000E+00 -0.15607322365E+04  0.15607322365E+04  0.00000000000E+00 0.  1.
          5    1    1    2  502    0  0.10422441117E+02 -0.52875132582E+02 -0.56196190541E+03  0.56455563274E+03  0.41800000000E+01 0.  1.
         -5    1    1    2    0  502 -0.46877394954E+02  0.57337579970E+02 -0.53689287026E+03  0.54199309477E+03  0.41800000000E+01 0.  1.
        -11    1    1    2    0    0  0.63034695745E+02 -0.55707497497E+00 -0.37281003794E+03  0.37810184817E+03  0.00000000000E+00 0. -1.
         11    1    1    2    0    0 -0.26579741909E+02 -0.39053724127E+01 -0.80389441623E+02  0.84759642154E+02  0.00000000000E+00 0.  1.
</event>
<event>
 7    1  0.2522928E-009  0.1264630E+03  0.7561462E-02  0.1232800E+00
         -2   -1    0    0    0  501 -0.00000000000E+00  0.00000000000E+00  0.96808045270E+02  0.96808045270E+02  0.00000000000E+00 0.  1.
          2   -1    0    0  501    0  0.00000000000E+00 -0.00000000000E+00 -0.23306487550E+03  0.23306487550E+03  0.00000000000E+00 0. -1.
         25    2    1    2    0    0 -0.76954868567E+02 -0.67999094144E+02 -0.50943305718E+02  0.16967107150E+03  0.12508846272E+03 0.  0.
          5    1    3    3  502    0 -0.41035802357E+02 -0.73557381557E+02 -0.84963626824E+02  0.11971180284E+03  0.41800000000E+01 0.  1.
         -5    1    3    3    0  502 -0.35919066210E+02  0.55582874131E+01  0.34020321106E+02  0.49959268655E+02  0.41800000000E+01 0.  1.
        -11    1    1    2    0    0 -0.15030951666E+02 -0.35807973248E+01  0.50697781626E+00  0.15459904397E+02  0.00000000000E+00 0.  1.
         11    1    1    2    0    0  0.91985820233E+02  0.71579891469E+02 -0.85820502331E+02  0.14474194488E+03  0.00000000000E+00 0. -1.
</event>
<event>
 7    1  0.2522928E-009  0.8310455E+02  0.7561462E-02  0.1320465E+00
         -1   -1    0    0    0  501 -0.00000000000E+00  0.00000000000E+00  0.26862626385E+02  0.26862626385E+02  0.00000000000E+00 0.  1.
          1   -1    0    0  501    0  0.00000000000E+00 -0.00000000000E+00 -0.45349114379E+03  0.45349114379E+03  0.00000000000E+00 0. -1.
         25    2    1    2    0    0  0.15552196682E+02 -0.44321571687E+01 -0.26951856065E+03  0.29757232049E+03  0.12509003376E+03 0.  0.
          5    1    3    3  502    0  0.34615001955E+02  0.21154232554E+02 -0.26115981531E+03  0.26432484077E+03  0.41800000000E+01 0.  1.
         -5    1    3    3    0  502 -0.19062805272E+02 -0.25586389723E+02 -0.83587453401E+01  0.33247479718E+02  0.41800000000E+01 0.  1.
        -11    1    1    2    0    0  0.36262519126E+00  0.47413219928E+02 -0.85278695189E+02  0.97573565960E+02  0.00000000000E+00 0. -1.
         11    1    1    2    0    0 -0.15914821874E+02 -0.42981062759E+02 -0.71831261567E+02  0.85207883728E+02  0.00000000000E+00 0.  1.
</event>
<event>
 7    1  0.2522928E-009  0.1814552E+03  0.7561462E-02  0.1166402E+00
         -3   -1    0    0    0  501 -0.00000000000E+00  0.00000000000E+00  0.16331402834E+03  0.16331402834E+03  0.00000000000E+00 0.  1.
          3   -1    0    0  501    0  0.00000000000E+00 -0.00000000000E+00 -0.27806858339E+03  0.27806858339E+03  0.00000000000E+00 0. -1.
         25    2    1    2    0    0 -0.11815170613E+03 -0.10863320502E+03  0.12159473458E+02  0.20385221306E+03  0.12508746172E+03 0.  0.
          5    1    3    3  502    0  0.83025074895E+01 -0.68111495866E+02 -0.89803975253E+01  0.69326960409E+02  0.41800000000E+01 0.  1.
         -5    1    3    3    0  502 -0.12645421362E+03 -0.40521709156E+02  0.21139870984E+02  0.13452525265E+03  0.41800000000E+01 0.  1.
        -11    1    1    2    0    0  0.99459717714E+02  0.82724178071E+02 -0.26361327574E+02  0.13202440940E+03  0.00000000000E+00 0.  1.
         11    1    1    2    0    0  0.18691988414E+02  0.25909026951E+02 -0.10055270093E+03  0.10550598927E+03  0.00000000000E+00 0. -1.
</event>
<event>
 7    1  0.2522928E-009  0.1089891E+03  0.7561462E-02  0.1262453E+00
          1   -1    0    0  501    0  0.00000000000E+00  0.00000000000E+00  0.20855024320E+02  0.20855024320E+02  0.00000000000E+00 0. -1.
         -1   -1    0    0    0  501 -0.00000000000E+00 -0.00000000000E+00 -0.81159989635E+03  0.81159989635E+03  0.00000000000E+00 0.  1.
         25    2    1    2    0    0 -0.29304764635E+02 -0.72106794849E+02 -0.50376992052E+03  0.52486942086E+03  0.12508244095E+03 0.  0.
          5    1    3    3  502    0  0.22540983834E+02 -0.35983418607E+01 -0.12961106909E+02  0.26580193917E+02  0.41800000000E+01 0.  1.
         -5    1    3    3    0  502 -0.51845748469E+02 -0.68508452988E+02 -0.49080881361E+03  0.49828922694E+03  0.41800000000E+01 0.  1.
        -11    1    1    2    0    0  0.39185965446E+02  0.33902538472E+01 -0.77559856255E+02  0.86963009443E+02  0.00000000000E+00 0. -1.
         11    1    1    2    0    0 -0.98812008118E+01  0.68716541002E+02 -0.20941509525E+03  0.22062249037E+03  0.00000000000E+00 0.  1.
</event>
<event>
 7    1  0.2522928E-009  0.9223625E+02  0.7561462E-02  0.1297525E+00
          2   -1    0    0  501    0  0.00000000000E+00  0.00000000000E+00  0.39612474628E+02  0.39612474628E+02  0.00000000000E+00 0. -1.
         -2   -1    0    0    0  501 -0.00000000000E+00 -0.00000000000E+00 -0.35841341135E+03  0.35841341135E+03  0.00000000000E+00 0.  1.
         25    2    1    2    0    0  0.32847087162E+02 -0.36021686541E+02 -0.17688071078E+03  0.22206038544E+03  0.12509011110E+03 0.  0.
          5    1    3    3  502    0 -0.31718236940E+02 -0.15137989465E+01 -0.16098067821E+01  0.32068707796E+02  0.41800000000E+01 0.  1.
         -5    1    3    3    0  502  0.64565324102E+02 -0.34507887594E+02 -0.17527090400E+03  0.18999167764E+03  0.41800000000E+01 0.  1.
        -11    1    1    2    0    0 -0.81338918788E+01  0.50045102931E+02 -0.13832476168E+03  0.14732417391E+03  0.00000000000E+00 0.  1.
         11    1    1    2    0    0 -0.24713195283E+02 -0.14023416390E+02 -0.35954642641E+01  0.28641326639E+02  0.00000000000E+00 0. -1.
</event>
<event>
 7    1  0.2522928E-009  0.1274817E+03  0.7561462E-02  0.1231241E+00
          2   -1    0    0  501    0  0.00000000000E+00  0.00000000000E+00  0.15137284646E+04  0.15137284646E+04  0.00000000000E+00 0. -1.
         -2   -1    0    0    0  501 -0.00000000000E+00 -0.00000000000E+00 -0.12657741011E+02  0.12657741011E+02  0.00000000000E+00 0.  1.
         25    2    1    2    0    0  0.77822631228E+02  0.36004056527E+02  0.86217340930E+03  0.87541015189E+03  0.12508913748E+03 0.  0.
          5    1    3    3  502    0 -0.23570504138E+02  0.39491786423E+01  0.41652794147E+03  0.41723394289E+03  0.41800000000E+01 0.  1.
         -5    1    3    3    0  502  0.10139313537E+03  0.32054877885E+02  0.44564546783E+03  0.45817620900E+03  0.41800000000E+01 0.  1.
        -11    1    1    2    0    0  0.19306798270E+02 -0.16084426707E+02  0.10647026255E+03  0.10939551202E+03  0.00000000000E+00 0.  1.
         11    1    1    2    0    0 -0.97129429497E+02 -0.19919629820E+02  0.53242705175E+03  0.54158054171E+03  0.00000000000E+00 0. -1.
</event>
<event>
 7    1  0.2522928E-009  0.7577192E+02  0.7561462E-02  0.1341497E+00
         -2   -1    0    0    0  501 -0.00000000000E+00  0.00000000000E+00  0.53731118963E+02  0.53731118963E+02  0.00000000000E+00 0.  1.
          2   -1    0    0  501    0  0.00000000000E+00 -0.00000000000E+00 -0.24710311625E+03  0.24710311625E+03  0.00000000000E+00 0. -1.
         25    2    1    2    0    0  0.28505720701E+02  0.25691827804E+02 -0.96665588204E+02  0.16266734848E+03  0.12507511419E+03 0.  0.
          5    1    3    3  502    0  0.11831060826E+02  0.37062747791E+02 -0.12308738608E+03  0.12915726184E+03  0.41800000000E+01 0. -1.
         -5    1    3    3    0  502  0.16674659876E+02 -0.11370919987E+02  0.26421797878E+02  0.33510086637E+02  0.41800000000E+01 0. -1.
        -11    1    1    2    0    0 -0.58314550843E+02 -0.16284998202E+02 -0.37506944858E+02  0.71221899154E+02  0.00000000000E+00 0.  1.
         11    1    1    2    0    0  0.29808830142E+02 -0.94068296023E+01 -0.59199464227E+02  0.66944987582E+02  0.00000000000E+00 0. -1.
</event>
<event>
 7    1  0.2522928E-009  0.9138961E+02  0.7561462E-02  0.1299521E+00
         -2   -1    0    0    0  501 -0.00000000000E+00  0.00000000000E+00  0.12097206422E+03  0.12097206422E+03  0.00000000000E+00 0.  1.
          2   -1    0    0  501    0  0.00000000000E+00 -0.00000000000E+00 -0.13728415341E+03  0.13728415341E+03  0.00000000000E+00 0. -1.
         25    2    1    2    0    0 -0.29993619857E+02 -0.57428231477E+02  0.23274990964E+02  0.14278077517E+03  0.12508799124E+03 0.  0.
          5    1    3    3  502    0 -0.76869712776E+01  0.26712116772E+02 -0.29622120433E+02  0.40835880409E+02  0.41800000000E+01 0. -1.
         -5    1    3    3    0  502 -0.22306648580E+02 -0.84140348249E+02  0.52897111397E+02  0.10194489476E+03  0.41800000000E+01 0. -1.
        -11    1    1    2    0    0 -0.19393871384E+01  0.11023310064E+02  0.26423823233E+02  0.28696568113E+02  0.00000000000E+00 0.  1.
         11    1    1    2    0    0  0.31933006996E+02  0.46404921413E+02 -0.66010903382E+02  0.86778874344E+02  0.00000000000E+00 0. -1.
</event>
<event>
 7    1  0.2522928E-009  0.7933666E+02  0.7561462E-02  0.1330944E+00
          2   -1    0    0  501    0  0.00000000000E+00  0.00000000000E+00  0.46564898890E+03  0.46564898890E+03  0.00000000000E+00 0. -1.
         -2   -1    0    0    0  501 -0.00000000000E+00 -0.00000000000E+00 -0.62205355041E+02  0.62205355041E+02  0.00000000000E+00 0.  1.
         25    2    1    2    0    0 -0.35901793211E+02  0.76267511704E+01  0.19485683779E+02  0.13181231363E+03  0.12509071933E+03 0.  0.
          5    1    3    3  502    0  0.12268938455E+02  0.15838796416E+02  0.63003661308E+02  0.66244456831E+02  0.41800000000E+01 0.  1.
         -5    1    3    3    0  502 -0.48170731666E+02 -0.82120452457E+01 -0.43517977528E+02  0.65567856794E+02  0.41800000000E+01 0.  1.
        -11    1    1    2    0    0  0.62363965179E+02 -0.59665237305E+01  0.33032164101E+03  0.33621012787E+03  0.00000000000E+00 0. -1.
         11    1    1    2    0    0 -0.26462171968E+02 -0.16602274399E+01  0.53636309064E+02  0.59831902447E+02  0.00000000000E+00 0.  1.
</event>
<event>
 7    1  0.2522928E-009  0.7077769E+02  0.7561462E-02  0.1357468E+00
         -1   -1    0    0    0  501 -0.00000000000E+00  0.00000000000E+00  0.10836546694E+03  0.10836546694E+03  0.00000000000E+00 0.  1.
          1   -1    0    0  501    0  0.00000000000E+00 -0.00000000000E+00 -0.15154922125E+03  0.15154922125E+03  0.00000000000E+00 0. -1.
         25    2    1    2    0    0  0.18955470743E+02 -0.64799107738E+01 -0.90485204113E+02  0.15568426776E+03  0.12509484381E+03 0.  0.
          5    1    3    3  502    0 -0.10106424576E+02  0.10203889589E+02 -0.11371594482E+03  0.11469545626E+03  0.41800000000E+01 0. -1.
         -5    1    3    3    0  502  0.29061895319E+02 -0.16683800363E+02  0.23230740707E+02  0.40988811496E+02  0.41800000000E+01 0. -1.
        -11    1    1    2    0    0 -0.18711602858E+00 -0.41400136300E+02  0.22824904994E+02  0.47275602440E+02  0.00000000000E+00 0. -1.
         11    1    1    2    0    0 -0.18768354714E+02  0.47880047074E+02  0.24476544813E+02  0.56954817992E+02  0.00000000000E+00 0.  1.
</event>
<event>
 7    1  0.2522928E-009  0.1343243E+03  0.7561462E-02  0.1221177E+00
         -1   -1    0    0    0  501 -0.00000000000E+00  0.00000000000E+00  0.28390350510E+03  0.28390350510E+03  0.00000000000E+00 0.  1.
          1   -1    0    0  501    0  0.00000000000E+00 -0.00000000000E+00 -0.96295959428E+02  0.96295959428E+02  0.00000000000E+00 0. -1.
         25    2    1    2    0    0  0.19778904330E+02  0.10281942997E+03  0.23690345351E+02  0.16483836584E+03  0.12508962448E+03 0.  0.
          5    1    3    3  502    0 -0.28544171772E+01  0.12849875046E+03  0.17106569675E+02  0.12973119784E+03  0.41800000000E+01 0.  1.
         -5    1    3    3    0  502  0.22633321508E+02 -0.25679320481E+02  0.65837756768E+01  0.35107168000E+02  0.41800000000E+01 0.  1.
        -11    1    1    2    0    0 -0.10236415307E+00 -0.33706246504E+02  0.13287461208E+03  0.13708312831E+03  0.00000000000E+00 0. -1.
         11    1    1    2    0    0 -0.19676540177E+02 -0.69113183470E+02  0.31042588243E+02  0.78277970384E+02  0.00000000000E+00 0.  1.
</event>
<event>
 7    1  0.2522928E-009  0.1172335E+03  0.7561462E-02  0.1247732E+00
         -1   -1    0    0    0  501 -0.00000000000E+00  0.00000000000E+00  0.25591572966E+02  0.25591572966E+02  0.00000000000E+00 0.  1.
          1   -1    0    0  501    0  0.00000000000E+00 -0.00000000000E+00 -0.59285562766E+03  0.59285562766E+03  0.00000000000E+00 0. -1.
         25    2    1    2    0    0  0.34756104176E+02  0.43156071964E+02 -0.34738774041E+03  0.37335849513E+03  0.12509152800E+03 0.  0.
          5    1    3    3  502    0  0.20894066306E+02  0.86528707044E+02 -0.19800252055E+03  0.21713187166E+03  0.41800000000E+01 0. -1.
         -5    1    3    3    0  502  0.13862037870E+02 -0.43372635080E+02 -0.14938521986E+03  0.15622662347E+03  0.41800000000E+01 0. -1.
        -11    1    1    2    0    0  0.21998127718E+02  0.78148844836E+01 -0.18622454012E+02  0.29862783460E+02  0.00000000000E+00 0.  1.
         11    1    1    2    0    0 -0.56754231894E+02 -0.50970956448E+02 -0.20125386027E+03  0.21522592203E+03  0.00000000000E+00 0. -1.
</event>
<event>
 7    1  0.2522928E-009  0.1058935E+03  0.7561462E-02  0.1268369E+00
         -2   -1    0    0    0  501 -0.00000000000E+00  0.00000000000E+00  0.26592621651E+03  0.26592621651E+03  0.00000000000E+00 0. -1.
          2   -1    0    0  501    0  0.00000000000E+00 -0.00000000000E+00 -0.57524904287E+02  0.57524904287E+02  0.00000000000E+00 0.  1.
         25    2    1    2    0    0  0.36181587336E+02  0.41658949191E+02  0.85940050167E+02  0.16148531219E+03  0.12508892245E+03 0.  0.
          5    1    3    3  502    0 -0.26966599184E+02 -0.30086021092E+02  0.19857969894E+02  0.45212581269E+02  0.41800000000E+01 0.  1.
         -5    1    3    3    0  502  0.63148186520E+02  0.71744970283E+02  0.66082080273E+02  0.11627273092E+03  0.41800000000E+01 0.  1.
        -11    1    1    2    0    0 -0.14264336880E+02 -0.50041208111E+02  0.12772464386E+03  0.13791728849E+03  0.00000000000E+00 0. -1.
         11    1    1    2    0    0 -0.21917250456E+02  0.83822589202E+01 -0.52633817995E+01  0.24048520123E+02  0.00000000000E+00 0.  1.
</event>
<event>
 7    1  0.2522928E-009  0.9629175E+02  0.7561462E-02  0.1288293E+00
          3   -1    0    0  501    0  0.00000000000E+00  0.00000000000E+00  0.40773563267E+02  0.40773563267E+02  0.00000000000E+00 0. -1.
         -3   -1    0    0    0  501 -0.00000000000E+00 -0.00000000000E+00 -0.42069493668E+03  0.42069493668E+03  0.00000000000E+00 0.  1.
         25    2    1    2    0    0  0.72255398477E+02 -0.18764208620E+01 -0.24175364268E+03  0.28163277211E+03  0.12509129072E+03 0.  0.
          5    1    3    3  502    0  0.26634811452E+02 -0.15149531177E+02  0.40992275465E+01  0.31196114220E+02  0.41800000000E+01 0.  1.
         -5    1    3    3    0  502  0.45620587026E+02  0.13273110315E+02 -0.24585287022E+03  0.25043665789E+03  0.41800000000E+01 0.  1.
        -11    1    1    2    0    0 -0.72943999537E+02 -0.32302383676E+02 -0.84535447220E+02  0.11623473188E+03  0.00000000000E+00 0. -1.
         11    1    1    2    0    0  0.68860105950E+00  0.34178804538E+02 -0.53632283517E+02  0.63600995953E+02  0.00000000000E+00 0.  1.
</event>
<event>
 7    1  0.2522928E-009  0.7876131E+02  0.7561462E-02  0.1332604E+00
          1   -1    0    0  501    0  0.00000000000E+00  0.00000000000E+00  0.50209441408E+02  0.50209441408E+02  0.00000000000E+00 0. -1.
         -1   -1    0    0    0  501 -0.00000000000E+00 -0.00000000000E+00 -0.25085374828E+03  0.25085374828E+03  0.00000000000E+00 0.  1.
         25    2    1    2    0    0  0.29528522158E+02 -0.23565570418E+01 -0.11389147751E+03  0.17174374480E+03  0.12508860159E+03 0.  0.
          5    1    3    3  502    0  0.17423400204E+02  0.34925265736E+02  0.11010899223E+02  0.40768386810E+02  0.41800000000E+01 0.  1.
         -5    1    3    3    0  502  0.12105121955E+02 -0.37281822777E+02 -0.12490237674E+03  0.13097535800E+03  0.41800000000E+01 0.  1.
        -11    1    1    2    0    0  0.18443656213E+02  0.20486362552E+02 -0.70219811009E+02  0.75436604929E+02  0.00000000000E+00 0.  1.
         11    1    1    2    0    0 -0.47972178371E+02 -0.18129805510E+02 -0.16533018344E+02  0.53882839950E+02  0.00000000000E+00 0. -1.
</event>
<event>
 7    1  0.2971596E-009  0.1538610E+03  0.7561462E-02  0.1195807E+00
          1   -1    0    0  501    0  0.00000000000E+00  0.00000000000E+00  0.15678089604E+03  0.15678089604E+03  0.00000000000E+00 0. -1.
         -1   -1    0    0    0  501 -0.00000000000E+00 -0.00000000000E+00 -0.23316975866E+03  0.23316975866E+03  0.00000000000E+00 0.  1.
         25    2    1    2    0    0 -0.10231866621E+03 -0.89126457044E+02  0.40482576202E+02  0.18894158551E+03  0.12508976360E+03 0.  0.
          5    1    3    3  502    0  0.14629266857E+02 -0.44011553217E+02 -0.18799527921E+02  0.50218790462E+02  0.41800000000E+01 0. -1.
         -5    1    3    3    0  502 -0.11694793307E+03 -0.45114903826E+02  0.59282104123E+02  0.13872279505E+03  0.41800000000E+01 0. -1.
        -11    1    1    2    0    0  0.30170975856E+02  0.24218122555E+02  0.11240754042E+02  0.40288457349E+02  0.00000000000E+00 0. -1.
         11    1    1    2    0    0  0.72147690358E+02  0.64908334489E+02 -0.12811219286E+03  0.16072061184E+03  0.00000000000E+00 0.  1.
</event>
<event>
 7    1  0.2522928E-009  0.1298045E+03  0.7561462E-02  0.1227746E+00
         -2   -1    0    0    0  501 -0.00000000000E+00  0.00000000000E+00  0.30849588006E+02  0.30849588006E+02  0.00000000000E+00 0.  1.
          2   -1    0    0  501    0  0.00000000000E+00 -0.00000000000E+00 -0.88673654244E+03  0.88673654244E+03  0.00000000000E+00 0. -1.
         25    2    1    2    0    0 -0.10641585259E+03 -0.16430935087E+01 -0.27425370644E+03  0.31967210342E+03  0.12509246488E+03 0.  0.
          5    1    3    3  502    0 -0.99238741848E+02  0.17772088529E+02 -0.93102730642E+02  0.13729444951E+03  0.41800000000E+01 0.  1.
         -5    1    3    3    0  502 -0.71771107449E+01 -0.19415182038E+02 -0.18115097580E+03  0.18237765391E+03  0.41800000000E+01 0.  1.
        -11    1    1    2    0    0 -0.14324901356E+02 -0.80968485772E+01 -0.49331057702E+02  0.52003028852E+02  0.00000000000E+00 0.  1.
         11    1    1    2    0    0  0.12074075395E+03  0.97399420859E+01 -0.53230219029E+03  0.54591099817E+03  0.00000000000E+00 0. -1.
</event>
<event>
 7    1  0.2522928E-009  0.9768813E+02  0.7561462E-02  0.1285234E+00
          2   -1    0    0  501    0  0.00000000000E+00  0.00000000000E+00  0.21621287073E+02  0.21621287073E+02  0.00000000000E+00 0. -1.
         -2   -1    0    0    0  501 -0.00000000000E+00 -0.00000000000E+00 -0.61039328251E+03  0.61039328251E+03  0.00000000000E+00 0.  1.
         25    2    1    2    0    0  0.40259965035E+01  0.30379625876E+02 -0.39980563305E+03  0.42003737462E+03  0.12509085313E+03 0.  0.
          5    1    3    3  502    0  0.22352705990E+01  0.78284222897E+02 -0.20820168607E+03  0.22248332628E+03  0.41800000000E+01 0. -1.
         -5    1    3    3    0  502  0.17907259045E+01 -0.47904597021E+02 -0.19160394698E+03  0.19755404834E+03  0.41800000000E+01 0. -1.
        -11    1    1    2    0    0  0.92650085503E+01 -0.46797214070E+02 -0.18426089611E+03  0.19033627469E+03  0.00000000000E+00 0.  1.
         11    1    1    2    0    0 -0.13291005054E+02  0.16417588194E+02 -0.47054662693E+01  0.21640920273E+02  0.00000000000E+00 0. -1.
</event>
<event>
 7    1  0.2522928E-009  0.2652161E+03  0.7561462E-02  0.1104049E+00
         -3   -1    0    0    0  501 -0.00000000000E+00  0.00000000000E+00  0.29761257192E+03  0.29761257192E+03  0.00000000000E+00 0.  1.
          3   -1    0    0  501    0  0.00000000000E+00 -0.00000000000E+00 -0.49197726899E+03  0.49197726899E+03  0.00000000000E+00 0. -1.
         25    2    1    2    0    0 -0.16348738524E+03  0.18978156003E+03 -0.37467250949E+03  0.46773137734E+03  0.12509191148E+03 0.  0.
          5    1    3    3  502    0 -0.13468903177E+03  0.94178458535E+02 -0.30308482355E+03  0.34480226217E+03  0.41800000000E+01 0. -1.
         -5    1    3    3    0  502 -0.28798353471E+02  0.95603101493E+02 -0.71587685944E+02  0.12292911517E+03  0.41800000000E+01 0. -1.
        -11    1    1    2    0    0  0.76998758350E+02 -0.15462295039E+03  0.12649700359E+03  0.21409941031E+03  0.00000000000E+00 0.  1.
         11    1    1    2    0    0  0.86488626892E+02 -0.35158609635E+02  0.53810808837E+02  0.10775905327E+03  0.00000000000E+00 0. -1.
</event>
<event>
 7    1  0.2522928E-009  0.3665125E+03  0.7561462E-02  0.1056035E+00
          2   -1    0    0  501    0  0.00000000000E+00  0.00000000000E+00  0.21742675752E+04  0.21742675752E+04  0.00000000000E+00 0. -1.
         -2   -1    0    0    0  501 -0.00000000000E+00 -0.00000000000E+00 -0.11482769454E+03  0.11482769454E+03  0.00000000000E+00 0.  1.
         25    2    1    2    0    0 -0.31227078806E+02 -0.35406527335E+03  0.27273738416E+03  0.46516176929E+03  0.12510972242E+03 0.  0.
          5    1    3    3  502    0  0.30813379815E+02 -0.62339206585E+02  0.15698643230E+02  0.71411209572E+02  0.41800000000E+01 0.  1.
         -5    1    3    3    0  502 -0.62040458621E+02 -0.29172606677E+03  0.25703874093E+03  0.39375055972E+03  0.41800000000E+01 0.  1.
        -11    1    1    2    0    0  0.39921634084E+02  0.67772354571E+02  0.31997244461E+03  0.32949839790E+03  0.00000000000E+00 0.  1.
         11    1    1    2    0    0 -0.86945552780E+01  0.28629291878E+03  0.14667300518E+04  0.14944351025E+04  0.00000000000E+00 0. -1.
</event>
<event>
 7    1  0.2522928E-009  0.1392135E+03  0.7561462E-02  0.1214391E+00
          1   -1    0    0  501    0  0.00000000000E+00  0.00000000000E+00  0.25430488908E+03  0.25430488908E+03  0.00000000000E+00 0. -1.
         -1   -1    0    0    0  501 -0.00000000000E+00 -0.00000000000E+00 -0.10263364689E+03  0.10263364689E+03  0.00000000000E+00 0.  1.
         25    2    1    2    0    0 -0.56695437924E+02  0.10478331478E+03  0.63606614121E+02  0.18408460792E+03  0.12508967094E+03 0.  0.
          5    1    3    3  502    0  0.13134215194E+02  0.73486082122E+02  0.75816349422E+02  0.10648146841E+03  0.41800000000E+01 0. -1.
         -5    1    3    3    0  502 -0.69829653118E+02  0.31297232659E+02 -0.12209735301E+02  0.77603139517E+02  0.41800000000E+01 0. -1.
        -11    1    1    2    0    0  0.26782267972E+02 -0.11655050852E+02 -0.13208833304E+02  0.32056253139E+02  0.00000000000E+00 0.  1.
         11    1    1    2    0    0  0.29913169952E+02 -0.93128263929E+02  0.10127346138E+03  0.14079767490E+03  0.00000000000E+00 0. -1.
</event>
<event>
 7    1  0.2522928E-009  0.9956984E+02  0.7561462E-02  0.1281203E+00
          1   -1    0    0  501    0  0.00000000000E+00  0.00000000000E+00  0.14139952763E+03  0.14139952763E+03  0.00000000000E+00 0. -1.
         -1   -1    0    0    0  501 -0.00000000000E+00 -0.00000000000E+00 -0.18423227854E+03  0.18423227854E+03  0.00000000000E+00 0.  1.
         25    2    1    2    0    0 -0.85819937767E+02 -0.43472736181E+01  0.58178740871E+02  0.16252884927E+03  0.12508757113E+03 0.  0.
          5    1    3    3  502    0 -0.84026580820E+02  0.21299509733E+02  0.87548118031E+02  0.12327319567E+03  0.41800000000E+01 0.  1.
         -5    1    3    3    0  502 -0.17933569467E+01 -0.25646783351E+02 -0.29369377160E+02  0.39255653607E+02  0.41800000000E+01 0.  1.
        -11    1    1    2    0    0  0.41134308493E+02  0.61198742373E+01 -0.10990187907E+03  0.11750705179E+03  0.00000000000E+00 0.  1.
         11    1    1    2    0    0  0.44685629274E+02 -0.17726006192E+01  0.88903872975E+01  0.45595905111E+02  0.00000000000E+00 0. -1.
</event>
<event>
 7    1  0.3111353E-009  0.9633940E+02  0.7561462E-02  0.1288188E+00
         -1   -1    0    0    0  501 -0.00000000000E+00  0.00000000000E+00  0.34974930407E+02  0.34974930407E+02  0.00000000000E+00 0.  1.
          1   -1    0    0  501    0  0.00000000000E+00 -0.00000000000E+00 -0.92983433901E+03  0.92983433901E+03  0.00000000000E+00 0. -1.
         25    2    1    2    0    0  0.37952747994E+02 -0.84102334549E+02 -0.76508105812E+03  0.78071183382E+03  0.12509327804E+03 0.  0.
          5    1    3    3  502    0  0.30720542607E+02 -0.50782986105E+02 -0.11282959159E+03  0.12755646810E+03  0.41800000000E+01 0.  1.
         -5    1    3    3    0  502  0.72322053870E+01 -0.33319348444E+02 -0.65225146653E+03  0.65315536572E+03  0.41800000000E+01 0.  1.
        -11    1    1    2    0    0 -0.30991946628E+02  0.26409660582E+02 -0.11796911565E+03  0.12479857041E+03  0.00000000000E+00 0. -1.
         11    1    1    2    0    0 -0.69608013660E+01  0.57692673967E+02 -0.11809234823E+02  0.59298865185E+02  0.00000000000E+00 0.  1.
</event>
<event>
 7    1  0.2522928E-009  0.1847650E+03  0.7561462E-02  0.1163270E+00
          2   -1    0    0  501    0  0.00000000000E+00  0.00000000000E+00  0.30256142108E+03  0.30256142108E+03  0.00000000000E+00 0. -1.
         -2   -1    0    0    0  501 -0.00000000000E+00 -0.00000000000E+00 -0.23207769187E+03  0.23207769187E+03  0.00000000000E+00 0.  1.
         25    2    1    2    0    0  0.39461530755E+02 -0.15324290734E+03  0.22076998490E+03  0.29904718834E+03  0.12509689669E+03 0.  0.
          5    1    3    3  502    0 -0.39159129313E+02 -0.86048149430E+02  0.13362353981E+03  0.16373895145E+03  0.41800000000E+01 0.  1.
         -5    1    3    3    0  502  0.78620660068E+02 -0.67194757912E+02  0.87146445090E+02  0.13530823690E+03  0.41800000000E+01 0.  1.
        -11    1    1    2    0    0  0.18505249335E+02  0.43679668178E+02 -0.10166799106E+02  0.48515167413E+02  0.00000000000E+00 0. -1.
         11    1    1    2    0    0 -0.57966780089E+02  0.10956323916E+03 -0.14011945658E+03  0.18707675720E+03  0.00000000000E+00 0.  1.
</event>
<event>
 7    1  0.2522928E-009  0.1161296E+03  0.7561462E-02  0.1249622E+00
          1   -1    0    0  501    0  0.00000000000E+00  0.00000000000E+00  0.33741170091E+03  0.33741170091E+03  0.00000000000E+00 0. -1.
         -1   -1    0    0    0  501 -0.00000000000E+00 -0.00000000000E+00 -0.57817207972E+02  0.57817207972E+02  0.00000000000E+00 0.  1.
         25    2    1    2    0    0 -0.35901327372E+02 -0.43823246312E+02  0.25388809692E+03  0.28864702680E+03  0.12509419691E+03 0.  0.
          5    1    3    3  502    0 -0.64060996715E+02 -0.67218702273E+02  0.13295075229E+03  0.16222065273E+03  0.41800000000E+01 0. -1.
         -5    1    3    3    0  502  0.28159669344E+02  0.23395455960E+02  0.12093734462E+03  0.12642637407E+03  0.41800000000E+01 0. -1.
        -11    1    1    2    0    0 -0.19666359723E+02  0.42554539013E+02  0.45114751254E+01  0.47095731263E+02  0.00000000000E+00 0.  1.
         11    1    1    2    0    0  0.55567687095E+02  0.12687072998E+01  0.21194920894E+02  0.59486150817E+02  0.00000000000E+00 0. -1.
</event>
<event>
 7    1  0.3013054E-009  0.1966440E+03  0.7561462E-02  0.1152602E+00
         -2   -1    0    0    0  501 -0.00000000000E+00  0.00000000000E+00  0.41275034735E+02  0.41275034735E+02  0.00000000000E+00 0.  1.
          2   -1    0    0  501    0  0.00000000000E+00 -0.00000000000E+00 -0.11293491323E+04  0.11293491323E+04  0.00000000000E+00 0. -1.
         25    2    1    2    0    0 -0.14816334167E+03  0.11307751044E+03 -0.56166876890E+03  0.60486204872E+03  0.12508953933E+03 0.  0.
          5    1    3    3  502    0 -0.30487944223E+02 -0.13662137861E+02 -0.27799159690E+02  0.43662735065E+02  0.41800000000E+01 0.  1.
         -5    1    3    3    0  502 -0.11767539745E+03  0.12673964830E+03 -0.53386960921E+03  0.56119931366E+03  0.41800000000E+01 0.  1.
        -11    1    1    2    0    0  0.10272820456E+03 -0.83775528542E+02 -0.23884520069E+03  0.27316378437E+03  0.00000000000E+00 0.  1.
         11    1    1    2    0    0  0.45435137107E+02 -0.29301981898E+02 -0.28756012794E+03  0.29259833392E+03  0.00000000000E+00 0. -1.
</event>
<event>
 7    1  0.2522928E-009  0.1216579E+03  0.7561462E-02  0.1240387E+00
          1   -1    0    0  501    0  0.00000000000E+00  0.00000000000E+00  0.47293435284E+02  0.47293435284E+02  0.00000000000E+00 0. -1.
         -1   -1    0    0    0  501 -0.00000000000E+00 -0.00000000000E+00 -0.33940625262E+03  0.33940625262E+03  0.00000000000E+00 0.  1.
         25    2    1    2    0    0 -0.59531510063E+02 -0.24159885167E+02 -0.18376514264E+03  0.23139771539E+03  0.12509026460E+03 0.  0.
          5    1    3    3  502    0 -0.74169162344E+02 -0.61444909948E+02 -0.15248419792E+03  0.18040356043E+03  0.41800000000E+01 0.  1.
         -5    1    3    3    0  502  0.14637652281E+02  0.37285024781E+02 -0.31280944719E+02  0.50994154957E+02  0.41800000000E+01 0.  1.
        -11    1    1    2    0    0 -0.87344047320E+00 -0.27282102244E+02 -0.49470473061E+02  0.56501360214E+02  0.00000000000E+00 0.  1.
         11    1    1    2    0    0  0.60404950536E+02  0.51441987411E+02 -0.58877201631E+02  0.98800612295E+02  0.00000000000E+00 0. -1.
</event>
<event>
 7    1  0.2522928E-009  0.1335949E+03  0.7561462E-02  0.1222217E+00
         -2   -1    0    0    0  501 -0.00000000000E+00  0.00000000000E+00  0.33964152691E+02  0.33964152691E+02  0.00000000000E+00 0.  1.
          2   -1    0    0  501    0  0.00000000000E+00 -0.00000000000E+00 -0.93081742231E+03  0.93081742231E+03  0.00000000000E+00 0. -1.
         25    2    1    2    0    0  0.21711918564E+01  0.79831997645E+02 -0.79133174360E+03  0.80512767283E+03  0.12508708653E+03 0.  0.
          5    1    3    3  502    0 -0.21014113289E+02 -0.29384578715E+02 -0.17269367025E+03  0.17648122440E+03  0.41800000000E+01 0. -1.
         -5    1    3    3    0  502  0.23185305145E+02  0.10921657636E+03 -0.61863807335E+03  0.62864644843E+03  0.41800000000E+01 0. -1.
        -11    1    1    2    0    0  0.24014903741E+02  0.96339484104E+01 -0.16075086876E+02  0.30462058068E+02  0.00000000000E+00 0. -1.
         11    1    1    2    0    0 -0.26186095597E+02 -0.89465946055E+02 -0.89446439150E+02  0.12919184410E+03  0.00000000000E+00 0.  1.
</event>
<event>
 7    1  0.2522928E-009  0.1499933E+03  0.7561462E-02  0.1200481E+00
         -2   -1    0    0    0  501 -0.00000000000E+00  0.00000000000E+00  0.27804314171E+02  0.27804314171E+02  0.00000000000E+00 0. -1.
          2   -1    0    0  501    0  0.00000000000E+00 -0.00000000000E+00 -0.93419698382E+03  0.93419698382E+03  0.00000000000E+00 0.  1.
         25    2    1    2    0    0 -0.64870878306E+02  0.87636985677E+02 -0.63086185080E+03  0.65232131101E+03  0.12509174989E+03 0.  0.
          5    1    3    3  502    0  0.37398110547E+02  0.17442653119E+02 -0.14025998428E+03  0.14626414602E+03  0.41800000000E+01 0. -1.
         -5    1    3    3    0  502 -0.10226898885E+03  0.70194332559E+02 -0.49060186652E+03  0.50605716499E+03  0.41800000000E+01 0. -1.
        -11    1    1    2    0    0 -0.60661119501E+01 -0.56674570939E+02 -0.16637527543E+03  0.17586795325E+03  0.00000000000E+00 0. -1.
         11    1    1    2    0    0  0.70936990256E+02 -0.30962414739E+02 -0.10915554341E+03  0.13381203373E+03  0.00000000000E+00 0.  1.
</event>
<event>
 7    1  0.2522928E-009  0.2010449E+03  0.7561462E-02  0.1148860E+00
         -2   -1    0    0    0  501 -0.00000000000E+00  0.00000000000E+00  0.25996585728E+02  0.25996585728E+02  0.00000000000E+00 0.  1.
          2   -1    0    0  501    0  0.00000000000E+00 -0.00000000000E+00 -0.20541567422E+04  0.20541567422E+04  0.00000000000E+00 0. -1.
         25    2    1    2    0    0 -0.10076187926E+02 -0.19161365611E+03 -0.13385474403E+04  0.13580038105E+04  0.12509107336E+03 0.  0.
          5    1    3    3  502    0  0.31941336032E+02 -0.43978604223E+02 -0.15040283082E+03  0.15997765624E+03  0.41800000000E+01 0.  1.
         -5    1    3    3    0  502 -0.42017523958E+02 -0.14763505189E+03 -0.11881446095E+04  0.11980261543E+04  0.41800000000E+01 0.  1.
        -11    1    1    2    0    0  0.19534748198E+02  0.97843812579E+02 -0.50620377484E+03  0.51594309736E+03  0.00000000000E+00 0.  1.
         11    1    1    2    0    0 -0.94585602727E+01  0.93769843533E+02 -0.18340894136E+03  0.20620642010E+03  0.00000000000E+00 0. -1.
</event>
<event>
 7    1  0.2522928E-009  0.1299413E+03  0.7561462E-02  0.1227543E+00
          1   -1    0    0  501    0  0.00000000000E+00  0.00000000000E+00  0.27574130178E+03  0.27574130178E+03  0.00000000000E+00 0. -1.
         -1   -1    0    0    0  501 -0.00000000000E+00 -0.00000000000E+00 -0.10280201787E+03  0.10280201787E+03  0.00000000000E+00 0.  1.
         25    2    1    2    0    0 -0.11466985100E+03  0.56454397469E+02  0.54779599927E+02  0.18704395432E+03  0.12509341532E+03 0.  0.
          5    1    3    3  502    0 -0.73926873195E+02  0.22244684895E+02 -0.33203207598E+02  0.84142343568E+02  0.41800000000E+01 0. -1.
         -5    1    3    3    0  502 -0.40742977806E+02  0.34209712575E+02  0.87982807524E+02  0.10290161075E+03  0.41800000000E+01 0. -1.
        -11    1    1    2    0    0  0.66140828985E+02 -0.22060877981E+02  0.11169213519E+03  0.13166785735E+03  0.00000000000E+00 0. -1.
         11    1    1    2    0    0  0.48529022015E+02 -0.34393519488E+02  0.64675487896E+01  0.59831507986E+02  0.00000000000E+00 0.  1.
</event>
<event>
 7    1  0.2768443E-009  0.1133247E+03  0.7561462E-02  0.1254534E+00
          2   -1    0    0  501    0  0.00000000000E+00  0.00000000000E+00  0.50745488424E+03  0.50745488424E+03  0.00000000000E+00 0.  1.
         -2   -1    0    0    0  501 -0.00000000000E+00 -0.00000000000E+00 -0.38755879815E+02  0.38755879815E+02  0.00000000000E+00 0. -1.
         25    2    1    2    0    0 -0.46147283297E+02  0.74885556916E+02  0.22976101490E+03  0.27599810062E+03  0.12508960464E+03 0.  0.
          5    1    3    3  502    0 -0.60671797911E+02  0.74150726039E+02  0.78361390343E+02  0.12384416470E+03  0.41800000000E+01 0. -1.
         -5    1    3    3    0  502  0.14524514615E+02  0.73483087679E+00  0.15139962455E+03  0.15215393592E+03  0.41800000000E+01 0. -1.
        -11    1    1    2    0    0  0.60564598124E+02 -0.28297168277E+02  0.81580053421E+02  0.10547087463E+03  0.00000000000E+00 0.  1.
         11    1    1    2    0    0 -0.14417314828E+02 -0.46588388639E+02  0.15735793611E+03  0.16474178881E+03  0.00000000000E+00 0. -1.
</event>
<event>
 7    1  0.2522928E-009  0.1176738E+03  0.7561462E-02  0.1246985E+00
         -2   -1    0    0    0  501 -0.00000000000E+00  0.00000000000E+00  0.46286356899E+02  0.46286356899E+02  0.00000000000E+00 0.  1.
          2   -1    0    0  501    0  0.00000000000E+00 -0.00000000000E+00 -0.40746010771E+03  0.40746010771E+03  0.00000000000E+00 0. -1.
         25    2    1    2    0    0 -0.61969368001E+02 -0.14367028673E+02 -0.28349108803E+03  0.31632472219E+03  0.12509004273E+03 0.  0.
          5    1    3    3  502    0 -0.68718975803E+02 -0.58813592269E+02 -0.14792397920E+03  0.17343676742E+03  0.41800000000E+01 0.  1.
         -5    1    3    3    0  502  0.67496078019E+01  0.44446563596E+02 -0.13556710883E+03  0.14288795477E+03  0.41800000000E+01 0.  1.
        -11    1    1    2    0    0  0.12705194710E+02  0.41504846653E+02 -0.67517345954E+02  0.80266221245E+02  0.00000000000E+00 0. -1.
         11    1    1    2    0    0  0.49264173292E+02 -0.27137817980E+02 -0.10165316828E+02  0.57155521177E+02  0.00000000000E+00 0.  1.
</event>
<event>
 7    1  0.2522928E-009  0.5829161E+02  0.7561462E-02  0.1405144E+00
          1   -1    0    0  501    0  0.00000000000E+00  0.00000000000E+00  0.20343024950E+02  0.20343024950E+02  0.00000000000E+00 0. -1.
         -1   -1    0    0    0  501 -0.00000000000E+00 -0.00000000000E+00 -0.60566053651E+03  0.60566053651E+03  0.00000000000E+00 0.  1.
         25    2    1    2    0    0  0.19194593421E+02  0.64228414183E+01 -0.34537282590E+03  0.36788519224E+03  0.12508972975E+03 0.  0.
          5    1    3    3  502    0 -0.68584498024E+01  0.13513079752E+02  0.49636665875E+01  0.16484903520E+02  0.41800000000E+01 0. -1.
         -5    1    3    3    0  502  0.26053043223E+02 -0.70902383337E+01 -0.35033649249E+03  0.35140028872E+03  0.41800000000E+01 0. -1.
        -11    1    1    2    0    0 -0.14503194051E+02 -0.38490425832E+02 -0.21000979167E+03  0.21399992550E+03  0.00000000000E+00 0.  1.
         11    1    1    2    0    0 -0.46913993696E+01  0.32067584413E+02 -0.29934893988E+02  0.44118443720E+02  0.00000000000E+00 0. -1.
</event>
<event>
 7    1  0.2522928E-009  0.3148669E+03  0.7561462E-02  0.1078036E+00
         -2   -1    0    0    0  501 -0.00000000000E+00  0.00000000000E+00  0.62328053394E+03  0.62328053394E+03  0.00000000000E+00 0.  1.
          2   -1    0    0  501    0  0.00000000000E+00 -0.00000000000E+00 -0.25928886935E+03  0.25928886935E+03  0.00000000000E+00 0. -1.
         25    2    1    2    0    0  0.54085051006E+02  0.29185828112E+03  0.45729582702E+03  0.55935141074E+03  0.12509227907E+03 0.  0.
          5    1    3    3  502    0  0.58063353851E+02  0.30308612245E+03  0.44625526219E+03  0.54258066876E+03  0.41800000000E+01 0. -1.
         -5    1    3    3    0  502 -0.39783028450E+01 -0.11227841336E+02  0.11040564837E+02  0.16770741978E+02  0.41800000000E+01 0. -1.
        -11    1    1    2    0    0 -0.59206839978E+02 -0.97574709912E+02 -0.22221906169E+02  0.11627590906E+03  0.00000000000E+00 0.  1.
         11    1    1    2    0    0  0.51217889723E+01 -0.19428357120E+03 -0.71082256268E+02  0.20694208349E+03  0.00000000000E+00 0. -1.
</event>
<event>
 7    1  0.2522928E-009  0.9426712E+02  0.7561462E-02  0.1292835E+00
          2   -1    0    0  501    0  0.00000000000E+00  0.00000000000E+00  0.51119865062E+02  0.51119865062E+02  0.00000000000E+00 0. -1.
         -2   -1    0    0    0  501 -0.00000000000E+00 -0.00000000000E+00 -0.39328940247E+03  0.39328940247E+03  0.00000000000E+00 0.  1.
         25    2    1    2    0    0 -0.82788585390E+02  0.12986967539E+02 -0.22710932397E+03  0.27248677616E+03  0.12509111460E+03 0.  0.
          5    1    3    3  502    0 -0.93345191529E+01 -0.29413556947E+01 -0.18678753851E+03  0.18709046412E+03  0.41800000000E+01 0.  1.
         -5    1    3    3    0  502 -0.73454066237E+02  0.15928323233E+02 -0.40321785460E+02  0.85396312042E+02  0.41800000000E+01 0.  1.
        -11    1    1    2    0    0  0.52648476338E+02 -0.36773015834E+02 -0.11701336371E+03  0.13347750388E+03  0.00000000000E+00 0.  1.
         11    1    1    2    0    0  0.30140109052E+02  0.23786048295E+02  0.19531502780E+01  0.38444987491E+02  0.00000000000E+00 0. -1.
</event>
<event>
 7    1  0.2522928E-009  0.8249275E+02  0.7561462E-02  0.1322123E+00
         -2   -1    0    0    0  501 -0.00000000000E+00  0.00000000000E+00  0.25726896494E+03  0.25726896494E+03  0.00000000000E+00 0.  1.
          2   -1    0    0  501    0  0.00000000000E+00 -0.00000000000E+00 -0.54678730862E+02  0.54678730862E+02  0.00000000000E+00 0. -1.
         25    2    1    2    0    0 -0.45553910939E+02  0.54976720724E+01  0.11825181773E+03  0.17815106873E+03  0.12509567416E+03 0.  0.
          5    1    3    3  502    0 -0.49891832297E+02  0.49439228897E+02  0.24619816021E+02  0.74545556707E+02  0.41800000000E+01 0.  1.
         -5    1    3    3    0  502  0.43379213578E+01 -0.43941556825E+02  0.93632001711E+02  0.10360551203E+03  0.41800000000E+01 0.  1.
        -11    1    1    2    0    0  0.14529643923E+02  0.78291913592E+01  0.96504867121E+02  0.97906057871E+02  0.00000000000E+00 0.  1.
         11    1    1    2    0    0  0.31024267016E+02 -0.13326863432E+02 -0.12166450775E+02  0.35890569197E+02  0.00000000000E+00 0. -1.
</event>
<event>
 7    1  0.2522928E-009  0.1293839E+03  0.7561462E-02  0.1228373E+00
          2   -1    0    0  501    0  0.00000000000E+00  0.00000000000E+00  0.14956434158E+04  0.14956434158E+04  0.00000000000E+00 0.  1.
         -2   -1    0    0    0  501 -0.00000000000E+00 -0.00000000000E+00 -0.26226264673E+02  0.26226264673E+02  0.00000000000E+00 0. -1.
         25    2    1    2    0    0  0.59767694344E+02  0.39364613511E+02  0.13256692837E+04  0.13334798168E+04  0.12509045521E+03 0.  0.
          5    1    3    3  502    0 -0.30158685246E+02 -0.17528526192E+02  0.44748418027E+03  0.44886118067E+03  0.41800000000E+01 0. -1.
         -5    1    3    3    0  502  0.89926379591E+02  0.56893139704E+02  0.87818510339E+03  0.88461863609E+03  0.41800000000E+01 0. -1.
        -11    1    1    2    0    0 -0.57851888636E+02  0.17347467284E+02  0.48242414369E+02  0.77298811013E+02  0.00000000000E+00 0.  1.
         11    1    1    2    0    0 -0.19158057083E+01 -0.56712080795E+02  0.95505453142E+02  0.11109105274E+03  0.00000000000E+00 0. -1.
</event>
<event>
 7    1  0.2522928E-009  0.1153922E+03  0.7561462E-02  0.1250898E+00
          4   -1    0    0  501    0  0.00000000000E+00  0.00000000000E+00  0.73359847930E+03  0.73359847930E+03  0.00000000000E+00 0. -1.
         -4   -1    0    0    0  501 -0.00000000000E+00 -0.00000000000E+00 -0.23142147065E+02  0.23142147065E+02  0.00000000000E+00 0.  1.
         25    2    1    2    0    0  0.34440927989E+02  0.52534619268E+02  0.49958250470E+03  0.51882173803E+03  0.12508898075E+03 0.  0.
          5    1    3    3  502    0 -0.77563496768E+01 -0.31301182979E+02  0.25064941440E+03  0.25274992850E+03  0.41800000000E+01 0. -1.
         -5    1    3    3    0  502  0.42197277666E+02  0.83835802247E+02  0.24893309031E+03  0.26607180954E+03  0.41800000000E+01 0. -1.
        -11    1    1    2    0    0  0.11680222085E+02 -0.56809985896E+02  0.77975774868E+02  0.97180366082E+02  0.00000000000E+00 0.  1.
         11    1    1    2    0    0 -0.46121150074E+02  0.42753666283E+01  0.13289805266E+03  0.14073852225E+03  0.00000000000E+00 0. -1.
</event>
<event>
 7    1  0.2522928E-009  0.1192911E+03  0.7561462E-02  0.1244271E+00
          2   -1    0    0  501    0  0.00000000000E+00  0.00000000000E+00  0.93506997683E+03  0.93506997683E+03  0.00000000000E+00 0. -1.
         -2   -1    0    0    0  501 -0.00000000000E+00 -0.00000000000E+00 -0.22212547650E+02  0.22212547650E+02  0.00000000000E+00 0.  1.
         25    2    1    2    0    0  0.39289908667E+01  0.91846467188E+02  0.49362008164E+03  0.51745467518E+03  0.12508934950E+03 0.  0.
          5    1    3    3  502    0 -0.31213817252E+02  0.58707391459E+01  0.27704748650E+02  0.42353198974E+02  0.41800000000E+01 0. -1.
         -5    1    3    3    0  502  0.35142808118E+02  0.85975728042E+02  0.46591533299E+03  0.47510147621E+03  0.41800000000E+01 0. -1.
        -11    1    1    2    0    0  0.29449669627E+02 -0.24116438480E+02  0.49414541027E+02  0.62375335758E+02  0.00000000000E+00 0.  1.
         11    1    1    2    0    0 -0.33378660494E+02 -0.67730028708E+02  0.36982280651E+03  0.37745251354E+03  0.00000000000E+00 0. -1.
</event>
<event>
 7    1  0.2522928E-009  0.1022397E+03  0.7561462E-02  0.1275655E+00
          2   -1    0    0  501    0  0.00000000000E+00  0.00000000000E+00  0.12195513560E+04  0.12195513560E+04  0.00000000000E+00 0. -1.
         -2   -1    0    0    0  501 -0.00000000000E+00 -0.00000000000E+00 -0.10378221889E+02  0.10378221889E+02  0.00000000000E+00 0.  1.
         25    2    1    2    0    0  0.16828348143E+02  0.30185665545E+02  0.80348351476E+03  0.81389719075E+03  0.12509400832E+03 0.  0.
          5    1    3    3  502    0 -0.44517556485E+02  0.23494536066E+02  0.57421363995E+03  0.57643090025E+03  0.41800000000E+01 0.  1.
         -5    1    3    3    0  502  0.61345904628E+02  0.66911294791E+01  0.22926987481E+03  0.23746629050E+03  0.41800000000E+01 0.  1.
        -11    1    1    2    0    0 -0.84866229860E+01 -0.60287454065E+02  0.26027930413E+03  0.26730491213E+03  0.00000000000E+00 0. -1.
         11    1    1    2    0    0 -0.83417251574E+01  0.30101788520E+02  0.14541031518E+03  0.14872747497E+03  0.00000000000E+00 0.  1.
</event>
<event>
 7    1  0.2652569E-009  0.9735026E+02  0.7561462E-02  0.1285969E+00
          1   -1    0    0  501    0  0.00000000000E+00  0.00000000000E+00  0.88698606989E+02  0.88698606989E+02  0.00000000000E+00 0. -1.
         -1   -1    0    0    0  501 -0.00000000000E+00 -0.00000000000E+00 -0.15931510718E+03  0.15931510718E+03  0.00000000000E+00 0.  1.
         25    2    1    2    0    0 -0.66319621351E+00  0.37865383956E+02 -0.71664386460E+02  0.14904704441E+03  0.12508001450E+03 0.  0.
          5    1    3    3  502    0 -0.26038363545E+02 -0.37371814479E+02 -0.64089005275E+01  0.46186527251E+02  0.41800000000E+01 0.  1.
         -5    1    3    3    0  502  0.25375167332E+02  0.75237198435E+02 -0.65255485933E+02  0.10286051716E+03  0.41800000000E+01 0.  1.
        -11    1    1    2    0    0  0.27700538874E+02 -0.73083760983E+01 -0.34505603765E+02  0.44848287663E+02  0.00000000000E+00 0.  1.
         11    1    1    2    0    0 -0.27037342660E+02 -0.30557007858E+02  0.35553490034E+02  0.54118382099E+02  0.00000000000E+00 0. -1.
</event>
<event>
 7    1  0.2522928E-009  0.1321876E+03  0.7561462E-02  0.1224245E+00
         -2   -1    0    0    0  501 -0.00000000000E+00  0.00000000000E+00  0.17761200094E+02  0.17761200094E+02  0.00000000000E+00 0.  1.
          2   -1    0    0  501    0  0.00000000000E+00 -0.00000000000E+00 -0.13475576317E+04  0.13475576317E+04  0.00000000000E+00 0. -1.
         25    2    1    2    0    0 -0.10155452935E+03  0.15595002727E+02 -0.88922006346E+03  0.90383467829E+03  0.12509307685E+03 0.  0.
          5    1    3    3  502    0 -0.88921202899E+02 -0.37733788629E+02 -0.70471499067E+03  0.71131674351E+03  0.41800000000E+01 0.  1.
         -5    1    3    3    0  502 -0.12633326454E+02  0.53328791356E+02 -0.18450507279E+03  0.19251793478E+03  0.41800000000E+01 0.  1.
        -11    1    1    2    0    0  0.94435983032E+02  0.12426011304E+01 -0.43023937231E+03  0.44048338951E+03  0.00000000000E+00 0. -1.
         11    1    1    2    0    0  0.71185463213E+01 -0.16837603857E+02 -0.10336995833E+02  0.21000763992E+02  0.00000000000E+00 0.  1.
</event>
<event>
 7    1  0.2522928E-009  0.6678020E+02  0.7561462E-02  0.1371398E+00
         -2   -1    0    0    0  501 -0.00000000000E+00  0.00000000000E+00  0.62062960987E+02  0.62062960987E+02  0.00000000000E+00 0.  1.
          2   -1    0    0  501    0  0.00000000000E+00 -0.00000000000E+00 -0.21099078531E+03  0.21099078531E+03  0.00000000000E+00 0. -1.
         25    2    1    2    0    0  0.11105760360E+02  0.91268507120E+01 -0.12635366779E+03  0.17838300081E+03  0.12509439754E+03 0.  0.
          5    1    3    3  502    0  0.26824131938E+02  0.79480698989E+01  0.17726619588E+02  0.33382799633E+02  0.41800000000E+01 0. -1.
         -5    1    3    3    0  502 -0.15718371578E+02  0.11787808131E+01 -0.14408028738E+03  0.14500020118E+03  0.41800000000E+01 0. -1.
        -11    1    1    2    0    0 -0.95540772500E+01  0.39335147179E+02 -0.22233055787E+02  0.46182712841E+02  0.00000000000E+00 0. -1.
         11    1    1    2    0    0 -0.15516831099E+01 -0.48461997891E+02 -0.34110074058E+00  0.48488032645E+02  0.00000000000E+00 0.  1.
</event>
<event>
 6    1  0.2522928E-009  0.1290393E+03  0.7561462E-02  0.1228888E+00
         -2   -1    0    0    0  501 -0.00000000000E+00  0.00000000000E+00  0.96775126203E+02  0.96775126203E+02  0.00000000000E+00 0.  1.
          2   -1    0    0  501    0  0.00000000000E+00 -0.00000000000E+00 -0.21061410052E+03  0.21061410052E+03  0.00000000000E+00 0. -1.
          5    1    1    2  502    0  0.33620125016E+02 -0.12701936639E+02 -0.24083005336E+02  0.43463956866E+02  0.41800000000E+01 0.  1.
         -5    1    1    2    0  502 -0.11396299527E+03 -0.22704666356E+02 -0.67269721036E+02  0.13433448527E+03  0.41800000000E+01 0.  1.
        -11    1    1    2    0    0  0.24582856410E+02  0.42813562277E+02  0.25579014267E+02  0.55602193437E+02  0.00000000000E+00 0.  1.
         11    1    1    2    0    0  0.55760013839E+02 -0.74069592828E+01 -0.48065262216E+02  0.73988591154E+02  0.00000000000E+00 0. -1.
</event>
<event>
 7    1  0.2522928E-009  0.1003294E+03  0.7561462E-02  0.1279605E+00
          2   -1    0    0  501    0  0.00000000000E+00  0.00000000000E+00  0.54099814757E+03  0.54099814757E+03  0.00000000000E+00 0. -1.
         -2   -1    0    0    0  501 -0.00000000000E+00 -0.00000000000E+00 -0.25902342729E+02  0.25902342729E+02  0.00000000000E+00 0.  1.
         25    2    1    2    0    0 -0.58009493668E+01  0.32978875593E+02  0.21796832565E+03  0.25353238290E+03  0.12508885220E+03 0.  0.
          5    1    3    3  502    0  0.28651752726E+02  0.63593944845E+02  0.18189594791E+03  0.19485564149E+03  0.41800000000E+01 0. -1.
         -5    1    3    3    0  502 -0.34452702093E+02 -0.30615069252E+02  0.36072377739E+02  0.58676741410E+02  0.41800000000E+01 0. -1.
        -11    1    1    2    0    0 -0.32048220545E+02 -0.33890827795E+02  0.77134158287E+02  0.90140751181E+02  0.00000000000E+00 0.  1.
         11    1    1    2    0    0  0.37849169912E+02  0.91195220204E+00  0.21999332091E+03  0.22322735622E+03  0.00000000000E+00 0. -1.
</event>
<event>
 7    1  0.2522928E-009  0.1017654E+03  0.7561462E-02  0.1276627E+00
          1   -1    0    0  501    0  0.00000000000E+00  0.00000000000E+00  0.22923952489E+03  0.22923952489E+03  0.00000000000E+00 0. -1.
         -1   -1    0    0    0  501 -0.00000000000E+00 -0.00000000000E+00 -0.73722005333E+02  0.73722005333E+02  0.00000000000E+00 0.  1.
         25    2    1    2    0    0 -0.46933487372E+02 -0.84713288418E+01  0.23384565946E+02  0.13589759634E+03  0.12508718206E+03 0.  0.
          5    1    3    3  502    0  0.12527561019E+02  0.29747944636E+02 -0.32271334949E+02  0.45834391613E+02  0.41800000000E+01 0. -1.
         -5    1    3    3    0  502 -0.59461048391E+02 -0.38219273477E+02  0.55655900894E+02  0.90063204724E+02  0.41800000000E+01 0. -1.
        -11    1    1    2    0    0 -0.17544771558E+02  0.27789921966E+02  0.28559203135E+02  0.43539945516E+02  0.00000000000E+00 0. -1.
         11    1    1    2    0    0  0.64478258929E+02 -0.19318593124E+02  0.10357375048E+03  0.12352398837E+03  0.00000000000E+00 0.  1.
</event>
<event>
 7    1  0.2522928E-009  0.1077909E+03  0.7561462E-02  0.1264716E+00
          2   -1    0    0  501    0  0.00000000000E+00  0.00000000000E+00  0.42315780173E+03  0.42315780173E+03  0.00000000000E+00 0. -1.
         -2   -1    0    0    0  501 -0.00000000000E+00 -0.00000000000E+00 -0.39444261542E+02  0.39444261542E+02  0.00000000000E+00 0.  1.
         25    2    1    2    0    0 -0.33717960081E+02  0.56283529948E+02  0.19311413066E+03  0.23925626228E+03  0.12508299247E+03 0.  0.
          5    1    3    3  502    0 -0.56812879837E+02  0.23812257511E+02  0.18917713190E+03  0.19899795616E+03  0.41800000000E+01 0.  1.
         -5    1    3    3    0  502  0.23094919757E+02  0.32471272437E+02  0.39369987603E+01  0.40258306118E+02  0.41800000000E+01 0.  1.
        -11    1    1    2    0    0  0.29194095537E+02 -0.82321821583E+02  0.12382450070E+03  0.15153113376E+03  0.00000000000E+00 0. -1.
         11    1    1    2    0    0  0.45238645439E+01  0.26038291635E+02  0.66774908827E+02  0.71814667238E+02  0.00000000000E+00 0.  1.
</event>
<event>
 7    1  0.2522928E-009  0.8295176E+02  0.7561462E-02  0.1320877E+00
          3   -1    0    0  501    0  0.00000000000E+00  0.00000000000E+00  0.20193222172E+03  0.20193222172E+03  0.00000000000E+00 0. -1.
         -3   -1    0    0    0  501 -0.00000000000E+00 -0.00000000000E+00 -0.76283609980E+02  0.76283609980E+02  0.00000000000E+00 0.  1.
         25    2    1    2    0    0  0.48030750806E+02 -0.35984979189E+02  0.72488291366E+02  0.15653955561E+03  0.12509279890E+03 0.  0.
          5    1    3    3  502    0  0.30086584892E+02 -0.56615656534E+02 -0.13981680163E+02  0.65753288400E+02  0.41800000000E+01 0.  1.
         -5    1    3    3    0  502  0.17944165914E+02  0.20630677345E+02  0.86469971528E+02  0.90786267211E+02  0.41800000000E+01 0.  1.
        -11    1    1    2    0    0 -0.38553742867E+02  0.18833785618E+01  0.71915858380E+02  0.81620027508E+02  0.00000000000E+00 0. -1.
         11    1    1    2    0    0 -0.94770079389E+01  0.34101600628E+02 -0.18755538002E+02  0.40056248584E+02  0.00000000000E+00 0.  1.
</event>
<event>
 7    1  0.2522928E-009  0.1074099E+03  0.7561462E-02  0.1265443E+00
         -2   -1    0    0    0  501 -0.00000000000E+00  0.00000000000E+00  0.27451845278E+02  0.27451845278E+02  0.00000000000E+00 0.  1.
          2   -1    0    0  501    0  0.00000000000E+00 -0.00000000000E+00 -0.60757010546E+03  0.60757010546E+03  0.00000000000E+00 0. -1.
         25    2    1    2    0    0 -0.21366013570E+01 -0.15077942982E+02 -0.48630011225E+03  0.50236266804E+03  0.12509413111E+03 0.  0.
          5    1    3    3  502    0  0.27978888847E+02 -0.63114485149E+02 -0.26867430911E+03  0.27743397995E+03  0.41800000000E+01 0. -1.
         -5    1    3    3    0  502 -0.30115490204E+02  0.48036542166E+02 -0.21762580314E+03  0.22492868809E+03  0.41800000000E+01 0. -1.
        -11    1    1    2    0    0  0.25357587315E+02  0.44564038934E+02 -0.74523220362E+02  0.90458118340E+02  0.00000000000E+00 0.  1.
         11    1    1    2    0    0 -0.23220985959E+02 -0.29486095951E+02 -0.19294927577E+02  0.42201164363E+02  0.00000000000E+00 0. -1.
</event>
<event>
 7    1  0.2522928E-009  0.1244485E+03  0.7561462E-02  0.1235934E+00
          1   -1    0    0  501    0  0.00000000000E+00  0.00000000000E+00  0.11199511864E+04  0.11199511864E+04  0.00000000000E+00 0. -1.
         -1   -1    0    0    0  501 -0.00000000000E+00 -0.00000000000E+00 -0.16855571991E+02  0.16855571991E+02  0.00000000000E+00 0.  1.
         25    2    1    2    0    0 -0.49315481119E+02 -0.47406993821E+02  0.80073450809E+03  0.81332839962E+03  0.12509154026E+03 0.  0.
          5    1    3    3  502    0 -0.86284327867E+02 -0.14097142749E+02  0.39807897125E+03  0.40758809407E+03  0.41800000000E+01 0. -1.
         -5    1    3    3    0  502  0.36968846748E+02 -0.33309851072E+02  0.40265553684E+03  0.40574030556E+03  0.41800000000E+01 0. -1.
        -11    1    1    2    0    0 -0.21830238723E+02  0.31836323083E+02  0.69585867499E+02  0.79575773611E+02  0.00000000000E+00 0. -1.
         11    1    1    2    0    0  0.71145719842E+02  0.15570670738E+02  0.23277523884E+03  0.24390258517E+03  0.00000000000E+00 0.  1.
</event>
<event>
 7    1  0.2522928E-009  0.1832425E+03  0.7561462E-02  0.1164701E+00
          1   -1    0    0  501    0  0.00000000000E+00  0.00000000000E+00  0.28538324518E+03  0.28538324518E+03  0.00000000000E+00 0. -1.
         -1   -1    0    0    0  501 -0.00000000000E+00 -0.00000000000E+00 -0.19851038685E+03  0.19851038685E+03  0.00000000000E+00 0.  1.
         25    2    1    2    0    0  0.16738394574E+03 -0.41398795973E+02  0.17018366542E+03  0.27265556821E+03  0.12508930132E+03 0.  0.
          5    1    3    3  502    0  0.16102724355E+03 -0.33632502894E+02  0.82091530928E+02  0.18389510669E+03  0.41800000000E+01 0. -1.
         -5    1    3    3    0  502  0.63567021882E+01 -0.77662930788E+01  0.88092134487E+02  0.88760461521E+02  0.41800000000E+01 0. -1.
        -11    1    1    2    0    0 -0.13383756661E+03 -0.48481882861E+01 -0.40726046343E+02  0.13998074874E+03  0.00000000000E+00 0. -1.
         11    1    1    2    0    0 -0.33546379124E+02  0.46246984259E+02 -0.42584760746E+02  0.71257315085E+02  0.00000000000E+00 0.  1.
</event>
<event>
 7    1  0.2522928E-009  0.1231961E+03  0.7561462E-02  0.1237916E+00
          1   -1    0    0  501    0  0.00000000000E+00  0.00000000000E+00  0.59027886191E+03  0.59027886191E+03  0.00000000000E+00 0. -1.
         -1   -1    0    0    0  501 -0.00000000000E+00 -0.00000000000E+00 -0.32420482775E+02  0.32420482775E+02  0.00000000000E+00 0.  1.
         25    2    1    2    0    0 -0.42889279663E+02  0.63396309965E+02  0.22161243113E+03  0.26574114032E+03  0.12509077343E+03 0.  0.
          5    1    3    3  502    0 -0.75533007655E+02  0.12628815650E+02  0.75607205297E+02  0.10769700146E+03  0.41800000000E+01 0. -1.
         -5    1    3    3    0  502  0.32643727992E+02  0.50767494315E+02  0.14600522584E+03  0.15804413886E+03  0.41800000000E+01 0. -1.
        -11    1    1    2    0    0 -0.19690334013E+02  0.58322793995E+00  0.19144303932E+02  0.27469142349E+02  0.00000000000E+00 0. -1.
         11    1    1    2    0    0  0.62579613676E+02 -0.63979537905E+02  0.31710164407E+03  0.32948906202E+03  0.00000000000E+00 0.  1.
</event>
<event>
 7    1  0.2522928E-009  0.1134139E+03  0.7561462E-02  0.1254375E+00
         -2   -1    0    0    0  501 -0.00000000000E+00  0.00000000000E+00  0.15163841234E+03  0.15163841234E+03  0.00000000000E+00 0.  1.
          2   -1    0    0  501    0  0.00000000000E+00 -0.00000000000E+00 -0.10573789023E+03  0.10573789023E+03  0.00000000000E+00 0. -1.
         25    2    1    2    0    0 -0.11904725914E-01 -0.18919454618E+02 -0.26189819267E+01  0.12653999229E+03  0.12509022615E+03 0.  0.
          5    1    3    3  502    0 -0.61461455371E+02 -0.16054202940E+02  0.73399794576E+01  0.64082724870E+02  0.41800000000E+01 0.  1.
         -5    1    3    3    0  502  0.61449550645E+02 -0.28652516786E+01 -0.99589613843E+01  0.62457267419E+02  0.41800000000E+01 0.  1.
        -11    1    1    2    0    0  0.40414157040E+01  0.60047705217E+02 -0.81143288270E+01  0.60728101198E+02  0.00000000000E+00 0. -1.
         11    1    1    2    0    0 -0.40295109781E+01 -0.41128250599E+02  0.56633832859E+02  0.70108209080E+02  0.00000000000E+00 0.  1.
</event>
<event>
 7    1  0.2522928E-009  0.1053252E+03  0.7561462E-02  0.1269480E+00
         -3   -1    0    0    0  501 -0.00000000000E+00  0.00000000000E+00  0.16003539911E+03  0.16003539911E+03  0.00000000000E+00 0.  1.
          3   -1    0    0  501    0  0.00000000000E+00 -0.00000000000E+00 -0.10646015168E+03  0.10646015168E+03  0.00000000000E+00 0. -1.
         25    2    1    2    0    0 -0.35484479430E+02  0.36481700668E+02  0.70698444653E+02  0.15243104981E+03  0.12508753777E+03 0.  0.
          5    1    3    3  502    0  0.24205960829E+02  0.32192179948E+02  0.81937231722E+02  0.91397195425E+02  0.41800000000E+01 0.  1.
         -5    1    3    3    0  502 -0.59690440259E+02  0.42895207204E+01 -0.11238787069E+02  0.61033854385E+02  0.41800000000E+01 0.  1.
        -11    1    1    2    0    0  0.14608122034E+02  0.33815002204E+02 -0.17387363783E+02  0.40732935356E+02  0.00000000000E+00 0. -1.
         11    1    1    2    0    0  0.20876357396E+02 -0.70296702871E+02  0.26416655954E+00  0.73331565623E+02  0.00000000000E+00 0.  1.
</event>
<event>
 7    1  0.2522928E-009  0.5178126E+03  0.7561462E-02  0.1009231E+00
         -2   -1    0    0    0  501 -0.00000000000E+00  0.00000000000E+00  0.53734964161E+03  0.53734964161E+03  0.00000000000E+00 0.  1.
          2   -1    0    0  501    0  0.00000000000E+00 -0.00000000000E+00 -0.53449877237E+03  0.53449877237E+03  0.00000000000E+00 0. -1.
         25    2    1    2    0    0 -0.59803765080E+02 -0.50588056703E+03 -0.12427023801E+03  0.53905674095E+03  0.12508972575E+03 0.  0.
          5    1    3    3  502    0 -0.74020474091E+02 -0.49618967751E+03 -0.10440524565E+03  0.51244624535E+03  0.41800000000E+01 0.  1.
         -5    1    3    3    0  502  0.14216709011E+02 -0.96908895252E+01 -0.19864992357E+02  0.26610495603E+02  0.41800000000E+01 0.  1.
        -11    1    1    2    0    0 -0.14958187540E+02  0.22025426222E+02  0.14854359887E+02  0.30488010470E+02  0.00000000000E+00 0. -1.
         11    1    1    2    0    0  0.74761952621E+02  0.48385514081E+03  0.11226674736E+03  0.50230366255E+03  0.00000000000E+00 0.  1.
</event>
<event>
 7    1  0.2522928E-009  0.3581523E+03  0.7561462E-02  0.1059318E+00
          2   -1    0    0  501    0  0.00000000000E+00  0.00000000000E+00  0.75376922118E+03  0.75376922118E+03  0.00000000000E+00 0. -1.
         -2   -1    0    0    0  501 -0.00000000000E+00 -0.00000000000E+00 -0.23678866284E+03  0.23678866284E+03  0.00000000000E+00 0.  1.
         25    2    1    2    0    0 -0.33680509229E+03 -0.79034778284E+02  0.51477311982E+03  0.63271040823E+03  0.12508768694E+03 0.  0.
          5    1    3    3  502    0 -0.56316325506E+02 -0.51791448470E+02  0.17648137597E+03  0.19239810580E+03  0.41800000000E+01 0. -1.
         -5    1    3    3    0  502 -0.28048876678E+03 -0.27243329813E+02  0.33829174385E+03  0.44031230243E+03  0.41800000000E+01 0. -1.
        -11    1    1    2    0    0  0.15561289687E+03  0.83485389358E+02  0.77639982452E+00  0.17659497928E+03  0.00000000000E+00 0.  1.
         11    1    1    2    0    0  0.18119219541E+03 -0.44506110740E+01  0.14310386976E+01  0.18125249651E+03  0.00000000000E+00 0. -1.
</event>
<event>
 7    1  0.2522928E-009  0.1739082E+03  0.7561462E-02  0.1173832E+00
         -1   -1    0    0    0  501 -0.00000000000E+00  0.00000000000E+00  0.46560073022E+02  0.46560073022E+02  0.00000000000E+00 0. -1.
          1   -1    0    0  501    0  0.00000000000E+00 -0.00000000000E+00 -0.74111130753E+03  0.74111130753E+03  0.00000000000E+00 0.  1.
         25    2    1    2    0    0 -0.61169315730E+02  0.12572747365E+03 -0.47878930275E+03  0.51423270837E+03  0.12508796549E+03 0.  0.
          5    1    3    3  502    0 -0.35321459587E+02  0.14439725774E+03 -0.32928735939E+03  0.36131123841E+03  0.41800000000E+01 0. -1.
         -5    1    3    3    0  502 -0.25847856143E+02 -0.18669784086E+02 -0.14950194337E+03  0.15292146996E+03  0.41800000000E+01 0. -1.
        -11    1    1    2    0    0  0.17449403993E+02  0.12826755440E+02 -0.39198525982E+02  0.44783164181E+02  0.00000000000E+00 0.  1.
         11    1    1    2    0    0  0.43719911736E+02 -0.13855422909E+03 -0.17656340578E+03  0.22865550800E+03  0.00000000000E+00 0. -1.
</event>
<event>
 7    1  0.2522928E-009  0.1926167E+03  0.7561462E-02  0.1156122E+00
          2   -1    0    0  501    0  0.00000000000E+00  0.00000000000E+00  0.45571839332E+03  0.45571839332E+03  0.00000000000E+00 0. -1.
         -2   -1    0    0    0  501 -0.00000000000E+00 -0.00000000000E+00 -0.12769625000E+03  0.12769625000E+03  0.00000000000E+00 0.  1.
         25    2    1    2    0    0 -0.31959616976E+01 -0.17186359129E+03  0.13483768932E+02  0.21301524313E+03  0.12508546517E+03 0.  0.
          5    1    3    3  502    0 -0.14012640039E+02  0.81747750561E+01 -0.23492092337E+02  0.28853627682E+02  0.41800000000E+01 0. -1.
         -5    1    3    3    0  502  0.10816678341E+02 -0.18003836634E+03  0.36975861269E+02  0.18416161544E+03  0.41800000000E+01 0. -1.
        -11    1    1    2    0    0 -0.35846772718E+02  0.63972342047E+02  0.75503556499E+02  0.10525321233E+03  0.00000000000E+00 0.  1.
         11    1    1    2    0    0  0.39042734416E+02  0.10789124924E+03  0.23903481789E+03  0.26514618786E+03  0.00000000000E+00 0. -1.
</event>
<event>
 7    1  0.2522928E-009  0.1444750E+03  0.7561462E-02  0.1207431E+00
         -1   -1    0    0    0  501 -0.00000000000E+00  0.00000000000E+00  0.31443663175E+02  0.31443663175E+02  0.00000000000E+00 0.  1.
          1   -1    0    0  501    0  0.00000000000E+00 -0.00000000000E+00 -0.89062336445E+03  0.89062336445E+03  0.00000000000E+00 0. -1.
         25    2    1    2    0    0  0.87789328909E+02  0.91754670335E+02 -0.51107471379E+03  0.54126708180E+03  0.12508718946E+03 0.  0.
          5    1    3    3  502    0 -0.15296269136E+01 -0.10723808214E+02  0.79419607769E+00  0.11637996757E+02  0.41800000000E+01 0.  1.
         -5    1    3    3    0  502  0.89318955822E+02  0.10247847855E+03 -0.51186890986E+03  0.52962908504E+03  0.41800000000E+01 0.  1.
        -11    1    1    2    0    0 -0.65429336836E+02 -0.23517334247E+02 -0.95119766034E+02  0.11782119088E+03  0.00000000000E+00 0.  1.
         11    1    1    2    0    0 -0.22359992073E+02 -0.68237336089E+02 -0.25298522145E+03  0.26297875495E+03  0.00000000000E+00 0. -1.
</event>
<event>
 7    1  0.2522928E-009  0.7090493E+02  0.7561462E-02  0.1357043E+00
          2   -1    0    0  501    0  0.00000000000E+00  0.00000000000E+00  0.45122508007E+03  0.45122508007E+03  0.00000000000E+00 0. -1.
         -2   -1    0    0    0  501 -0.00000000000E+00 -0.00000000000E+00 -0.38632947519E+02  0.38632947519E+02  0.00000000000E+00 0.  1.
         25    2    1    2    0    0 -0.15285304780E+01 -0.25109065145E+02  0.35455718137E+03  0.37681801135E+03  0.12509283457E+03 0.  0.
          5    1    3    3  502    0  0.39534593089E+01 -0.35796259108E+02  0.36082341865E+03  0.36264033677E+03  0.41800000000E+01 0.  1.
         -5    1    3    3    0  502 -0.54819897869E+01  0.10687193963E+02 -0.62662372815E+01  0.14177674580E+02  0.41800000000E+01 0.  1.
        -11    1    1    2    0    0 -0.33837717622E+02 -0.16981858340E+02  0.40251016591E+02  0.55258655278E+02  0.00000000000E+00 0. -1.
         11    1    1    2    0    0  0.35366248100E+02  0.42090923484E+02  0.17783934585E+02  0.57781360955E+02  0.00000000000E+00 0.  1.
</event>
<event>
 7    1  0.2522928E-009  0.1299070E+03  0.7561462E-02  0.1227594E+00
          1   -1    0    0  501    0  0.00000000000E+00  0.00000000000E+00  0.16618262274E+03  0.16618262274E+03  0.00000000000E+00 0. -1.
         -1   -1    0    0    0  501 -0.00000000000E+00 -0.00000000000E+00 -0.14740602160E+03  0.14740602160E+03  0.00000000000E+00 0.  1.
         25    2    1    2    0    0 -0.88111099411E+01 -0.11011032533E+03  0.18619425729E+02  0.16791593670E+03  0.12508860612E+03 0.  0.
          5    1    3    3  502    0 -0.26264772168E+02 -0.12142844004E+03 -0.17990376162E+02  0.12560187237E+03  0.41800000000E+01 0. -1.
         -5    1    3    3    0  502  0.17453662226E+02  0.11318114716E+02  0.36609801892E+02  0.42314064333E+02  0.41800000000E+01 0. -1.
        -11    1    1    2    0    0  0.19143541878E+02  0.55466442065E+02 -0.45072290325E+02  0.73989950305E+02  0.00000000000E+00 0.  1.
         11    1    1    2    0    0 -0.10332431937E+02  0.54643883261E+02  0.45229465744E+02  0.71682757334E+02  0.00000000000E+00 0. -1.
</event>
<event>
 7    1  0.2522928E-009  0.1304709E+03  0.7561462E-02  0.1226759E+00
         -2   -1    0    0    0  501 -0.00000000000E+00  0.00000000000E+00  0.72994967482E+02  0.72994967482E+02  0.00000000000E+00 0.  1.
          2   -1    0    0  501    0  0.00000000000E+00 -0.00000000000E+00 -0.67540815224E+03  0.67540815224E+03  0.00000000000E+00 0. -1.
         25    2    1    2    0    0 -0.78594196525E+02 -0.24620429511E+02 -0.59150347211E+03  0.61017089138E+03  0.12509574687E+03 0.  0.
          5    1    3    3  502    0  0.33608182372E+02 -0.10145603965E+02 -0.17632069813E+03  0.17983020934E+03  0.41800000000E+01 0. -1.
         -5    1    3    3    0  502 -0.11220237890E+03 -0.14474825546E+02 -0.41518277399E+03  0.43034068204E+03  0.41800000000E+01 0. -1.
        -11    1    1    2    0    0  0.48369527291E+02  0.52410574835E+02 -0.45455670848E+02  0.84573621994E+02  0.00000000000E+00 0. -1.
         11    1    1    2    0    0  0.30224669233E+02 -0.27790145323E+02  0.34545958203E+02  0.53658606351E+02  0.00000000000E+00 0.  1.
</event>
<event>
 7    1  0.2522928E-009  0.1486516E+03  0.7561462E-02  0.1202140E+00
          2   -1    0    0  501    0  0.00000000000E+00  0.00000000000E+00  0.24546917573E+02  0.24546917573E+02  0.00000000000E+00 0. -1.
         -2   -1    0    0    0  501 -0.00000000000E+00 -0.00000000000E+00 -0.12445073038E+04  0.12445073038E+04  0.00000000000E+00 0.  1.
         25    2    1    2    0    0 -0.68270560279E+02  0.42326746397E+02 -0.30766873261E+03  0.34170199848E+03  0.12509110231E+03 0.  0.
          5    1    3    3  502    0  0.12759636524E+02  0.47698633722E+02 -0.45719844256E+02  0.67422136884E+02  0.41800000000E+01 0.  1.
         -5    1    3    3    0  502 -0.81030196803E+02 -0.53718873257E+01 -0.26194888836E+03  0.27427986160E+03  0.41800000000E+01 0.  1.
        -11    1    1    2    0    0  0.22657365697E+02 -0.94474622095E+02 -0.53888242923E+03  0.54757016260E+03  0.00000000000E+00 0.  1.
         11    1    1    2    0    0  0.45613194582E+02  0.52147875699E+02 -0.37340922435E+03  0.37978206025E+03  0.00000000000E+00 0. -1.
</event>
<event>
 7    1  0.2522928E-009  0.1100148E+03  0.7561462E-02  0.1260542E+00
         -1   -1    0    0    0  501 -0.00000000000E+00  0.00000000000E+00  0.29214060616E+03  0.29214060616E+03  0.00000000000E+00 0.  1.
          1   -1    0    0  501    0  0.00000000000E+00 -0.00000000000E+00 -0.69809882107E+02  0.69809882107E+02  0.00000000000E+00 0. -1.
         25    2    1    2    0    0 -0.22182502608E+02  0.63177085418E+02  0.41935763471E+02  0.14795113043E+03  0.12509005234E+03 0.  0.
          5    1    3    3  502    0 -0.50015708656E+02  0.61292619369E+02 -0.18415958856E+02  0.81332504216E+02  0.41800000000E+01 0. -1.
         -5    1    3    3    0  502  0.27833206048E+02  0.18844660489E+01  0.60351722327E+02  0.66618626217E+02  0.41800000000E+01 0. -1.
        -11    1    1    2    0    0  0.41978080714E+02 -0.77519598957E+02  0.12046717696E+03  0.14927755427E+03  0.00000000000E+00 0. -1.
         11    1    1    2    0    0 -0.19795578106E+02  0.14342513539E+02  0.59927783617E+02  0.64721803563E+02  0.00000000000E+00 0.  1.
</event>
<event>
 7    1  0.2522928E-009  0.1358260E+03  0.7561462E-02  0.1219058E+00
         -2   -1    0    0    0  501 -0.00000000000E+00  0.00000000000E+00  0.99191676420E+02  0.99191676420E+02  0.00000000000E+00 0.  1.
          2   -1    0    0  501    0  0.00000000000E+00 -0.00000000000E+00 -0.22241337690E+03  0.22241337690E+03  0.00000000000E+00 0. -1.
         25    2    1    2    0    0 -0.44847194872E+02  0.69868963199E+02 -0.13018459169E+03  0.19871554706E+03  0.12508756063E+03 0.  0.
          5    1    3    3  502    0  0.16511185375E+02  0.85064217569E+02 -0.73269156306E+02  0.11355343244E+03  0.41800000000E+01 0. -1.
         -5    1    3    3    0  502 -0.61358380248E+02 -0.15195254370E+02 -0.56915435385E+02  0.85162114623E+02  0.41800000000E+01 0. -1.
        -11    1    1    2    0    0  0.13137585322E+02 -0.85285110518E+02 -0.26920770951E+01  0.86333038307E+02  0.00000000000E+00 0. -1.
         11    1    1    2    0    0  0.31709609550E+02  0.15416147319E+02  0.96549683068E+01  0.36556467950E+02  0.00000000000E+00 0.  1.
</event>
<event>
 7    1  0.2522928E-009  0.1170873E+03  0.7561462E-02  0.1247981E+00
          2   -1    0    0  501    0  0.00000000000E+00  0.00000000000E+00  0.81625700370E+02  0.81625700370E+02  0.00000000000E+00 0. -1.
         -2   -1    0    0    0  501 -0.00000000000E+00 -0.00000000000E+00 -0.27994812996E+03  0.27994812996E+03  0.00000000000E+00 0.  1.
         25    2    1    2    0    0  0.94195802808E+02 -0.37715875839E+02 -0.13923428660E+03  0.21290591814E+03  0.12508959532E+03 0.  0.
          5    1    3    3  502    0  0.10393014083E+03 -0.11822797033E+02 -0.15001042975E+03  0.18292581594E+03  0.41800000000E+01 0.  1.
         -5    1    3    3    0  502 -0.97343380172E+01 -0.25893078806E+02  0.10776143156E+02  0.29980102201E+02  0.41800000000E+01 0.  1.
        -11    1    1    2    0    0 -0.15755918716E+02  0.75818672318E+01 -0.62170349060E+02  0.64582396886E+02  0.00000000000E+00 0.  1.
         11    1    1    2    0    0 -0.78439884092E+02  0.30134008607E+02  0.30822060607E+01  0.84085515312E+02  0.00000000000E+00 0. -1.
</event>
<event>
 7    1  0.2522928E-009  0.1390817E+03  0.7561462E-02  0.1214570E+00
          1   -1    0    0  501    0  0.00000000000E+00  0.00000000000E+00  0.41063758944E+03  0.41063758944E+03  0.00000000000E+00 0. -1.
         -1   -1    0    0    0  501 -0.00000000000E+00 -0.00000000000E+00 -0.82902417494E+02  0.82902417494E+02  0.00000000000E+00 0.  1.
         25    2    1    2    0    0 -0.11867873374E+03 -0.59708028407E+02  0.79630386938E+02  0.19909709354E+03  0.12509581781E+03 0.  0.
          5    1    3    3  502    0 -0.60302286860E+02 -0.61154114528E+02  0.10463830004E+03  0.13543573295E+03  0.41800000000E+01 0.  1.
         -5    1    3    3    0  502 -0.58376446879E+02  0.14460861205E+01 -0.25007913098E+02  0.63661360595E+02  0.41800000000E+01 0.  1.
        -11    1    1    2    0    0  0.88291991347E+02  0.51262105529E+02  0.24153683029E+03  0.26222761026E+03  0.00000000000E+00 0. -1.
         11    1    1    2    0    0  0.30386742392E+02  0.84459228782E+01  0.65679547206E+01  0.32215303129E+02  0.00000000000E+00 0.  1.
</event>
<event>
 7    1  0.2522928E-009  0.9198202E+02  0.7561462E-02  0.1298122E+00
         -1   -1    0    0    0  501 -0.00000000000E+00  0.00000000000E+00  0.16400531048E+03  0.16400531048E+03  0.00000000000E+00 0.  1.
          1   -1    0    0  501    0  0.00000000000E+00 -0.00000000000E+00 -0.10892266121E+03  0.10892266121E+03  0.00000000000E+00 0. -1.
         25    2    1    2    0    0 -0.51332674289E+02  0.56068647291E+02  0.44635373195E+02  0.15302733782E+03  0.12508522263E+03 0.  0.
          5    1    3    3  502    0 -0.34416222170E+02 -0.11723771375E+01  0.77393828569E+02  0.84812309939E+02  0.41800000000E+01 0.  1.
         -5    1    3    3    0  502 -0.16916452120E+02  0.57241024429E+02 -0.32758455374E+02  0.68215027878E+02  0.41800000000E+01 0.  1.
        -11    1    1    2    0    0  0.11766471291E+02  0.79368180110E+01 -0.30927211130E+02  0.34028448614E+02  0.00000000000E+00 0. -1.
         11    1    1    2    0    0  0.39566202998E+02 -0.64005465302E+02  0.41374487207E+02  0.85872185252E+02  0.00000000000E+00 0.  1.
</event>
<event>
 7    1  0.2522928E-009  0.2398680E+03  0.7561462E-02  0.1119881E+00
          2   -1    0    0  501    0  0.00000000000E+00  0.00000000000E+00  0.95751495027E+03  0.95751495027E+03  0.00000000000E+00 0. -1.
         -2   -1    0    0    0  501 -0.00000000000E+00 -0.00000000000E+00 -0.67792926156E+02  0.67792926156E+02  0.00000000000E+00 0.  1.
         25    2    1    2    0    0  0.22292739238E+03  0.57407976172E+02  0.45904120372E+03  0.52854550862E+03  0.12509688232E+03 0.  0.
          5    1    3    3  502    0  0.14687785611E+03  0.83126789445E+02  0.37997067391E+03  0.41578642736E+03  0.41800000000E+01 0. -1.
         -5    1    3    3    0  502  0.76049536275E+02 -0.25718813274E+02  0.79070529810E+02  0.11275908127E+03  0.41800000000E+01 0. -1.
        -11    1    1    2    0    0 -0.16130069409E+03 -0.47150201895E+02  0.38275664250E+03  0.41802356732E+03  0.00000000000E+00 0. -1.
         11    1    1    2    0    0 -0.61626698293E+02 -0.10257774276E+02  0.47924177886E+02  0.78738800484E+02  0.00000000000E+00 0.  1.
</event>
<event>
 7    1  0.2522928E-009  0.2114297E+03  0.7561462E-02  0.1140439E+00
          1   -1    0    0  501    0  0.00000000000E+00  0.00000000000E+00  0.35477642236E+03  0.35477642236E+03  0.00000000000E+00 0. -1.
         -1   -1    0    0    0  501 -0.00000000000E+00 -0.00000000000E+00 -0.19182274149E+03  0.19182274149E+03  0.00000000000E+00 0.  1.
         25    2    1    2    0    0 -0.16554345033E+03  0.91864807020E+02  0.23306555172E+03  0.32528603651E+03  0.12509067685E+03 0.  0.
          5    1    3    3  502    0 -0.67527884252E+02 -0.17581588706E+02  0.12368578460E+03  0.14207312597E+03  0.41800000000E+01 0.  1.
         -5    1    3    3    0  502 -0.98015566081E+02  0.10944639573E+03  0.10937976713E+03  0.18321291054E+03  0.41800000000E+01 0.  1.
        -11    1    1    2    0    0  0.58511954052E+02 -0.78801758156E+02 -0.54782363592E+02  0.11240317262E+03  0.00000000000E+00 0. -1.
         11    1    1    2    0    0  0.10703149628E+03 -0.13063048864E+02 -0.15329507257E+02  0.10890995471E+03  0.00000000000E+00 0.  1.
</event>
<event>
 7    1  0.2522928E-009  0.1054044E+03  0.7561462E-02  0.1269325E+00
         -3   -1    0    0    0  501 -0.00000000000E+00  0.00000000000E+00  0.88503266651E+02  0.88503266651E+02  0.00000000000E+00 0.  1.
          3   -1    0    0  501    0  0.00000000000E+00 -0.00000000000E+00 -0.28124382945E+03  0.28124382945E+03  0.00000000000E+00 0. -1.
         25    2    1    2    0    0  0.32865430526E+02 -0.61211199236E+02 -0.21008056674E+03  0.25417744752E+03  0.12508150491E+03 0.  0.
          5    1    3    3  502    0 -0.14594756169E+02  0.12100559788E+02  0.66131860764E+01  0.20509438922E+02  0.41800000000E+01 0.  1.
         -5    1    3    3    0  502  0.47460186695E+02 -0.73311759024E+02 -0.21669375282E+03  0.23366800860E+03  0.41800000000E+01 0.  1.
        -11    1    1    2    0    0  0.61224223940E+01 -0.16182769112E+02 -0.15171972058E+02  0.23012057888E+02  0.00000000000E+00 0. -1.
         11    1    1    2    0    0 -0.38987852920E+02  0.77393968348E+02  0.32511975997E+02  0.92557590695E+02  0.00000000000E+00 0.  1.
</event>
<event>
 7    1  0.2522928E-009  0.1071691E+03  0.7561462E-02  0.1265904E+00
         -2   -1    0    0    0  501 -0.00000000000E+00  0.00000000000E+00  0.16051197069E+03  0.16051197069E+03  0.00000000000E+00 0.  1.
          2   -1    0    0  501    0  0.00000000000E+00 -0.00000000000E+00 -0.92184082762E+02  0.92184082762E+02  0.00000000000E+00 0. -1.
         25    2    1    2    0    0 -0.16670809292E+02 -0.76703543158E+01  0.92042272537E+02  0.15638526632E+03  0.12509125217E+03 0.  0.
          5    1    3    3  502    0  0.50876593943E+02 -0.17340206296E+02  0.60680868098E+02  0.81171119980E+02  0.41800000000E+01 0.  1.
         -5    1    3    3    0  502 -0.67547403235E+02  0.96698519804E+01  0.31361404439E+02  0.75214146339E+02  0.41800000000E+01 0.  1.
        -11    1    1    2    0    0  0.46850990089E+02 -0.20163690748E+02 -0.21018078419E+02  0.55166559775E+02  0.00000000000E+00 0. -1.
         11    1    1    2    0    0 -0.30180180797E+02  0.27834045064E+02 -0.26963061929E+01  0.41144227356E+02  0.00000000000E+00 0.  1.
</event>
<event>
 7    1  0.2850543E-009  0.9074017E+02  0.7561462E-02  0.1301069E+00
          2   -1    0    0  501    0  0.00000000000E+00  0.00000000000E+00  0.82484353960E+03  0.82484353960E+03  0.00000000000E+00 0.  1.
         -2   -1    0    0    0  501 -0.00000000000E+00 -0.00000000000E+00 -0.21894877877E+02  0.21894877877E+02  0.00000000000E+00 0. -1.
         25    2    1    2    0    0 -0.45863803025E+02 -0.13957095095E+02  0.63712678411E+03  0.65105896559E+03  0.12509575819E+03 0.  0.
          5    1    3    3  502    0 -0.24757257345E+02 -0.61241932540E+02  0.50104937587E+03  0.50540226112E+03  0.41800000000E+01 0.  1.
         -5    1    3    3    0  502 -0.21106545680E+02  0.47284837445E+02  0.13607740824E+03  0.14565670447E+03  0.41800000000E+01 0.  1.
        -11    1    1    2    0    0  0.34446598487E+02 -0.10782152659E+02  0.99456284106E+01  0.37439798180E+02  0.00000000000E+00 0. -1.
         11    1    1    2    0    0  0.11417204539E+02  0.24739247754E+02  0.15587624920E+03  0.15823965370E+03  0.00000000000E+00 0.  1.
</event>
<event>
 7    1  0.2522928E-009  0.1325541E+03  0.7561462E-02  0.1223714E+00
         -1   -1    0    0    0  501 -0.00000000000E+00  0.00000000000E+00  0.13655574994E+03  0.13655574994E+03  0.00000000000E+00 0.  1.
          1   -1    0    0  501    0  0.00000000000E+00 -0.00000000000E+00 -0.17531249503E+03  0.17531249503E+03  0.00000000000E+00 0. -1.
         25    2    1    2    0    0  0.80665850105E+02  0.71342398766E+02 -0.20302449672E+02  0.16630023306E+03  0.12508741271E+03 0.  0.
          5    1    3    3  502    0  0.60391195867E+02  0.79158836613E+02 -0.63219638252E+02  0.11801446103E+03  0.41800000000E+01 0.  1.
         -5    1    3    3    0  502  0.20274654238E+02 -0.78164378463E+01  0.42917188580E+02  0.48285772031E+02  0.41800000000E+01 0.  1.
        -11    1    1    2    0    0 -0.10399048015E+02  0.23263294640E+02 -0.10153274269E+02  0.27430093976E+02  0.00000000000E+00 0. -1.
         11    1    1    2    0    0 -0.70266802089E+02 -0.94605693407E+02 -0.83010211528E+01  0.11813791793E+03  0.00000000000E+00 0.  1.
</event>
<event>
 7    1  0.2522928E-009  0.9170213E+02  0.7561462E-02  0.1298781E+00
         -1   -1    0    0    0  501 -0.00000000000E+00  0.00000000000E+00  0.11790765066E+03  0.11790765066E+03  0.00000000000E+00 0.  1.
          1   -1    0    0  501    0  0.00000000000E+00 -0.00000000000E+00 -0.13299483488E+03  0.13299483488E+03  0.00000000000E+00 0. -1.
         25    2    1    2    0    0  0.35870677486E+02  0.25799727446E+02  0.33562263833E+02  0.13684039708E+03  0.12508611946E+03 0.  0.
          5    1    3    3  502    0 -0.94094263637E+01  0.60203900974E+02  0.48389043708E+02  0.77923160537E+02  0.41800000000E+01 0.  1.
         -5    1    3    3    0  502  0.45280103850E+02 -0.34404173528E+02 -0.14826779876E+02  0.58917236547E+02  0.41800000000E+01 0.  1.
        -11    1    1    2    0    0 -0.40088221436E+02 -0.94936542960E+00  0.17140297316E+02  0.43609134189E+02  0.00000000000E+00 0.  1.
         11    1    1    2    0    0  0.42175439499E+01 -0.24850362016E+02 -0.65789745371E+02  0.70452954269E+02  0.00000000000E+00 0. -1.
</event>
<event>
 7    1  0.2522928E-009  0.1125508E+03  0.7561462E-02  0.1255918E+00
          3   -1    0    0  501    0  0.00000000000E+00  0.00000000000E+00  0.14432036262E+04  0.14432036262E+04  0.00000000000E+00 0. -1.
         -3   -1    0    0    0  501 -0.00000000000E+00 -0.00000000000E+00 -0.11655758087E+02  0.11655758087E+02  0.00000000000E+00 0.  1.
         25    2    1    2    0    0  0.44209359336E+02  0.12168821540E+01  0.10911669934E+04  0.10992035482E+04  0.12508830759E+03 0.  0.
          5    1    3    3  502    0  0.82865963550E+02 -0.59304184326E+01  0.90889607493E+03  0.91269462867E+03  0.41800000000E+01 0.  1.
         -5    1    3    3    0  502 -0.38656604214E+02  0.71473005866E+01  0.18227091845E+03  0.18650891954E+03  0.41800000000E+01 0.  1.
        -11    1    1    2    0    0 -0.22760217712E+02 -0.46781525242E+02  0.19398155246E+03  0.20083670309E+03  0.00000000000E+00 0.  1.
         11    1    1    2    0    0 -0.21449141624E+02  0.45564643088E+02  0.14639932226E+03  0.15481913297E+03  0.00000000000E+00 0. -1.
</event>
<event>
 7    1  0.2522928E-009  0.2102163E+03  0.7561462E-02  0.1141395E+00
          2   -1    0    0  501    0  0.00000000000E+00  0.00000000000E+00  0.15772540590E+04  0.15772540590E+04  0.00000000000E+00 0. -1.
         -2   -1    0    0    0  501 -0.00000000000E+00 -0.00000000000E+00 -0.28742356596E+02  0.28742356596E+02  0.00000000000E+00 0.  1.
         25    2    1    2    0    0  0.16337375547E+03  0.81846015461E+02  0.84117006957E+03  0.86982989922E+03  0.12508882211E+03 0.  0.
          5    1    3    3  502    0  0.13535981919E+03  0.11194749480E+03  0.73933801551E+03  0.75992940187E+03  0.41800000000E+01 0. -1.
         -5    1    3    3    0  502  0.28013936281E+02 -0.30101479343E+02  0.10183205405E+03  0.10990049735E+03  0.41800000000E+01 0. -1.
        -11    1    1    2    0    0 -0.15818362121E+03 -0.42615275681E+02  0.59060557815E+03  0.61290543209E+03  0.00000000000E+00 0.  1.
         11    1    1    2    0    0 -0.51901342638E+01 -0.39230739780E+02  0.11673605472E+03  0.12326108433E+03  0.00000000000E+00 0. -1.
</event>
<event>
 6    1  0.2522928E-009  0.1407506E+03  0.7561462E-02  0.1212322E+00
         -2   -1    0    0    0  501 -0.00000000000E+00  0.00000000000E+00  0.57471407284E+02  0.57471407284E+02  0.00000000000E+00 0.  1.
          2   -1    0    0  501    0  0.00000000000E+00 -0.00000000000E+00 -0.43936261667E+03  0.43936261667E+03  0.00000000000E+00 0. -1.
          5    1    1    2  502    0  0.28739978116E+02 -0.73379317413E+02 -0.10761889297E+03  0.13345339670E+03  0.41800000000E+01 0. -1.
         -5    1    1    2    0  502 -0.78391015400E+02 -0.18515938269E+02 -0.17614982220E+03  0.19373751192E+03  0.41800000000E+01 0. -1.
        -11    1    1    2    0    0 -0.10214724966E+02  0.44256347861E+02 -0.25595476624E+00  0.45420594943E+02  0.00000000000E+00 0.  1.
         11    1    1    2    0    0  0.59865762250E+02  0.47638907822E+02 -0.97866539447E+02  0.12422252039E+03  0.00000000000E+00 0. -1.
</event>
<event>
 7    1  0.2522928E-009  0.1215982E+03  0.7561462E-02  0.1240484E+00
          1   -1    0    0  501    0  0.00000000000E+00  0.00000000000E+00  0.70389236836E+02  0.70389236836E+02  0.00000000000E+00 0. -1.
         -1   -1    0    0    0  501 -0.00000000000E+00 -0.00000000000E+00 -0.35162322178E+03  0.35162322178E+03  0.00000000000E+00 0.  1.
         25    2    1    2    0    0 -0.11380654105E+03 -0.11332480392E+02 -0.15260917284E+03  0.22807302968E+03  0.12508954126E+03 0.  0.
          5    1    3    3  502    0 -0.34524637623E+02 -0.25603688299E+02 -0.13989967323E+03  0.14641342297E+03  0.41800000000E+01 0.  1.
         -5    1    3    3    0  502 -0.79281903428E+02  0.14271207907E+02 -0.12709499612E+02  0.81659606702E+02  0.41800000000E+01 0.  1.
        -11    1    1    2    0    0  0.18725760689E+02  0.15302454694E+02  0.96875852073E+01  0.26051267536E+02  0.00000000000E+00 0. -1.
         11    1    1    2    0    0  0.95080780361E+02 -0.39699743023E+01 -0.13831239732E+03  0.16788816141E+03  0.00000000000E+00 0.  1.
</event>
<event>
 7    1  0.2522928E-009  0.1068561E+03  0.7561462E-02  0.1266505E+00
         -2   -1    0    0    0  501 -0.00000000000E+00  0.00000000000E+00  0.50145086564E+02  0.50145086564E+02  0.00000000000E+00 0.  1.
          2   -1    0    0  501    0  0.00000000000E+00 -0.00000000000E+00 -0.28079930287E+03  0.28079930287E+03  0.00000000000E+00 0. -1.
         25    2    1    2    0    0  0.16144020972E+02  0.43106487161E+02 -0.15101915820E+03  0.20142817749E+03  0.12509087056E+03 0.  0.
          5    1    3    3  502    0  0.69675041088E+02  0.37548877225E+02 -0.87083105097E+02  0.11775172663E+03  0.41800000000E+01 0. -1.
         -5    1    3    3    0  502 -0.53531020117E+02  0.55576099360E+01 -0.63936053099E+02  0.83676450861E+02  0.41800000000E+01 0. -1.
        -11    1    1    2    0    0  0.19633918854E+01  0.17299560773E+02 -0.61473439238E+02  0.63891419161E+02  0.00000000000E+00 0. -1.
         11    1    1    2    0    0 -0.18107412857E+02 -0.60406047934E+02 -0.18161618874E+02  0.65624792781E+02  0.00000000000E+00 0.  1.
</event>
<event>
 7    1  0.2522928E-009  0.1081516E+03  0.7561462E-02  0.1264032E+00
         -1   -1    0    0    0  501 -0.00000000000E+00  0.00000000000E+00  0.61339591923E+03  0.61339591923E+03  0.00000000000E+00 0.  1.
          1   -1    0    0  501    0  0.00000000000E+00 -0.00000000000E+00 -0.58816846685E+02  0.58816846685E+02  0.00000000000E+00 0. -1.
         25    2    1    2    0    0  0.20633722017E+02 -0.35586431736E+02  0.55569735789E+03  0.57108716073E+03  0.12509535153E+03 0.  0.
          5    1    3    3  502    0 -0.52804999473E+02 -0.18857112781E+02  0.24255895028E+03  0.24899051274E+03  0.41800000000E+01 0. -1.
         -5    1    3    3    0  502  0.73438721490E+02 -0.16729318955E+02  0.31313840761E+03  0.32209664799E+03  0.41800000000E+01 0. -1.
        -11    1    1    2    0    0  0.27232488077E+02  0.21641063867E+02  0.26866965922E+02  0.43951995518E+02  0.00000000000E+00 0.  1.
         11    1    1    2    0    0 -0.47866210094E+02  0.13945367869E+02 -0.27985251269E+02  0.57173609667E+02  0.00000000000E+00 0. -1.
</event>
<event>
 7    1  0.2522928E-009  0.7358291E+02  0.7561462E-02  0.1348316E+00
          1   -1    0    0  501    0  0.00000000000E+00  0.00000000000E+00  0.76973170307E+02  0.76973170307E+02  0.00000000000E+00 0. -1.
         -1   -1    0    0    0  501 -0.00000000000E+00 -0.00000000000E+00 -0.23812699013E+03  0.23812699013E+03  0.00000000000E+00 0.  1.
         25    2    1    2    0    0 -0.14147951690E+02 -0.25823091096E+01 -0.18034280675E+03  0.21994971268E+03  0.12509002879E+03 0.  0.
          5    1    3    3  502    0 -0.21356987476E+01  0.28049647619E+02  0.73295670674E+01  0.29369012480E+02  0.41800000000E+01 0.  1.
         -5    1    3    3    0  502 -0.12012252943E+02 -0.30631956728E+02 -0.18767237382E+03  0.19058070020E+03  0.41800000000E+01 0.  1.
        -11    1    1    2    0    0  0.46049384986E+02  0.18838911112E+02 -0.77358840471E+01  0.50351706341E+02  0.00000000000E+00 0.  1.
         11    1    1    2    0    0 -0.31901433296E+02 -0.16256602002E+02  0.26924870978E+02  0.44798741413E+02  0.00000000000E+00 0. -1.
</event>
<event>
 7    1  0.2522928E-009  0.7171684E+02  0.7561462E-02  0.1354350E+00
          2   -1    0    0  501    0  0.00000000000E+00  0.00000000000E+00  0.20180335766E+03  0.20180335766E+03  0.00000000000E+00 0. -1.
         -2   -1    0    0    0  501 -0.00000000000E+00 -0.00000000000E+00 -0.17754982150E+03  0.17754982150E+03  0.00000000000E+00 0.  1.
         25    2    1    2    0    0  0.11248050136E+02  0.28027461858E+01  0.16774644222E+03  0.20957035889E+03  0.12508594018E+03 0.  0.
          5    1    3    3  502    0  0.74589448144E+01  0.30835334361E+02 -0.67864391283E+01  0.32710577172E+02  0.41800000000E+01 0. -1.
         -5    1    3    3    0  502  0.37891053219E+01 -0.28032588175E+02  0.17453288134E+03  0.17685978172E+03  0.41800000000E+01 0. -1.
        -11    1    1    2    0    0  0.34100292992E+02 -0.12763672042E+02 -0.98971876063E+02  0.10545697491E+03  0.00000000000E+00 0.  1.
         11    1    1    2    0    0 -0.45348343128E+02  0.99609258559E+01 -0.44521029997E+02  0.64325845353E+02  0.00000000000E+00 0. -1.
</event>
<event>
 7    1  0.2522928E-009  0.1394681E+03  0.7561462E-02  0.1214046E+00
          1   -1    0    0  501    0  0.00000000000E+00  0.00000000000E+00  0.39780536067E+03  0.39780536067E+03  0.00000000000E+00 0. -1.
         -1   -1    0    0    0  501 -0.00000000000E+00 -0.00000000000E+00 -0.62724258433E+02  0.62724258433E+02  0.00000000000E+00 0.  1.
         25    2    1    2    0    0 -0.43306120510E+02 -0.10100229195E+03  0.22736785430E+03  0.28181775822E+03  0.12509286401E+03 0.  0.
          5    1    3    3  502    0  0.13795241822E+02  0.22836641515E+02  0.20050017065E+02  0.33634751031E+02  0.41800000000E+01 0.  1.
         -5    1    3    3    0  502 -0.57101362332E+02 -0.12383893346E+03  0.20731783724E+03  0.24818300719E+03  0.41800000000E+01 0.  1.
        -11    1    1    2    0    0  0.46977242853E+02  0.70146578364E+02  0.21570461388E+02  0.87136035064E+02  0.00000000000E+00 0.  1.
         11    1    1    2    0    0 -0.36711223427E+01  0.30855713585E+02  0.86142786543E+02  0.91575825814E+02  0.00000000000E+00 0. -1.
</event>
<event>
 7    1  0.2522928E-009  0.9957331E+02  0.7561462E-02  0.1281196E+00
         -1   -1    0    0    0  501 -0.00000000000E+00  0.00000000000E+00  0.90215066106E+02  0.90215066106E+02  0.00000000000E+00 0.  1.
          1   -1    0    0  501    0  0.00000000000E+00 -0.00000000000E+00 -0.13341339984E+03  0.13341339984E+03  0.00000000000E+00 0. -1.
         25    2    1    2    0    0 -0.19066246582E+02  0.22426677609E+02 -0.25469013912E+02  0.13101786678E+03  0.12510209079E+03 0.  0.
          5    1    3    3  502    0 -0.52823372274E+02 -0.33655605687E+02 -0.92522159453E+01  0.63451433022E+02  0.41800000000E+01 0. -1.
         -5    1    3    3    0  502  0.33757125693E+02  0.56082283296E+02 -0.16216797967E+02  0.67566433760E+02  0.41800000000E+01 0. -1.
        -11    1    1    2    0    0  0.38787492300E+02 -0.30629219454E+02  0.16636714741E+02  0.52147856339E+02  0.00000000000E+00 0.  1.
         11    1    1    2    0    0 -0.19721245719E+02  0.82025418452E+01 -0.34366034565E+02  0.40462742827E+02  0.00000000000E+00 0. -1.
</event>
<event>
 7    1  0.2522928E-009  0.1077038E+03  0.7561462E-02  0.1264882E+00
         -2   -1    0    0    0  501 -0.00000000000E+00  0.00000000000E+00  0.14878245797E+02  0.14878245797E+02  0.00000000000E+00 0.  1.
          2   -1    0    0  501    0  0.00000000000E+00 -0.00000000000E+00 -0.15356477393E+04  0.15356477393E+04  0.00000000000E+00 0. -1.
         25    2    1    2    0    0  0.19393798114E+02 -0.49618380062E+01 -0.13508573533E+04  0.13567842159E+04  0.12508829067E+03 0.  0.
          5    1    3    3  502    0  0.10699034569E+02  0.57767035810E+02 -0.82734936955E+03  0.82944315746E+03  0.41800000000E+01 0.  1.
         -5    1    3    3    0  502  0.86947635454E+01 -0.62728873816E+02 -0.52350798374E+03  0.52734105848E+03  0.41800000000E+01 0.  1.
        -11    1    1    2    0    0 -0.24605372969E+01 -0.42541186052E+02 -0.74764073253E+02  0.86055060304E+02  0.00000000000E+00 0.  1.
         11    1    1    2    0    0 -0.16933260817E+02  0.47503024058E+02 -0.95148066990E+02  0.10768670888E+03  0.00000000000E+00 0. -1.
</event>
<event>
 7    1  0.2522928E-009  0.1483862E+03  0.7561462E-02  0.1202470E+00
         -1   -1    0    0    0  501 -0.00000000000E+00  0.00000000000E+00  0.16374098419E+03  0.16374098419E+03  0.00000000000E+00 0.  1.
          1   -1    0    0  501    0  0.00000000000E+00 -0.00000000000E+00 -0.18759724852E+03  0.18759724852E+03  0.00000000000E+00 0. -1.
         25    2    1    2    0    0  0.12884416545E+03  0.14757831900E+02  0.25232296621E+02  0.18194043605E+03  0.12508813255E+03 0.  0.
          5    1    3    3  502    0  0.84440557438E+02 -0.42200093927E+02  0.48154618297E+02  0.10605373794E+03  0.41800000000E+01 0. -1.
         -5    1    3    3    0  502  0.44403608014E+02  0.56957925827E+02 -0.22922321676E+02  0.75886698111E+02  0.41800000000E+01 0. -1.
        -11    1    1    2    0    0 -0.10539223313E+03 -0.89013439011E+01 -0.78216157585E+02  0.13154666105E+03  0.00000000000E+00 0. -1.
         11    1    1    2    0    0 -0.23451932323E+02 -0.58564879985E+01  0.29127596630E+02  0.37851135608E+02  0.00000000000E+00 0.  1.
</event>
<event>
 7    1  0.2522928E-009  0.1308308E+03  0.7561462E-02  0.1226228E+00
         -1   -1    0    0    0  501 -0.00000000000E+00  0.00000000000E+00  0.21096290279E+03  0.21096290279E+03  0.00000000000E+00 0.  1.
          1   -1    0    0  501    0  0.00000000000E+00 -0.00000000000E+00 -0.96801185233E+02  0.96801185233E+02  0.00000000000E+00 0. -1.
         25    2    1    2    0    0 -0.58342344970E+02 -0.71464603579E+02  0.75540429525E+02  0.17281583493E+03  0.12509171646E+03 0.  0.
          5    1    3    3  502    0 -0.77773783547E+02 -0.26348848035E+01  0.15759619666E+02  0.79508125605E+02  0.41800000000E+01 0. -1.
         -5    1    3    3    0  502  0.19431438577E+02 -0.68829718775E+02  0.59780809859E+02  0.93307709323E+02  0.41800000000E+01 0. -1.
        -11    1    1    2    0    0  0.50027991234E+02  0.11216517151E+02 -0.15472244409E+02  0.53553716127E+02  0.00000000000E+00 0. -1.
         11    1    1    2    0    0  0.83143537360E+01  0.60248086427E+02  0.54093532437E+02  0.81394536965E+02  0.00000000000E+00 0.  1.
</event>
<event>
 7    1  0.2522928E-009  0.2520207E+03  0.7561462E-02  0.1112034E+00
         -1   -1    0    0    0  501 -0.00000000000E+00  0.00000000000E+00  0.42304431553E+03  0.42304431553E+03  0.00000000000E+00 0.  1.
          1   -1    0    0  501    0  0.00000000000E+00 -0.00000000000E+00 -0.24644724542E+03  0.24644724542E+03  0.00000000000E+00 0. -1.
         25    2    1    2    0    0  0.19362800391E+03  0.15191658916E+03 -0.94805997091E+02  0.29190570986E+03  0.12510120863E+03 0.  0.
          5    1    3    3  502    0  0.12680814295E+03  0.86727470702E+02  0.68340539087E+01  0.15383801866E+03  0.41800000000E+01 0. -1.
         -5    1    3    3    0  502  0.66819860955E+02  0.65189118462E+02 -0.10164005100E+03  0.13806769119E+03  0.41800000000E+01 0. -1.
        -11    1    1    2    0    0 -0.14131223518E+03 -0.65185393646E+02  0.20113677094E+03  0.25431139176E+03  0.00000000000E+00 0.  1.
         11    1    1    2    0    0 -0.52315768730E+02 -0.86731195518E+02  0.70266296257E+02  0.12327445933E+03  0.00000000000E+00 0. -1.
</event>
<event>
 7    1  0.2522928E-009  0.1063035E+03  0.7561462E-02  0.1267572E+00
          2   -1    0    0  501    0  0.00000000000E+00  0.00000000000E+00  0.21795560279E+03  0.21795560279E+03  0.00000000000E+00 0. -1.
         -2   -1    0    0    0  501 -0.00000000000E+00 -0.00000000000E+00 -0.10084486535E+03  0.10084486535E+03  0.00000000000E+00 0.  1.
         25    2    1    2    0    0  0.24803181708E+02 -0.50784918055E+02  0.15136548344E+03  0.20433593661E+03  0.12508940678E+03 0.  0.
          5    1    3    3  502    0  0.46983136178E+02 -0.69901684347E+02  0.48451450088E+02  0.97255724641E+02  0.41800000000E+01 0. -1.
         -5    1    3    3    0  502 -0.22179954470E+02  0.19116766293E+02  0.10291403336E+03  0.10708021197E+03  0.41800000000E+01 0. -1.
        -11    1    1    2    0    0  0.13797712423E+02  0.57838197430E+02 -0.44074098405E+02  0.74014593834E+02  0.00000000000E+00 0.  1.
         11    1    1    2    0    0 -0.38600894131E+02 -0.70532793757E+01  0.98193523969E+01  0.40449937691E+02  0.00000000000E+00 0. -1.
</event>
<event>
 7    1  0.2522928E-009  0.2134701E+03  0.7561462E-02  0.1138847E+00
          2   -1    0    0  501    0  0.00000000000E+00  0.00000000000E+00  0.35418150313E+03  0.35418150313E+03  0.00000000000E+00 0. -1.
         -2   -1    0    0    0  501 -0.00000000000E+00 -0.00000000000E+00 -0.20192005826E+03  0.20192005826E+03  0.00000000000E+00 0.  1.
         25    2    1    2    0    0 -0.16491703363E+03 -0.11091896359E+03 -0.67050170734E+02  0.24422188847E+03  0.12509181006E+03 0.  0.
          5    1    3    3  502    0 -0.70517332377E+02 -0.77805016671E+02 -0.93497752222E+02  0.14066135523E+03  0.41800000000E+01 0. -1.
         -5    1    3    3    0  502 -0.94399701254E+02 -0.33113946920E+02  0.26447581488E+02  0.10356053324E+03  0.41800000000E+01 0. -1.
        -11    1    1    2    0    0 -0.13518532532E+02  0.88624622164E+01  0.17146012838E+02  0.23564373843E+02  0.00000000000E+00 0. -1.
         11    1    1    2    0    0  0.17843556616E+03  0.10205650137E+03  0.20216560277E+03  0.28831529909E+03  0.00000000000E+00 0.  1.
</event>
<event>
 7    1  0.2522928E-009  0.1321825E+03  0.7561462E-02  0.1224253E+00
          2   -1    0    0  501    0  0.00000000000E+00  0.00000000000E+00  0.17370302918E+04  0.17370302918E+04  0.00000000000E+00 0. -1.
         -2   -1    0    0    0  501 -0.00000000000E+00 -0.00000000000E+00 -0.23186034786E+02  0.23186034786E+02  0.00000000000E+00 0.  1.
         25    2    1    2    0    0 -0.94618185850E+02 -0.10152840939E+02  0.15022682049E+04  0.15104696663E+04  0.12511263778E+03 0.  0.
          5    1    3    3  502    0 -0.72678852384E+02  0.39944855881E+02  0.51256518594E+03  0.51924786888E+03  0.41800000000E+01 0.  1.
         -5    1    3    3    0  502 -0.21939333465E+02 -0.50097696819E+02  0.98970301896E+03  0.99122179744E+03  0.41800000000E+01 0.  1.
        -11    1    1    2    0    0  0.31048011289E+02  0.44469238478E+02  0.12954675241E+03  0.14044163640E+03  0.00000000000E+00 0. -1.
         11    1    1    2    0    0  0.63570174560E+02 -0.34316397539E+02  0.82029299727E+02  0.10930502389E+03  0.00000000000E+00 0.  1.
</event>
<event>
 7    1  0.2522928E-009  0.1236935E+03  0.7561462E-02  0.1237125E+00
          1   -1    0    0  501    0  0.00000000000E+00  0.00000000000E+00  0.37428956238E+03  0.37428956238E+03  0.00000000000E+00 0. -1.
         -1   -1    0    0    0  501 -0.00000000000E+00 -0.00000000000E+00 -0.62908370831E+02  0.62908370831E+02  0.00000000000E+00 0.  1.
         25    2    1    2    0    0  0.19079075835E+02  0.91226914462E+02  0.23740709192E+03  0.28405968490E+03  0.12506564771E+03 0.  0.
          5    1    3    3  502    0  0.57716489170E+02  0.63479307098E+02  0.72580745446E+02  0.11245555816E+03  0.41800000000E+01 0. -1.
         -5    1    3    3    0  502 -0.38637413335E+02  0.27747607365E+02  0.16482634647E+03  0.17160412674E+03  0.41800000000E+01 0. -1.
        -11    1    1    2    0    0 -0.41084998111E+02 -0.77737837930E+02  0.87458804140E+02  0.12401689779E+03  0.00000000000E+00 0. -1.
         11    1    1    2    0    0  0.22005922276E+02 -0.13489076532E+02 -0.13484704502E+02  0.29121350525E+02  0.00000000000E+00 0.  1.
</event>
<event>
 7    1  0.2522928E-009  0.8686131E+02  0.7561462E-02  0.1310636E+00
          2   -1    0    0  501    0  0.00000000000E+00  0.00000000000E+00  0.89755005598E+03  0.89755005598E+03  0.00000000000E+00 0.  1.
         -2   -1    0    0    0  501 -0.00000000000E+00 -0.00000000000E+00 -0.82280091888E+02  0.82280091888E+02  0.00000000000E+00 0. -1.
         25    2    1    2    0    0  0.66883725132E+02 -0.51982677832E+02  0.83991879291E+03  0.85339763176E+03  0.12509319612E+03 0.  0.
          5    1    3    3  502    0  0.53285810113E+01 -0.43718496488E+01 -0.16500955579E+01  0.82281261716E+01  0.41800000000E+01 0. -1.
         -5    1    3    3    0  502  0.61555144120E+02 -0.47610828183E+02  0.84156888847E+03  0.84516950559E+03  0.41800000000E+01 0. -1.
        -11    1    1    2    0    0 -0.53734411044E+02  0.28519695991E+02 -0.57682896428E+02  0.83833624101E+02  0.00000000000E+00 0. -1.
         11    1    1    2    0    0 -0.13149314088E+02  0.23462981841E+02  0.33034067604E+02  0.42598892008E+02  0.00000000000E+00 0.  1.
</event>
<event>
 7    1  0.2522928E-009  0.1062967E+03  0.7561462E-02  0.1267586E+00
         -1   -1    0    0    0  501 -0.00000000000E+00  0.00000000000E+00  0.92389955555E+02  0.92389955555E+02  0.00000000000E+00 0.  1.
          1   -1    0    0  501    0  0.00000000000E+00 -0.00000000000E+00 -0.18483703278E+03  0.18483703278E+03  0.00000000000E+00 0. -1.
         25    2    1    2    0    0  0.72489927186E+02  0.33799817244E+01 -0.42525110780E+02  0.15074825368E+03  0.12510170711E+03 0.  0.
          5    1    3    3  502    0 -0.19039085253E+02  0.27028561280E+01 -0.54871172853E+02  0.58293311870E+02  0.41800000000E+01 0.  1.
         -5    1    3    3    0  502  0.91529012439E+02  0.67712559647E+00  0.12346062073E+02  0.92454941814E+02  0.41800000000E+01 0.  1.
        -11    1    1    2    0    0 -0.67297076087E+02 -0.30348388174E+02 -0.52119301259E+01  0.74007332949E+02  0.00000000000E+00 0.  1.
         11    1    1    2    0    0 -0.51928510982E+01  0.26968406449E+02 -0.44710036319E+02  0.52471401703E+02  0.00000000000E+00 0. -1.
</event>
<event>
 7    1  0.2522928E-009  0.1393844E+03  0.7561462E-02  0.1214160E+00
         -1   -1    0    0    0  501 -0.00000000000E+00  0.00000000000E+00  0.59003482355E+02  0.59003482355E+02  0.00000000000E+00 0.  1.
          1   -1    0    0  501    0  0.00000000000E+00 -0.00000000000E+00 -0.40525532267E+03  0.40525532267E+03  0.00000000000E+00 0. -1.
         25    2    1    2    0    0  0.88730208164E+02 -0.62447658256E+02 -0.21435521743E+03  0.27086598146E+03  0.12508981100E+03 0.  0.
          5    1    3    3  502    0  0.11150563059E+03 -0.79344980909E+02 -0.17816727590E+03  0.22470020527E+03  0.41800000000E+01 0. -1.
         -5    1    3    3    0  502 -0.22775422425E+02  0.16897322652E+02 -0.36187941528E+02  0.46165776193E+02  0.41800000000E+01 0. -1.
        -11    1    1    2    0    0 -0.60014162666E+02  0.22731516859E+02 -0.13956571533E+02  0.65675014032E+02  0.00000000000E+00 0.  1.
         11    1    1    2    0    0 -0.28716045498E+02  0.39716141397E+02 -0.11794005135E+03  0.12771780953E+03  0.00000000000E+00 0. -1.
</event>
<event>
 7    1  0.2522928E-009  0.1370328E+03  0.7561462E-02  0.1217378E+00
          2   -1    0    0  501    0  0.00000000000E+00  0.00000000000E+00  0.44254681324E+03  0.44254681324E+03  0.00000000000E+00 0. -1.
         -2   -1    0    0    0  501 -0.00000000000E+00 -0.00000000000E+00 -0.56789288794E+02  0.56789288794E+02  0.00000000000E+00 0.  1.
         25    2    1    2    0    0 -0.96923012387E+02  0.43615961085E+02  0.27799353758E+03  0.32283768265E+03  0.12508932814E+03 0.  0.
          5    1    3    3  502    0 -0.12606797804E+03  0.44624144934E+02  0.23980877856E+03  0.27460912598E+03  0.41800000000E+01 0. -1.
         -5    1    3    3    0  502  0.29144965652E+02 -0.10081838489E+01  0.38184759021E+02  0.48228556676E+02  0.41800000000E+01 0. -1.
        -11    1    1    2    0    0  0.54863720645E+02 -0.41323842038E+02  0.91842639181E+01  0.69296742113E+02  0.00000000000E+00 0.  1.
         11    1    1    2    0    0  0.42059291743E+02 -0.22921190471E+01  0.98579722952E+02  0.10720167727E+03  0.00000000000E+00 0. -1.
</event>
<event>
 7    1  0.2522928E-009  0.1492714E+03  0.7561462E-02  0.1201371E+00
         -2   -1    0    0    0  501 -0.00000000000E+00  0.00000000000E+00  0.34868409338E+02  0.34868409338E+02  0.00000000000E+00 0.  1.
          2   -1    0    0  501    0  0.00000000000E+00 -0.00000000000E+00 -0.71643302403E+03  0.71643302403E+03  0.00000000000E+00 0. -1.
         25    2    1    2    0    0 -0.11290932538E+03 -0.99746471723E+01 -0.38593364411E+03  0.42123716011E+03  0.12509179852E+03 0.  0.
          5    1    3    3  502    0 -0.81264387527E+02  0.49798350658E+02 -0.27678719087E+03  0.29276679771E+03  0.41800000000E+01 0.  1.
         -5    1    3    3    0  502 -0.31644937849E+02 -0.59772997830E+02 -0.10914645324E+03  0.12847036241E+03  0.41800000000E+01 0.  1.
        -11    1    1    2    0    0  0.19697414852E+02  0.33845835030E+02 -0.36062421243E+02  0.53235579519E+02  0.00000000000E+00 0.  1.
         11    1    1    2    0    0  0.93211910523E+02 -0.23871187858E+02 -0.25956854934E+03  0.27682869374E+03  0.00000000000E+00 0. -1.
</event>
<event>
 7    1  0.2522928E-009  0.1189049E+03  0.7561462E-02  0.1244915E+00
          1   -1    0    0  501    0  0.00000000000E+00  0.00000000000E+00  0.37401486126E+03  0.37401486126E+03  0.00000000000E+00 0. -1.
         -1   -1    0    0    0  501 -0.00000000000E+00 -0.00000000000E+00 -0.58828772470E+02  0.58828772470E+02  0.00000000000E+00 0.  1.
         25    2    1    2    0    0 -0.44090498964E+02 -0.66723199454E+02  0.82305191553E+02  0.16975917468E+03  0.12509226749E+03 0.  0.
          5    1    3    3  502    0 -0.51885588336E+02  0.23588470838E+02  0.24579031558E+02  0.62210380369E+02  0.41800000000E+01 0.  1.
         -5    1    3    3    0  502  0.77950893719E+01 -0.90311670292E+02  0.57726159995E+02  0.10754879431E+03  0.41800000000E+01 0.  1.
        -11    1    1    2    0    0  0.46897450593E+02  0.36144315238E+02  0.49572567831E+02  0.77221900245E+02  0.00000000000E+00 0.  1.
         11    1    1    2    0    0 -0.28069516290E+01  0.30578884216E+02  0.18330832940E+03  0.18586255881E+03  0.00000000000E+00 0. -1.
</event>
<event>
 7    1  0.2522928E-009  0.1082550E+03  0.7561462E-02  0.1263836E+00
          1   -1    0    0  501    0  0.00000000000E+00  0.00000000000E+00  0.13026475791E+03  0.13026475791E+03  0.00000000000E+00 0. -1.
         -1   -1    0    0    0  501 -0.00000000000E+00 -0.00000000000E+00 -0.10371204191E+03  0.10371204191E+03  0.00000000000E+00 0.  1.
         25    2    1    2    0    0  0.20891155459E+02  0.25969628006E+02  0.25458517945E+02  0.13191433297E+03  0.12506955325E+03 0.  0.
          5    1    3    3  502    0  0.39949957850E+02  0.65085873277E+02 -0.79526105528E+01  0.76895295351E+02  0.41800000000E+01 0. -1.
         -5    1    3    3    0  502 -0.19058802391E+02 -0.39116245271E+02  0.33411128498E+02  0.55019037616E+02  0.41800000000E+01 0. -1.
        -11    1    1    2    0    0 -0.30479538692E+02  0.28066973664E+02  0.17207982526E+02  0.44865041538E+02  0.00000000000E+00 0. -1.
         11    1    1    2    0    0  0.95883832339E+01 -0.54036601669E+02 -0.16113784464E+02  0.57197425316E+02  0.00000000000E+00 0.  1.
</event>
<event>
 7    1  0.2522928E-009  0.1727829E+03  0.7561462E-02  0.1174976E+00
         -4   -1    0    0    0  501 -0.00000000000E+00  0.00000000000E+00  0.53690158085E+03  0.53690158085E+03  0.00000000000E+00 0.  1.
          4   -1    0    0  501    0  0.00000000000E+00 -0.00000000000E+00 -0.60445324826E+02  0.60445324826E+02  0.00000000000E+00 0. -1.
         25    2    1    2    0    0 -0.25668518674E+02 -0.13281196170E+03  0.32999850120E+03  0.37794916257E+03  0.12509463888E+03 0.  0.
          5    1    3    3  502    0 -0.40728164875E+02  0.74442265297E+01  0.56304590402E+02  0.70013421735E+02  0.41800000000E+01 0.  1.
         -5    1    3    3    0  502  0.15059646200E+02 -0.14025618823E+03  0.27369391079E+03  0.30793574084E+03  0.41800000000E+01 0.  1.
        -11    1    1    2    0    0  0.25226835098E+02  0.14674022551E+03  0.13850059627E+03  0.20335068762E+03  0.00000000000E+00 0.  1.
         11    1    1    2    0    0  0.44168357681E+00 -0.13928263808E+02  0.79571585576E+01  0.16047055475E+02  0.00000000000E+00 0. -1.
</event>
<event>
 7    1  0.2522928E-009  0.8864943E+02  0.7561462E-02  0.1306156E+00
         -1   -1    0    0    0  501 -0.00000000000E+00  0.00000000000E+00  0.11445103975E+03  0.11445103975E+03  0.00000000000E+00 0.  1.
          1   -1    0    0  501    0  0.00000000000E+00 -0.00000000000E+00 -0.13437976925E+03  0.13437976925E+03  0.00000000000E+00 0. -1.
         25    2    1    2    0    0  0.13757928667E+02  0.19456023916E+02 -0.65988574935E+02  0.14342161061E+03  0.12508976337E+03 0.  0.
          5    1    3    3  502    0 -0.55269526905E+02  0.17399075587E+02 -0.32326188244E+02  0.66482353162E+02  0.41800000000E+01 0.  1.
         -5    1    3    3    0  502  0.69027455572E+02  0.20569483283E+01 -0.33662386691E+02  0.76939257450E+02  0.41800000000E+01 0.  1.
        -11    1    1    2    0    0 -0.29785990025E+02 -0.10048105755E+02 -0.19683623075E+02  0.37089279426E+02  0.00000000000E+00 0. -1.
         11    1    1    2    0    0  0.16028061358E+02 -0.94079181611E+01  0.65743468509E+02  0.68319918960E+02  0.00000000000E+00 0.  1.
</event>
<event>
 7    1  0.2522928E-009  0.9517222E+02  0.7561462E-02  0.1290789E+00
          2   -1    0    0  501    0  0.00000000000E+00  0.00000000000E+00  0.58911513688E+03  0.58911513688E+03  0.00000000000E+00 0. -1.
         -2   -1    0    0    0  501 -0.00000000000E+00 -0.00000000000E+00 -0.27231639058E+02  0.27231639058E+02  0.00000000000E+00 0.  1.
         25    2    1    2    0    0  0.38859811720E+02  0.11091106034E+02  0.43929615893E+03  0.45854232066E+03  0.12508735741E+03 0.  0.
          5    1    3    3  502    0 -0.10229964395E+02 -0.29632786357E+02  0.27789350059E+02  0.42100766923E+02  0.41800000000E+01 0. -1.
         -5    1    3    3    0  502  0.49089776115E+02  0.40723892390E+02  0.41150680887E+03  0.41644155373E+03  0.41800000000E+01 0. -1.
        -11    1    1    2    0    0 -0.44299475558E+02  0.29901439059E+02  0.44927526448E+02  0.69821359376E+02  0.00000000000E+00 0.  1.
         11    1    1    2    0    0  0.54396638379E+01 -0.40992545092E+02  0.77659812444E+02  0.87983095903E+02  0.00000000000E+00 0. -1.
</event>
<event>
 7    1  0.2522928E-009  0.1054508E+03  0.7561462E-02  0.1269234E+00
          1   -1    0    0  501    0  0.00000000000E+00  0.00000000000E+00  0.12803041691E+03  0.12803041691E+03  0.00000000000E+00 0. -1.
         -1   -1    0    0    0  501 -0.00000000000E+00 -0.00000000000E+00 -0.14152786359E+03  0.14152786359E+03  0.00000000000E+00 0.  1.
         25    2    1    2    0    0 -0.11728481573E+02  0.74642175597E+02 -0.23211197165E+02  0.14797253842E+03  0.12509236905E+03 0.  0.
          5    1    3    3  502    0  0.35652456560E+02  0.27493752378E+02  0.36605472855E+02  0.58175915305E+02  0.41800000000E+01 0. -1.
         -5    1    3    3    0  502 -0.47380938132E+02  0.47148423219E+02 -0.59816670020E+02  0.89796623114E+02  0.41800000000E+01 0. -1.
        -11    1    1    2    0    0  0.30862686701E+02 -0.73298909503E+02  0.37414323456E+02  0.87892361240E+02  0.00000000000E+00 0. -1.
         11    1    1    2    0    0 -0.19134205128E+02 -0.13432660938E+01 -0.27700572973E+02  0.33693380844E+02  0.00000000000E+00 0.  1.
</event>
<event>
 7    1  0.2522928E-009  0.1293712E+03  0.7561462E-02  0.1228392E+00
         -1   -1    0    0    0  501 -0.00000000000E+00  0.00000000000E+00  0.23533782727E+02  0.23533782727E+02  0.00000000000E+00 0.  1.
          1   -1    0    0  501    0  0.00000000000E+00 -0.00000000000E+00 -0.87021936963E+03  0.87021936963E+03  0.00000000000E+00 0. -1.
         25    2    1    2    0    0 -0.50205845538E+02 -0.69018910556E+02 -0.58048351166E+03  0.59989809230E+03  0.12502950409E+03 0.  0.
          5    1    3    3  502    0  0.40463756103E+01  0.28210111445E+02 -0.48808519565E+02  0.56673869865E+02  0.41800000000E+01 0.  1.
         -5    1    3    3    0  502 -0.54252221148E+02 -0.97229022001E+02 -0.53167499210E+03  0.54322422244E+03  0.41800000000E+01 0.  1.
        -11    1    1    2    0    0  0.64616072252E+02  0.20324079856E+02 -0.10598008525E+03  0.12577791335E+03  0.00000000000E+00 0.  1.
         11    1    1    2    0    0 -0.14410226714E+02  0.48694830700E+02 -0.16022198998E+03  0.16807714671E+03  0.00000000000E+00 0. -1.
</event>
<event>
 7    1  0.2522928E-009  0.1881686E+03  0.7561462E-02  0.1160124E+00
          2   -1    0    0  501    0  0.00000000000E+00  0.00000000000E+00  0.18126187001E+03  0.18126187001E+03  0.00000000000E+00 0. -1.
         -2   -1    0    0    0  501 -0.00000000000E+00 -0.00000000000E+00 -0.25678158974E+03  0.25678158974E+03  0.00000000000E+00 0.  1.
         25    2    1    2    0    0  0.16368669614E+03  0.88006747954E+02 -0.41393540246E+02  0.22781420051E+03  0.12508941842E+03 0.  0.
          5    1    3    3  502    0  0.75977319200E+02  0.47820951666E+02 -0.83306397931E+02  0.12254315480E+03  0.41800000000E+01 0.  1.
         -5    1    3    3    0  502  0.87709376944E+02  0.40185796288E+02  0.41912857685E+02  0.10527104572E+03  0.41800000000E+01 0.  1.
        -11    1    1    2    0    0 -0.63952803072E+02 -0.56416935113E+02  0.26514427806E+02  0.89307594695E+02  0.00000000000E+00 0. -1.
         11    1    1    2    0    0 -0.99733893072E+02 -0.31589812841E+02 -0.60640607293E+02  0.12092166454E+03  0.00000000000E+00 0.  1.
</event>
<event>
 7    1  0.2522928E-009  0.1158995E+03  0.7561462E-02  0.1250019E+00
          2   -1    0    0  501    0  0.00000000000E+00  0.00000000000E+00  0.52557935805E+03  0.52557935805E+03  0.00000000000E+00 0. -1.
         -2   -1    0    0    0  501 -0.00000000000E+00 -0.00000000000E+00 -0.36475030064E+02  0.36475030064E+02  0.00000000000E+00 0.  1.
         25    2    1    2    0    0 -0.18859482363E+02 -0.35928034499E+02  0.41882858466E+03  0.43898853746E+03  0.12508816473E+03 0.  0.
          5    1    3    3  502    0 -0.67799253410E+02  0.35349826967E+01  0.19868608804E+03  0.21000683047E+03  0.41800000000E+01 0. -1.
         -5    1    3    3    0  502  0.48939771048E+02 -0.39463017196E+02  0.22014249662E+03  0.22898170699E+03  0.41800000000E+01 0. -1.
        -11    1    1    2    0    0 -0.59016125387E+01  0.63465487782E+02  0.48619462838E+02  0.80165761623E+02  0.00000000000E+00 0.  1.
         11    1    1    2    0    0  0.24761094901E+02 -0.27537453283E+02  0.21656280486E+02  0.42900089027E+02  0.00000000000E+00 0. -1.
</event>
<event>
 7    1  0.2522928E-009  0.1356732E+03  0.7561462E-02  0.1219273E+00
         -2   -1    0    0    0  501 -0.00000000000E+00  0.00000000000E+00  0.35555616732E+02  0.35555616732E+02  0.00000000000E+00 0.  1.
          2   -1    0    0  501    0  0.00000000000E+00 -0.00000000000E+00 -0.55515652438E+03  0.55515652438E+03  0.00000000000E+00 0. -1.
         25    2    1    2    0    0 -0.89481304325E+02 -0.95377514196E+01 -0.28895421143E+03  0.32747406284E+03  0.12508738148E+03 0.  0.
          5    1    3    3  502    0 -0.40699385138E+02 -0.66944536190E+02 -0.15534382991E+03  0.17403214866E+03  0.41800000000E+01 0. -1.
         -5    1    3    3    0  502 -0.48781919187E+02  0.57406784771E+02 -0.13361038152E+03  0.15344191418E+03  0.41800000000E+01 0. -1.
        -11    1    1    2    0    0  0.49997756926E+01  0.30083035624E+02 -0.23228644145E+02  0.38334797484E+02  0.00000000000E+00 0.  1.
         11    1    1    2    0    0  0.84481528632E+02 -0.20545284204E+02 -0.20741805207E+03  0.22490328079E+03  0.00000000000E+00 0. -1.
</event>
<event>
 7    1  0.2522928E-009  0.1587783E+03  0.7561462E-02  0.1190083E+00
          1   -1    0    0  501    0  0.00000000000E+00  0.00000000000E+00  0.63917664916E+02  0.63917664916E+02  0.00000000000E+00 0. -1.
         -1   -1    0    0    0  501 -0.00000000000E+00 -0.00000000000E+00 -0.40163763008E+03  0.40163763008E+03  0.00000000000E+00 0.  1.
         25    2    1    2    0    0  0.10142270349E+03 -0.56014687277E+02 -0.16140346380E+03  0.23478455183E+03  0.12509395539E+03 0.  0.
          5    1    3    3  502    0  0.12522318473E+02  0.37852865180E+02 -0.49887433721E+02  0.63999033630E+02  0.41800000000E+01 0.  1.
         -5    1    3    3    0  502  0.88900385022E+02 -0.93867552457E+02 -0.11151603008E+03  0.17078551820E+03  0.41800000000E+01 0.  1.
        -11    1    1    2    0    0 -0.43428571833E+02  0.75362029142E+02 -0.91824413717E+02  0.12648003496E+03  0.00000000000E+00 0.  1.
         11    1    1    2    0    0 -0.57994131662E+02 -0.19347341866E+02 -0.84492087646E+02  0.10429070821E+03  0.00000000000E+00 0. -1.
</event>
<event>
 7    1  0.2679276E-009  0.8375567E+02  0.7561462E-02  0.1318719E+00
          2   -1    0    0  501    0  0.00000000000E+00  0.00000000000E+00  0.42670488305E+03  0.42670488305E+03  0.00000000000E+00 0. -1.
         -2   -1    0    0    0  501 -0.00000000000E+00 -0.00000000000E+00 -0.32827852623E+02  0.32827852623E+02  0.00000000000E+00 0.  1.
         25    2    1    2    0    0  0.38800709602E+02  0.44480102037E+01  0.16787066462E+03  0.21296066171E+03  0.12508558483E+03 0.  0.
          5    1    3    3  502    0 -0.60686478603E+01  0.29731793571E+02  0.15725356920E+03  0.16020913040E+03  0.41800000000E+01 0. -1.
         -5    1    3    3    0  502  0.44869357462E+02 -0.25283783367E+02  0.10617095423E+02  0.52751531311E+02  0.41800000000E+01 0. -1.
        -11    1    1    2    0    0 -0.33614402101E+02  0.33175515827E+02  0.60433052067E+02  0.76698739632E+02  0.00000000000E+00 0. -1.
         11    1    1    2    0    0 -0.51863075009E+01 -0.37623526030E+02  0.16557331374E+03  0.16987333434E+03  0.00000000000E+00 0.  1.
</event>
<event>
 7    1  0.2522928E-009  0.1983508E+03  0.7561462E-02  0.1151138E+00
          2   -1    0    0  501    0  0.00000000000E+00  0.00000000000E+00  0.27329660200E+03  0.27329660200E+03  0.00000000000E+00 0. -1.
         -2   -1    0    0    0  501 -0.00000000000E+00 -0.00000000000E+00 -0.16754136477E+03  0.16754136477E+03  0.00000000000E+00 0.  1.
         25    2    1    2    0    0 -0.90181752362E+02  0.15305944494E+03  0.49584475091E+02  0.22285897345E+03  0.12509020638E+03 0.  0.
          5    1    3    3  502    0 -0.13138238955E+02 -0.12569716082E+02 -0.19988540718E+02  0.27342736609E+02  0.41800000000E+01 0. -1.
         -5    1    3    3    0  502 -0.77043513407E+02  0.16562916103E+03  0.69573015809E+02  0.19551623684E+03  0.41800000000E+01 0. -1.
        -11    1    1    2    0    0  0.92113173820E+02 -0.79313328873E+02  0.73702382057E+02  0.14215302336E+03  0.00000000000E+00 0. -1.
         11    1    1    2    0    0 -0.19314214586E+01 -0.73746116070E+02 -0.17531619917E+02  0.75825969965E+02  0.00000000000E+00 0.  1.
</event>
<event>
 7    1  0.2522928E-009  0.1000358E+03  0.7561462E-02  0.1280221E+00
          2   -1    0    0  501    0  0.00000000000E+00  0.00000000000E+00  0.24743711210E+03  0.24743711210E+03  0.00000000000E+00 0. -1.
         -2   -1    0    0    0  501 -0.00000000000E+00 -0.00000000000E+00 -0.57573853845E+02  0.57573853845E+02  0.00000000000E+00 0.  1.
         25    2    1    2    0    0 -0.34956486803E+02  0.16210110182E+02  0.68818648244E+02  0.14788574522E+03  0.12509781633E+03 0.  0.
          5    1    3    3  502    0 -0.11164524898E+02 -0.53263292605E+02  0.44480774870E+02  0.70410487063E+02  0.41800000000E+01 0. -1.
         -5    1    3    3    0  502 -0.23791961906E+02  0.69473402787E+02  0.24337873373E+02  0.77475258157E+02  0.41800000000E+01 0. -1.
        -11    1    1    2    0    0  0.20838195960E+01  0.21677103368E+02 -0.42278105834E+01  0.22183631282E+02  0.00000000000E+00 0.  1.
         11    1    1    2    0    0  0.32872667207E+02 -0.37887213550E+02  0.12527242059E+03  0.13494158944E+03  0.00000000000E+00 0. -1.
</event>
<event>
 7    1  0.2522928E-009  0.9120135E+02  0.7561462E-02  0.1299968E+00
         -4   -1    0    0    0  501 -0.00000000000E+00  0.00000000000E+00  0.73957523595E+02  0.73957523595E+02  0.00000000000E+00 0.  1.
          4   -1    0    0  501    0  0.00000000000E+00 -0.00000000000E+00 -0.25973021214E+03  0.25973021214E+03  0.00000000000E+00 0. -1.
         25    2    1    2    0    0  0.25180757374E+02  0.79571951419E+02 -0.73272382417E+02  0.16727882435E+03  0.12509035556E+03 0.  0.
          5    1    3    3  502    0  0.11083584633E+02  0.43168846644E+02  0.31932601700E+02  0.54986894986E+02  0.41800000000E+01 0. -1.
         -5    1    3    3    0  502  0.14097172741E+02  0.36403104775E+02 -0.10520498412E+03  0.11229192936E+03  0.41800000000E+01 0. -1.
        -11    1    1    2    0    0 -0.35498255201E+02 -0.26465217980E+02 -0.31281967227E+01  0.44388281109E+02  0.00000000000E+00 0.  1.
         11    1    1    2    0    0  0.10317497826E+02 -0.53106733439E+02 -0.10937210940E+03  0.12202063028E+03  0.00000000000E+00 0. -1.
</event>
<event>
 7    1  0.2522928E-009  0.1005975E+03  0.7561462E-02  0.1279045E+00
         -4   -1    0    0    0  501 -0.00000000000E+00  0.00000000000E+00  0.60437849629E+02  0.60437849629E+02  0.00000000000E+00 0.  1.
          4   -1    0    0  501    0  0.00000000000E+00 -0.00000000000E+00 -0.29096722136E+03  0.29096722136E+03  0.00000000000E+00 0. -1.
         25    2    1    2    0    0 -0.41084274776E+02 -0.41316377881E+02 -0.62745609051E+02  0.15159630714E+03  0.12509783439E+03 0.  0.
          5    1    3    3  502    0  0.16412845782E+02  0.99048629160E+01  0.26931877067E+02  0.33320957646E+02  0.41800000000E+01 0.  1.
         -5    1    3    3    0  502 -0.57497120558E+02 -0.51221240797E+02 -0.89677486118E+02  0.11827534949E+03  0.41800000000E+01 0.  1.
        -11    1    1    2    0    0  0.17548857792E+02  0.67211791642E+02 -0.13516746742E+03  0.15197246986E+03  0.00000000000E+00 0. -1.
         11    1    1    2    0    0  0.23535416984E+02 -0.25895413761E+02 -0.32616295258E+02  0.47836293991E+02  0.00000000000E+00 0.  1.
</event>
<event>
 7    1  0.2522928E-009  0.7947312E+02  0.7561462E-02  0.1330553E+00
          2   -1    0    0  501    0  0.00000000000E+00  0.00000000000E+00  0.31307240809E+03  0.31307240809E+03  0.00000000000E+00 0. -1.
         -2   -1    0    0    0  501 -0.00000000000E+00 -0.00000000000E+00 -0.27883497457E+02  0.27883497457E+02  0.00000000000E+00 0.  1.
         25    2    1    2    0    0  0.13924952132E+02 -0.25216930920E+02  0.15795562653E+03  0.20353663548E+03  0.12508950449E+03 0.  0.
          5    1    3    3  502    0  0.41470224023E+02 -0.57754702643E+02  0.14002704313E+03  0.15710006482E+03  0.41800000000E+01 0. -1.
         -5    1    3    3    0  502 -0.27545271891E+02  0.32537771722E+02  0.17928583404E+02  0.46436570664E+02  0.41800000000E+01 0. -1.
        -11    1    1    2    0    0 -0.17829193447E+02 -0.14938364753E+01  0.19975481983E+02  0.26816628551E+02  0.00000000000E+00 0. -1.
         11    1    1    2    0    0  0.39042413149E+01  0.26710767396E+02  0.10725780212E+03  0.11060264152E+03  0.00000000000E+00 0.  1.
</event>
<event>
 7    1  0.2522928E-009  0.1201749E+03  0.7561462E-02  0.1242809E+00
         -2   -1    0    0    0  501 -0.00000000000E+00  0.00000000000E+00  0.27176398704E+02  0.27176398704E+02  0.00000000000E+00 0. -1.
          2   -1    0    0  501    0  0.00000000000E+00 -0.00000000000E+00 -0.87093470432E+03  0.87093470432E+03  0.00000000000E+00 0.  1.
         25    2    1    2    0    0 -0.10166952534E+03 -0.60598851623E+01 -0.35029268532E+03  0.38564980393E+03  0.12508953311E+03 0.  0.
          5    1    3    3  502    0 -0.47114932795E+02  0.18765669797E+02 -0.30799738793E+03  0.31217275766E+03  0.41800000000E+01 0.  1.
         -5    1    3    3    0  502 -0.54554592549E+02 -0.24825554960E+02 -0.42295297388E+02  0.73477046269E+02  0.41800000000E+01 0.  1.
        -11    1    1    2    0    0  0.34931852240E+02 -0.36265107902E+02 -0.28708779758E+03  0.29147005999E+03  0.00000000000E+00 0.  1.
         11    1    1    2    0    0  0.66737673104E+02  0.42324993065E+02 -0.20637782272E+03  0.22099123910E+03  0.00000000000E+00 0. -1.
</event>
<event>
 7    1  0.2522928E-009  0.1928709E+03  0.7561462E-02  0.1155897E+00
          2   -1    0    0  501    0  0.00000000000E+00  0.00000000000E+00  0.36590072639E+02  0.36590072639E+02  0.00000000000E+00 0. -1.
         -2   -1    0    0    0  501 -0.00000000000E+00 -0.00000000000E+00 -0.12952220557E+04  0.12952220557E+04  0.00000000000E+00 0.  1.
         25    2    1    2    0    0  0.17929690047E+03  0.20886473295E+02 -0.48787311070E+03  0.53502320115E+03  0.12508409307E+03 0.  0.
          5    1    3    3  502    0  0.15058380077E+03  0.29625463950E+02 -0.23736209859E+03  0.28268602267E+03  0.41800000000E+01 0.  1.
         -5    1    3    3    0  502  0.28713099699E+02 -0.87389906554E+01 -0.25051101211E+03  0.25233717847E+03  0.41800000000E+01 0.  1.
        -11    1    1    2    0    0 -0.91345721975E+02 -0.56072586812E+02 -0.39745567326E+03  0.41165420940E+03  0.00000000000E+00 0. -1.
         11    1    1    2    0    0 -0.87951178496E+02  0.35186113517E+02 -0.37330319915E+03  0.38513471783E+03  0.00000000000E+00 0.  1.
</event>
<event>
 7    1  0.2522928E-009  0.9573820E+02  0.7561462E-02  0.1289522E+00
         -2   -1    0    0    0  501 -0.00000000000E+00  0.00000000000E+00  0.84970029378E+02  0.84970029378E+02  0.00000000000E+00 0. -1.
          2   -1    0    0  501    0  0.00000000000E+00 -0.00000000000E+00 -0.18117154591E+03  0.18117154591E+03  0.00000000000E+00 0.  1.
         25    2    1    2    0    0  0.27603894409E+02  0.14764759300E+02  0.99247860266E+00  0.12895430288E+03  0.12509298187E+03 0.  0.
          5    1    3    3  502    0  0.43380448260E+02 -0.29021062210E+02 -0.40709366230E+02  0.66323527061E+02  0.41800000000E+01 0. -1.
         -5    1    3    3    0  502 -0.15776553851E+02  0.43785821510E+02  0.41701844832E+02  0.62630775814E+02  0.41800000000E+01 0. -1.
        -11    1    1    2    0    0 -0.54059253180E+02 -0.30034095033E+02 -0.44177115122E+02  0.76000442231E+02  0.00000000000E+00 0. -1.
         11    1    1    2    0    0  0.26455358770E+02  0.15269335733E+02 -0.53016880014E+02  0.61186830183E+02  0.00000000000E+00 0.  1.
</event>
<event>
 7    1  0.2522928E-009  0.5993059E+02  0.7561462E-02  0.1398123E+00
          2   -1    0    0  501    0  0.00000000000E+00  0.00000000000E+00  0.78975470763E+03  0.78975470763E+03  0.00000000000E+00 0. -1.
         -2   -1    0    0    0  501 -0.00000000000E+00 -0.00000000000E+00 -0.15913004389E+02  0.15913004389E+02  0.00000000000E+00 0.  1.
         25    2    1    2    0    0  0.25658602678E+02  0.79899691996E+01  0.46877337023E+03  0.48591684860E+03  0.12507800611E+03 0.  0.
          5    1    3    3  502    0  0.37017493857E+02  0.40396785756E+01  0.32921232514E+02  0.49878791131E+02  0.41800000000E+01 0.  1.
         -5    1    3    3    0  502 -0.11358891179E+02  0.39502906240E+01  0.43585213772E+03  0.43603805746E+03  0.41800000000E+01 0.  1.
        -11    1    1    2    0    0 -0.44697187326E+02 -0.17955769681E+02  0.28882284808E+03  0.29281203150E+03  0.00000000000E+00 0. -1.
         11    1    1    2    0    0  0.19038584648E+02  0.99658004810E+01  0.16245484931E+02  0.26938831921E+02  0.00000000000E+00 0.  1.
</event>
<event>
 7    1  0.2522928E-009  0.7091185E+02  0.7561462E-02  0.1357019E+00
         -2   -1    0    0    0  501 -0.00000000000E+00  0.00000000000E+00  0.29247795545E+03  0.29247795545E+03  0.00000000000E+00 0.  1.
          2   -1    0    0  501    0  0.00000000000E+00 -0.00000000000E+00 -0.29557565404E+02  0.29557565404E+02  0.00000000000E+00 0. -1.
         25    2    1    2    0    0 -0.27969778499E+02  0.69104075001E+01  0.18007961775E+03  0.22114699218E+03  0.12508901303E+03 0.  0.
          5    1    3    3  502    0  0.33847454219E+02 -0.21037959263E+01  0.14583235009E+03  0.14978191762E+03  0.41800000000E+01 0.  1.
         -5    1    3    3    0  502 -0.61817232718E+02  0.90142034263E+01  0.34247267662E+02  0.71365074557E+02  0.41800000000E+01 0.  1.
        -11    1    1    2    0    0  0.23366340391E+02  0.11516584395E+02  0.14201436619E+02  0.29669822741E+02  0.00000000000E+00 0. -1.
         11    1    1    2    0    0  0.46034381073E+01 -0.18426991895E+02  0.68639335676E+02  0.71218705933E+02  0.00000000000E+00 0.  1.
</event>
<event>
 7    1  0.2522928E-009  0.8210695E+02  0.7561462E-02  0.1323176E+00
         -2   -1    0    0    0  501 -0.00000000000E+00  0.00000000000E+00  0.20293879586E+03  0.20293879586E+03  0.00000000000E+00 0.  1.
          2   -1    0    0  501    0  0.00000000000E+00 -0.00000000000E+00 -0.60536202348E+02  0.60536202348E+02  0.00000000000E+00 0. -1.
         25    2    1    2    0    0  0.80899240451E+01  0.19872755367E+02  0.93404886468E+02  0.15757835069E+03  0.12508433360E+03 0.  0.
          5    1    3    3  502    0  0.24853693078E+02 -0.19828698188E+02 -0.18895028677E+02  0.37220664155E+02  0.41800000000E+01 0.  1.
         -5    1    3    3    0  502 -0.16763769033E+02  0.39701453555E+02  0.11229991514E+03  0.12035768654E+03  0.41800000000E+01 0.  1.
        -11    1    1    2    0    0  0.38899607721E+02 -0.14659775761E+02  0.40158566240E+02  0.57799644884E+02  0.00000000000E+00 0.  1.
         11    1    1    2    0    0 -0.46989531766E+02 -0.52129796057E+01  0.88391408019E+01  0.48097002631E+02  0.00000000000E+00 0. -1.
</event>
<event>
 7    1  0.2522928E-009  0.1083819E+03  0.7561462E-02  0.1263596E+00
          3   -1    0    0  501    0  0.00000000000E+00  0.00000000000E+00  0.27310013126E+03  0.27310013126E+03  0.00000000000E+00 0. -1.
         -3   -1    0    0    0  501 -0.00000000000E+00 -0.00000000000E+00 -0.48662178257E+02  0.48662178257E+02  0.00000000000E+00 0.  1.
         25    2    1    2    0    0 -0.34970082126E+02  0.10711188365E+02  0.10559816935E+03  0.16773926605E+03  0.12509137383E+03 0.  0.
          5    1    3    3  502    0  0.16777630829E+02 -0.42575391588E+02  0.10746680178E+02  0.47192334123E+02  0.41800000000E+01 0.  1.
         -5    1    3    3    0  502 -0.51747712955E+02  0.53286579953E+02  0.94851489176E+02  0.12054693193E+03  0.41800000000E+01 0.  1.
        -11    1    1    2    0    0  0.49234635473E+02 -0.40262623924E+02  0.64776548782E+02  0.90780666926E+02  0.00000000000E+00 0.  1.
         11    1    1    2    0    0 -0.14264553347E+02  0.29551435558E+02  0.54063234871E+02  0.63242376541E+02  0.00000000000E+00 0. -1.
</event>
<event>
 7    1  0.2522928E-009  0.1564846E+03  0.7561462E-02  0.1192724E+00
          2   -1    0    0  501    0  0.00000000000E+00  0.00000000000E+00  0.28360415648E+03  0.28360415648E+03  0.00000000000E+00 0. -1.
         -2   -1    0    0    0  501 -0.00000000000E+00 -0.00000000000E+00 -0.10639204192E+03  0.10639204192E+03  0.00000000000E+00 0.  1.
         25    2    1    2    0    0  0.28489556439E+02 -0.12849406296E+03  0.11816514699E+03  0.21664515870E+03  0.12509893598E+03 0.  0.
          5    1    3    3  502    0 -0.37840961311E+02 -0.16135630252E+01  0.29493149716E+02  0.48185684791E+02  0.41800000000E+01 0.  1.
         -5    1    3    3    0  502  0.66330517751E+02 -0.12688049993E+03  0.88671997277E+02  0.16845947391E+03  0.41800000000E+01 0.  1.
        -11    1    1    2    0    0 -0.59111508615E+01  0.23035349942E+02 -0.26563691089E+02  0.35653874064E+02  0.00000000000E+00 0.  1.
         11    1    1    2    0    0 -0.22578405578E+02  0.10545871302E+03  0.85610658651E+02  0.13769716564E+03  0.00000000000E+00 0. -1.
</event>
<event>
 7    1  0.2522928E-009  0.1514478E+03  0.7561462E-02  0.1198705E+00
          2   -1    0    0  501    0  0.00000000000E+00  0.00000000000E+00  0.15030331741E+03  0.15030331741E+03  0.00000000000E+00 0. -1.
         -2   -1    0    0    0  501 -0.00000000000E+00 -0.00000000000E+00 -0.23361738964E+03  0.23361738964E+03  0.00000000000E+00 0.  1.
         25    2    1    2    0    0  0.46600985902E+02  0.13171407654E+03 -0.10636253978E+03  0.21559272786E+03  0.12508790745E+03 0.  0.
          5    1    3    3  502    0  0.36022583919E+02  0.13253339983E+03 -0.32951338353E+02  0.14130106766E+03  0.41800000000E+01 0.  1.
         -5    1    3    3    0  502  0.10578401983E+02 -0.81932329019E+00 -0.73411201429E+02  0.74291660194E+02  0.41800000000E+01 0.  1.
        -11    1    1    2    0    0 -0.36587590553E+02 -0.19562971969E+02 -0.22109610393E+02  0.47012727282E+02  0.00000000000E+00 0.  1.
         11    1    1    2    0    0 -0.10013395349E+02 -0.11215110457E+03  0.45158077944E+02  0.12131525191E+03  0.00000000000E+00 0. -1.
</event>
<event>
 7    1  0.2727635E-009  0.7178697E+02  0.7561462E-02  0.1354120E+00
          2   -1    0    0  501    0  0.00000000000E+00  0.00000000000E+00  0.15121033912E+03  0.15121033912E+03  0.00000000000E+00 0.  1.
         -2   -1    0    0    0  501 -0.00000000000E+00 -0.00000000000E+00 -0.95506052574E+02  0.95506052574E+02  0.00000000000E+00 0. -1.
         25    2    1    2    0    0  0.43112350393E+02  0.16015030537E+02  0.80729446400E+01  0.13351790433E+03  0.12508677940E+03 0.  0.
          5    1    3    3  502    0  0.47751612301E+02 -0.48097449245E+01  0.60162315991E+02  0.77073515483E+02  0.41800000000E+01 0. -1.
         -5    1    3    3    0  502 -0.46392619085E+01  0.20824775462E+02 -0.52089371351E+02  0.56444388842E+02  0.41800000000E+01 0. -1.
        -11    1    1    2    0    0 -0.19395262637E+02 -0.37138529332E+02  0.64746472791E+02  0.77120375470E+02  0.00000000000E+00 0.  1.
         11    1    1    2    0    0 -0.23717087756E+02  0.21123498795E+02 -0.17115130885E+02  0.36078111899E+02  0.00000000000E+00 0. -1.
</event>
<event>
 7    1  0.2522928E-009  0.1060188E+03  0.7561462E-02  0.1268125E+00
         -2   -1    0    0    0  501 -0.00000000000E+00  0.00000000000E+00  0.82040131698E+03  0.82040131698E+03  0.00000000000E+00 0.  1.
          2   -1    0    0  501    0  0.00000000000E+00 -0.00000000000E+00 -0.15211190121E+02  0.15211190121E+02  0.00000000000E+00 0. -1.
         25    2    1    2    0    0 -0.15213146381E+02 -0.19775994695E+02  0.43596108982E+03  0.45423815126E+03  0.12509075280E+03 0.  0.
          5    1    3    3  502    0  0.94966495440E+01 -0.68883973964E+02  0.28896240421E+03  0.29724052831E+03  0.41800000000E+01 0.  1.
         -5    1    3    3    0  502 -0.24709795925E+02  0.49107979269E+02  0.14699868561E+03  0.15699762295E+03  0.41800000000E+01 0.  1.
        -11    1    1    2    0    0 -0.34684860525E+01  0.50859773385E+02  0.28715699796E+03  0.29164685567E+03  0.00000000000E+00 0.  1.
         11    1    1    2    0    0  0.18681632434E+02 -0.31083778691E+02  0.82072039081E+02  0.89727500172E+02  0.00000000000E+00 0. -1.
</event>
<event>
 7    1  0.2522928E-009  0.1742260E+03  0.7561462E-02  0.1173511E+00
          2   -1    0    0  501    0  0.00000000000E+00  0.00000000000E+00  0.22147140545E+03  0.22147140545E+03  0.00000000000E+00 0. -1.
         -2   -1    0    0    0  501 -0.00000000000E+00 -0.00000000000E+00 -0.17576946365E+03  0.17576946365E+03  0.00000000000E+00 0.  1.
         25    2    1    2    0    0  0.39701810957E+02 -0.15902079439E+03  0.39166276997E+02  0.20989169477E+03  0.12512665359E+03 0.  0.
          5    1    3    3  502    0  0.19693205588E+02 -0.10173986835E+03  0.84709772282E+02  0.13391057120E+03  0.41800000000E+01 0.  1.
         -5    1    3    3    0  502  0.20008605370E+02 -0.57280926035E+02 -0.45543495285E+02  0.75981123570E+02  0.41800000000E+01 0.  1.
        -11    1    1    2    0    0 -0.56929243359E+02  0.57377056793E+02 -0.14536963529E+02  0.82124227267E+02  0.00000000000E+00 0.  1.
         11    1    1    2    0    0  0.17227432402E+02  0.10164373759E+03  0.21072628327E+02  0.10522494706E+03  0.00000000000E+00 0. -1.
</event>
<event>
 7    1  0.2522928E-009  0.1950532E+03  0.7561462E-02  0.1153981E+00
          1   -1    0    0  501    0  0.00000000000E+00  0.00000000000E+00  0.11491006415E+04  0.11491006415E+04  0.00000000000E+00 0. -1.
         -1   -1    0    0    0  501 -0.00000000000E+00 -0.00000000000E+00 -0.33827385618E+02  0.33827385618E+02  0.00000000000E+00 0.  1.
         25    2    1    2    0    0 -0.14140149266E+03 -0.82639607371E+02  0.61592303658E+03  0.64948598700E+03  0.12508866255E+03 0.  0.
          5    1    3    3  502    0 -0.15462130627E+03 -0.98333987007E+02  0.57515416819E+03  0.60365313793E+03  0.41800000000E+01 0. -1.
         -5    1    3    3    0  502  0.13219813617E+02  0.15694379636E+02  0.40768868391E+02  0.45832849072E+02  0.41800000000E+01 0. -1.
        -11    1    1    2    0    0  0.60876776199E+02  0.85901165554E+02  0.24602800289E+03  0.26760936144E+03  0.00000000000E+00 0.  1.
         11    1    1    2    0    0  0.80524716457E+02 -0.32615581832E+01  0.25332221645E+03  0.26583267871E+03  0.00000000000E+00 0. -1.
</event>
<event>
 7    1  0.2522928E-009  0.2007088E+03  0.7561462E-02  0.1149142E+00
         -1   -1    0    0    0  501 -0.00000000000E+00  0.00000000000E+00  0.49973110613E+02  0.49973110613E+02  0.00000000000E+00 0.  1.
          1   -1    0    0  501    0  0.00000000000E+00 -0.00000000000E+00 -0.11013777813E+04  0.11013777813E+04  0.00000000000E+00 0. -1.
         25    2    1    2    0    0  0.16177808520E+03 -0.11445369080E+03 -0.39351294000E+03  0.45800836173E+03  0.12508968494E+03 0.  0.
          5    1    3    3  502    0  0.10086947837E+03 -0.80924332209E+02 -0.35624109661E+03  0.37901001376E+03  0.41800000000E+01 0. -1.
         -5    1    3    3    0  502  0.60908606826E+02 -0.33529358595E+02 -0.37271843382E+02  0.78998347973E+02  0.41800000000E+01 0. -1.
        -11    1    1    2    0    0 -0.86551517890E+02  0.85820034728E+02 -0.25685019781E+03  0.28430312648E+03  0.00000000000E+00 0.  1.
         11    1    1    2    0    0 -0.75226567311E+02  0.28633656076E+02 -0.40104153291E+03  0.40903940374E+03  0.00000000000E+00 0. -1.
</event>
<event>
 7    1  0.2522928E-009  0.1164305E+03  0.7561462E-02  0.1249105E+00
         -1   -1    0    0    0  501 -0.00000000000E+00  0.00000000000E+00  0.61947975296E+02  0.61947975296E+02  0.00000000000E+00 0.  1.
          1   -1    0    0  501    0  0.00000000000E+00 -0.00000000000E+00 -0.65598703948E+03  0.65598703948E+03  0.00000000000E+00 0. -1.
         25    2    1    2    0    0 -0.82937783538E+02 -0.52184419032E+01 -0.47191073015E+02  0.15741458355E+03  0.12508575326E+03 0.  0.
          5    1    3    3  502    0 -0.92456772797E+02  0.88185738983E+01  0.13784142249E+02  0.93986685542E+02  0.41800000000E+01 0.  1.
         -5    1    3    3    0  502  0.95189892595E+01 -0.14037015802E+02 -0.60975215264E+02  0.63427898007E+02  0.41800000000E+01 0.  1.
        -11    1    1    2    0    0  0.19868178149E+02 -0.40105233712E+02 -0.17351298045E+03  0.17919243472E+03  0.00000000000E+00 0.  1.
         11    1    1    2    0    0  0.63069605389E+02  0.45323675616E+02 -0.37333501072E+03  0.38132799651E+03  0.00000000000E+00 0. -1.
</event>
<event>
 7    1  0.2522928E-009  0.1163466E+03  0.7561462E-02  0.1249249E+00
         -3   -1    0    0    0  501 -0.00000000000E+00  0.00000000000E+00  0.12072064175E+03  0.12072064175E+03  0.00000000000E+00 0.  1.
          3   -1    0    0  501    0  0.00000000000E+00 -0.00000000000E+00 -0.13938607570E+03  0.13938607570E+03  0.00000000000E+00 0. -1.
         25    2    1    2    0    0  0.59088886306E+02 -0.99550284745E+01  0.30426254861E+02  0.14198867551E+03  0.12507768751E+03 0.  0.
          5    1    3    3  502    0 -0.33639421417E+02  0.82381946066E+01 -0.13870909228E+02  0.37541351153E+02  0.41800000000E+01 0. -1.
         -5    1    3    3    0  502  0.92728307723E+02 -0.18193223081E+02  0.44297164089E+02  0.10444732436E+03  0.41800000000E+01 0. -1.
        -11    1    1    2    0    0  0.18520331647E+02  0.17197042743E+02  0.12907363599E+01  0.25306263331E+02  0.00000000000E+00 0.  1.
         11    1    1    2    0    0 -0.77609217953E+02 -0.72420142689E+01 -0.50382425179E+02  0.92811778610E+02  0.00000000000E+00 0. -1.
</event>
<event>
 7    1  0.2522928E-009  0.1015175E+03  0.7561462E-02  0.1277137E+00
         -1   -1    0    0    0  501 -0.00000000000E+00  0.00000000000E+00  0.26975154317E+02  0.26975154317E+02  0.00000000000E+00 0.  1.
          1   -1    0    0  501    0  0.00000000000E+00 -0.00000000000E+00 -0.10463216950E+04  0.10463216950E+04  0.00000000000E+00 0. -1.
         25    2    1    2    0    0 -0.69879815450E+02 -0.21937106351E+01 -0.87832800641E+03  0.88994132959E+03  0.12508989688E+03 0.  0.
          5    1    3    3  502    0 -0.75606146773E+02  0.31432978703E+02 -0.31266987756E+03  0.32324023003E+03  0.41800000000E+01 0.  1.
         -5    1    3    3    0  502  0.57263313235E+01 -0.33626689338E+02 -0.56565812885E+03  0.56670109955E+03  0.41800000000E+01 0.  1.
        -11    1    1    2    0    0  0.15554903969E+02 -0.22220361482E+02 -0.11535840396E+03  0.11850426518E+03  0.00000000000E+00 0. -1.
         11    1    1    2    0    0  0.54324911481E+02  0.24414072117E+02 -0.25660130271E+02  0.64851254501E+02  0.00000000000E+00 0.  1.
</event>
<event>
 7    1  0.2522928E-009  0.1132230E+03  0.7561462E-02  0.1254715E+00
          2   -1    0    0  501    0  0.00000000000E+00  0.00000000000E+00  0.24231026481E+03  0.24231026481E+03  0.00000000000E+00 0. -1.
         -2   -1    0    0    0  501 -0.00000000000E+00 -0.00000000000E+00 -0.82593727775E+02  0.82593727775E+02  0.00000000000E+00 0.  1.
         25    2    1    2    0    0  0.47927370723E+02 -0.22455865730E+02  0.14344860961E+01  0.13583323486E+03  0.12508921285E+03 0.  0.
          5    1    3    3  502    0 -0.33374251170E+02 -0.27382464491E+02  0.26109580557E+02  0.50624328140E+02  0.41800000000E+01 0. -1.
         -5    1    3    3    0  502  0.81301621893E+02  0.49265987605E+01 -0.24675094461E+02  0.85208906720E+02  0.41800000000E+01 0. -1.
        -11    1    1    2    0    0 -0.50868304880E+02  0.51462996216E+02  0.95216842994E+02  0.11959210514E+03  0.00000000000E+00 0. -1.
         11    1    1    2    0    0  0.29409341570E+01 -0.29007130485E+02  0.63065207946E+02  0.69478652592E+02  0.00000000000E+00 0.  1.
</event>
<event>
 7    1  0.2522928E-009  0.9630221E+02  0.7561462E-02  0.1288270E+00
          2   -1    0    0  501    0  0.00000000000E+00  0.00000000000E+00  0.46862289956E+03  0.46862289956E+03  0.00000000000E+00 0. -1.
         -2   -1    0    0    0  501 -0.00000000000E+00 -0.00000000000E+00 -0.32387075636E+02  0.32387075636E+02  0.00000000000E+00 0.  1.
         25    2    1    2    0    0 -0.25531403803E+02  0.19926356973E+02  0.15638114533E+03  0.20285953876E+03  0.12509203639E+03 0.  0.
          5    1    3    3  502    0 -0.11084513064E+02  0.52786096791E+02  0.15767582294E+03  0.16669845826E+03  0.41800000000E+01 0.  1.
         -5    1    3    3    0  502 -0.14446890739E+02 -0.32859739818E+02 -0.12946776117E+01  0.36161080502E+02  0.41800000000E+01 0.  1.
        -11    1    1    2    0    0 -0.37124145759E+02 -0.19108021777E+01  0.11563525305E+03  0.12146343117E+03  0.00000000000E+00 0. -1.
         11    1    1    2    0    0  0.62655549562E+02 -0.18015554795E+02  0.16421942555E+03  0.17668700528E+03  0.00000000000E+00 0.  1.
</event>
<event>
 7    1  0.2522928E-009  0.1317742E+03  0.7561462E-02  0.1224847E+00
          3   -1    0    0  501    0  0.00000000000E+00  0.00000000000E+00  0.19924916497E+04  0.19924916497E+04  0.00000000000E+00 0. -1.
         -3   -1    0    0    0  501 -0.00000000000E+00 -0.00000000000E+00 -0.12613596417E+02  0.12613596417E+02  0.00000000000E+00 0.  1.
         25    2    1    2    0    0  0.22288978735E+02  0.88802580963E+02  0.14676387801E+04  0.14758015850E+04  0.12507610673E+03 0.  0.
          5    1    3    3  502    0 -0.36310082978E+02  0.53558823561E+02  0.34280930848E+03  0.34888775285E+03  0.41800000000E+01 0. -1.
         -5    1    3    3    0  502  0.58599061713E+02  0.35243757402E+02  0.11248294716E+04  0.11269138321E+04  0.41800000000E+01 0. -1.
        -11    1    1    2    0    0 -0.51643711922E+02 -0.86511948399E+02  0.43799323765E+03  0.44943238248E+03  0.00000000000E+00 0. -1.
         11    1    1    2    0    0  0.29354733187E+02 -0.22906325644E+01  0.74246035513E+02  0.79871278614E+02  0.00000000000E+00 0.  1.
</event>
<event>
 7    1  0.2522928E-009  0.2047020E+03  0.7561462E-02  0.1145832E+00
         -1   -1    0    0    0  501 -0.00000000000E+00  0.00000000000E+00  0.18785549205E+03  0.18785549205E+03  0.00000000000E+00 0.  1.
          1   -1    0    0  501    0  0.00000000000E+00 -0.00000000000E+00 -0.39580990399E+03  0.39580990399E+03  0.00000000000E+00 0. -1.
         25    2    1    2    0    0 -0.34180338564E+02  0.18564131742E+03  0.65523970154E+02  0.23573685801E+03  0.12508989280E+03 0.  0.
          5    1    3    3  502    0  0.22923286177E+02  0.94262786398E+02  0.81442885537E+02  0.12673344449E+03  0.41800000000E+01 0. -1.
         -5    1    3    3    0  502 -0.57103624742E+02  0.91378531021E+02 -0.15918915383E+02  0.10900341351E+03  0.41800000000E+01 0. -1.
        -11    1    1    2    0    0  0.56665402753E+02 -0.16296164898E+03 -0.26256639267E+03  0.31417921234E+03  0.00000000000E+00 0. -1.
         11    1    1    2    0    0 -0.22485064189E+02 -0.22679668436E+02 -0.10911989424E+02  0.33749325699E+02  0.00000000000E+00 0.  1.
</event>
<event>
 7    1  0.2522928E-009  0.1086950E+03  0.7561462E-02  0.1263006E+00
          2   -1    0    0  501    0  0.00000000000E+00  0.00000000000E+00  0.47029444789E+02  0.47029444789E+02  0.00000000000E+00 0.  1.
         -2   -1    0    0    0  501 -0.00000000000E+00 -0.00000000000E+00 -0.79659070563E+03  0.79659070563E+03  0.00000000000E+00 0. -1.
         25    2    1    2    0    0  0.91502840724E+02  0.34602889465E+02 -0.65880667520E+03  0.67767565174E+03  0.12509166179E+03 0.  0.
          5    1    3    3  502    0  0.70310378155E+02  0.43043710966E+02 -0.17689874301E+03  0.19521001001E+03  0.41800000000E+01 0. -1.
         -5    1    3    3    0  502  0.21192462568E+02 -0.84408215013E+01 -0.48190793220E+03  0.48246564173E+03  0.41800000000E+01 0. -1.
        -11    1    1    2    0    0 -0.82606407658E+02 -0.48023461894E+02 -0.10673670688E+03  0.14325779586E+03  0.00000000000E+00 0. -1.
         11    1    1    2    0    0 -0.88964330659E+01  0.13420572430E+02  0.15982121240E+02  0.22686702823E+02  0.00000000000E+00 0.  1.
</event>
<event>
 7    1  0.2522928E-009  0.1638265E+03  0.7561462E-02  0.1184443E+00
          1   -1    0    0  501    0  0.00000000000E+00  0.00000000000E+00  0.53215105408E+03  0.53215105408E+03  0.00000000000E+00 0. -1.
         -1   -1    0    0    0  501 -0.00000000000E+00 -0.00000000000E+00 -0.77069796914E+02  0.77069796914E+02  0.00000000000E+00 0.  1.
         25    2    1    2    0    0 -0.11747755292E+03  0.47379729513E+02  0.40999442426E+03  0.44697685948E+03  0.12508825194E+03 0.  0.
          5    1    3    3  502    0 -0.90728960192E+02 -0.26609648611E+02  0.17253573724E+03  0.19678889868E+03  0.41800000000E+01 0.  1.
         -5    1    3    3    0  502 -0.26748592724E+02  0.73989378125E+02  0.23745868702E+03  0.25018796080E+03  0.41800000000E+01 0.  1.
        -11    1    1    2    0    0  0.56752863281E+02  0.23027190443E+02  0.29460004314E+02  0.67963452270E+02  0.00000000000E+00 0.  1.
         11    1    1    2    0    0  0.60724689635E+02 -0.70406919957E+02  0.15626828590E+02  0.94280539248E+02  0.00000000000E+00 0. -1.
</event>
<event>
 7    1  0.2522928E-009  0.2403461E+03  0.7561462E-02  0.1119563E+00
         -2   -1    0    0    0  501 -0.00000000000E+00  0.00000000000E+00  0.11179796210E+03  0.11179796210E+03  0.00000000000E+00 0.  1.
          2   -1    0    0  501    0  0.00000000000E+00 -0.00000000000E+00 -0.57525581232E+03  0.57525581232E+03  0.00000000000E+00 0. -1.
         25    2    1    2    0    0 -0.22172431037E+03  0.50481509016E+02 -0.21001789422E+03  0.33386470898E+03  0.12509226773E+03 0.  0.
          5    1    3    3  502    0 -0.15462223916E+02 -0.18684686540E+02 -0.72252165893E+02  0.76328538278E+02  0.41800000000E+01 0. -1.
         -5    1    3    3    0  502 -0.20626208646E+03  0.69166195556E+02 -0.13776572833E+03  0.25753617070E+03  0.41800000000E+01 0. -1.
        -11    1    1    2    0    0  0.92060511228E+02  0.14929366385E+02 -0.14305741407E+03  0.17077308754E+03  0.00000000000E+00 0.  1.
         11    1    1    2    0    0  0.12966379915E+03 -0.65410875401E+02 -0.11038254192E+03  0.18241597789E+03  0.00000000000E+00 0. -1.
</event>
<event>
 7    1  0.2522928E-009  0.7432762E+02  0.7561462E-02  0.1345966E+00
         -2   -1    0    0    0  501 -0.00000000000E+00  0.00000000000E+00  0.16417159128E+03  0.16417159128E+03  0.00000000000E+00 0.  1.
          2   -1    0    0  501    0  0.00000000000E+00 -0.00000000000E+00 -0.78960516029E+02  0.78960516029E+02  0.00000000000E+00 0. -1.
         25    2    1    2    0    0 -0.52664114164E+01 -0.30450422078E+02  0.58672700753E+02  0.14158098962E+03  0.12509087702E+03 0.  0.
          5    1    3    3  502    0  0.38019722738E+02  0.20478106198E+02 -0.11188961722E+02  0.44805327975E+02  0.41800000000E+01 0. -1.
         -5    1    3    3    0  502 -0.43286134155E+02 -0.50928528277E+02  0.69861662475E+02  0.96775661642E+02  0.41800000000E+01 0. -1.
        -11    1    1    2    0    0 -0.46569850526E+01  0.27579491174E+02  0.60178332565E+02  0.66360738042E+02  0.00000000000E+00 0.  1.
         11    1    1    2    0    0  0.99233964691E+01  0.28709309044E+01 -0.33639958063E+02  0.35190379654E+02  0.00000000000E+00 0. -1.
</event>
<event>
 7    1  0.2522928E-009  0.1006425E+03  0.7561462E-02  0.1278951E+00
         -1   -1    0    0    0  501 -0.00000000000E+00  0.00000000000E+00  0.40486429457E+02  0.40486429457E+02  0.00000000000E+00 0.  1.
          1   -1    0    0  501    0  0.00000000000E+00 -0.00000000000E+00 -0.49246984287E+03  0.49246984287E+03  0.00000000000E+00 0. -1.
         25    2    1    2    0    0 -0.25080016182E+02 -0.58056160942E+02 -0.12745261775E+03  0.18944935752E+03  0.12508942505E+03 0.  0.
          5    1    3    3  502    0 -0.51198758506E+01  0.16550635504E+02 -0.10831738312E+03  0.10977369698E+03  0.41800000000E+01 0. -1.
         -5    1    3    3    0  502 -0.19960140331E+02 -0.74606796446E+02 -0.19135234637E+02  0.79675660541E+02  0.41800000000E+01 0. -1.
        -11    1    1    2    0    0  0.56696163006E+02  0.31685626552E+02 -0.13847049669E+03  0.15294610908E+03  0.00000000000E+00 0.  1.
         11    1    1    2    0    0 -0.31616146824E+02  0.26370534390E+02 -0.18606029897E+03  0.19056080572E+03  0.00000000000E+00 0. -1.
</event>
<event>
 7    1  0.2522928E-009  0.1928724E+03  0.7561462E-02  0.1155896E+00
          2   -1    0    0  501    0  0.00000000000E+00  0.00000000000E+00  0.26429937389E+03  0.26429937389E+03  0.00000000000E+00 0. -1.
         -2   -1    0    0    0  501 -0.00000000000E+00 -0.00000000000E+00 -0.18563232317E+03  0.18563232317E+03  0.00000000000E+00 0.  1.
         25    2    1    2    0    0  0.81994551464E+02 -0.17382345741E+03  0.18339492418E+02  0.23004566891E+03  0.12508785707E+03 0.  0.
          5    1    3    3  502    0  0.20088800699E+02 -0.25349103194E+02  0.55977658211E+02  0.64785087521E+02  0.41800000000E+01 0.  1.
         -5    1    3    3    0  502  0.61905750765E+02 -0.14847435422E+03 -0.37638165793E+02  0.16526058139E+03  0.41800000000E+01 0.  1.
        -11    1    1    2    0    0 -0.77506260105E+02  0.16263655753E+03  0.79753668089E+02  0.19702415531E+03  0.00000000000E+00 0. -1.
         11    1    1    2    0    0 -0.44882913591E+01  0.11186899880E+02 -0.19426109789E+02  0.22861872841E+02  0.00000000000E+00 0.  1.
</event>
<event>
 7    1  0.3218517E-009  0.7778675E+02  0.7561462E-02  0.1335452E+00
         -1   -1    0    0    0  501 -0.00000000000E+00  0.00000000000E+00  0.12699351186E+02  0.12699351186E+02  0.00000000000E+00 0.  1.
          1   -1    0    0  501    0  0.00000000000E+00 -0.00000000000E+00 -0.13357603533E+04  0.13357603533E+04  0.00000000000E+00 0. -1.
         25    2    1    2    0    0 -0.34173572300E+01  0.59319618374E+02 -0.95717952651E+03  0.96714553698E+03  0.12508936116E+03 0.  0.
          5    1    3    3  502    0 -0.40332903162E+00  0.32909985703E+02 -0.92322963511E+03  0.92382555787E+03  0.41800000000E+01 0. -1.
         -5    1    3    3    0  502 -0.30140281984E+01  0.26409632672E+02 -0.33949891401E+02  0.43319979108E+02  0.41800000000E+01 0. -1.
        -11    1    1    2    0    0  0.39039918644E+02 -0.34187675467E+02 -0.10855432651E+03  0.12032021529E+03  0.00000000000E+00 0.  1.
         11    1    1    2    0    0 -0.35622561414E+02 -0.25131942907E+02 -0.25732714907E+03  0.26099395220E+03  0.00000000000E+00 0. -1.
</event>
<event>
 7    1  0.2522928E-009  0.1265611E+03  0.7561462E-02  0.1232649E+00
         -1   -1    0    0    0  501 -0.00000000000E+00  0.00000000000E+00  0.57845232599E+02  0.57845232599E+02  0.00000000000E+00 0.  1.
          1   -1    0    0  501    0  0.00000000000E+00 -0.00000000000E+00 -0.35315863451E+03  0.35315863451E+03  0.00000000000E+00 0. -1.
         25    2    1    2    0    0 -0.53927458867E+02 -0.59146429024E+02 -0.25479182257E+03  0.29491114388E+03  0.12508892456E+03 0.  0.
          5    1    3    3  502    0 -0.48901289661E+02  0.28779581541E+02 -0.70338790356E+02  0.90468880135E+02  0.41800000000E+01 0.  1.
         -5    1    3    3    0  502 -0.50261692063E+01 -0.87926010565E+02 -0.18445303221E+03  0.20444226374E+03  0.41800000000E+01 0.  1.
        -11    1    1    2    0    0  0.24012860217E+02 -0.14856947238E+02 -0.16641099263E+02  0.32776096804E+02  0.00000000000E+00 0. -1.
         11    1    1    2    0    0  0.29914598650E+02  0.74003376263E+02 -0.23880480078E+02  0.83316626429E+02  0.00000000000E+00 0.  1.
</event>
<event>
 7    1  0.2522928E-009  0.1075288E+03  0.7561462E-02  0.1265216E+00
         -1   -1    0    0    0  501 -0.00000000000E+00  0.00000000000E+00  0.23471343595E+03  0.23471343595E+03  0.00000000000E+00 0.  1.
          1   -1    0    0  501    0  0.00000000000E+00 -0.00000000000E+00 -0.53648555117E+02  0.53648555117E+02  0.00000000000E+00 0. -1.
         25    2    1    2    0    0 -0.18921298266E+02  0.79766959208E+01  0.74202222446E+02  0.14688906377E+03  0.12509509996E+03 0.  0.
          5    1    3    3  502    0 -0.58355296360E+02 -0.32476286689E+02  0.23667640692E+02  0.70976611826E+02  0.41800000000E+01 0.  1.
         -5    1    3    3    0  502  0.39433998094E+02  0.40452982610E+02  0.50534581754E+02  0.75912451948E+02  0.41800000000E+01 0.  1.
        -11    1    1    2    0    0  0.28989047953E+02 -0.44777676026E+02  0.50817765841E+02  0.73673947204E+02  0.00000000000E+00 0. -1.
         11    1    1    2    0    0 -0.10067749687E+02  0.36800980105E+02  0.56044892544E+02  0.67798980086E+02  0.00000000000E+00 0.  1.
</event>
<event>
 7    1  0.2522928E-009  0.1148436E+03  0.7561462E-02  0.1251854E+00
         -2   -1    0    0    0  501 -0.00000000000E+00  0.00000000000E+00  0.54567886463E+02  0.54567886463E+02  0.00000000000E+00 0.  1.
          2   -1    0    0  501    0  0.00000000000E+00 -0.00000000000E+00 -0.26238663572E+03  0.26238663572E+03  0.00000000000E+00 0. -1.
         25    2    1    2    0    0 -0.44059517333E+02 -0.17703994468E+01 -0.14803505354E+03  0.19876233350E+03  0.12509081805E+03 0.  0.
          5    1    3    3  502    0 -0.19233293861E+02 -0.60991767786E+02 -0.98675129034E+02  0.11766124604E+03  0.41800000000E+01 0.  1.
         -5    1    3    3    0  502 -0.24826223472E+02  0.59221368340E+02 -0.49359924504E+02  0.81101087458E+02  0.41800000000E+01 0.  1.
        -11    1    1    2    0    0  0.56049127703E+02 -0.32604102709E+02 -0.31487352404E+02  0.72083185218E+02  0.00000000000E+00 0.  1.
         11    1    1    2    0    0 -0.11989610370E+02  0.34374502156E+02 -0.28296343312E+02  0.46109003461E+02  0.00000000000E+00 0. -1.
</event>
<event>
 7    1  0.2522928E-009  0.9823368E+02  0.7561462E-02  0.1284055E+00
          1   -1    0    0  501    0  0.00000000000E+00  0.00000000000E+00  0.63374879847E+03  0.63374879847E+03  0.00000000000E+00 0. -1.
         -1   -1    0    0    0  501 -0.00000000000E+00 -0.00000000000E+00 -0.20465403661E+02  0.20465403661E+02  0.00000000000E+00 0.  1.
         25    2    1    2    0    0  0.29462024355E+02 -0.14824547218E+02  0.44427849151E+03  0.46272927934E+03  0.12508888782E+03 0.  0.
          5    1    3    3  502    0  0.59500726931E+02  0.35122095318E+02  0.27778767299E+03  0.28628196197E+03  0.41800000000E+01 0.  1.
         -5    1    3    3    0  502 -0.30038702577E+02 -0.49946642537E+02  0.16649081852E+03  0.17644731736E+03  0.41800000000E+01 0.  1.
        -11    1    1    2    0    0 -0.87561939422E+01 -0.23596627633E+02  0.10831930232E+02  0.27400775181E+02  0.00000000000E+00 0.  1.
         11    1    1    2    0    0 -0.20705830412E+02  0.38421174851E+02  0.15817297306E+03  0.16408414761E+03  0.00000000000E+00 0. -1.
</event>
<event>
 7    1  0.2522928E-009  0.8962778E+02  0.7561462E-02  0.1303756E+00
         -1   -1    0    0    0  501 -0.00000000000E+00  0.00000000000E+00  0.25436754081E+03  0.25436754081E+03  0.00000000000E+00 0.  1.
          1   -1    0    0  501    0  0.00000000000E+00 -0.00000000000E+00 -0.47997250372E+02  0.47997250372E+02  0.00000000000E+00 0. -1.
         25    2    1    2    0    0  0.21015885922E+01  0.12960627824E+02  0.77136386480E+02  0.14754967893E+03  0.12509392905E+03 0.  0.
          5    1    3    3  502    0 -0.10725364397E+02  0.67923866795E+02  0.37312848017E+02  0.78347981142E+02  0.41800000000E+01 0. -1.
         -5    1    3    3    0  502  0.12826952990E+02 -0.54963238971E+02  0.39823538463E+02  0.69201697789E+02  0.41800000000E+01 0. -1.
        -11    1    1    2    0    0 -0.26568094070E+02 -0.12340263084E+02  0.69516263267E+01  0.30107653912E+02  0.00000000000E+00 0. -1.
         11    1    1    2    0    0  0.24466505478E+02 -0.62036474000E+00  0.12228227764E+03  0.12470745834E+03  0.00000000000E+00 0.  1.
</event>
<event>
 7    1  0.2522928E-009  0.1237711E+03  0.7561462E-02  0.1237002E+00
          1   -1    0    0  501    0  0.00000000000E+00  0.00000000000E+00  0.97562596426E+03  0.97562596426E+03  0.00000000000E+00 0. -1.
         -1   -1    0    0    0  501 -0.00000000000E+00 -0.00000000000E+00 -0.23153010624E+02  0.23153010624E+02  0.00000000000E+00 0.  1.
         25    2    1    2    0    0  0.10082093430E+03  0.16231741386E+02  0.47330500860E+03  0.50009723931E+03  0.12510510535E+03 0.  0.
          5    1    3    3  502    0  0.43676645960E+02 -0.15162740914E+02  0.38212539522E+02  0.60126771833E+02  0.41800000000E+01 0. -1.
         -5    1    3    3    0  502  0.57144288337E+02  0.31394482299E+02  0.43509246907E+03  0.43997046748E+03  0.41800000000E+01 0. -1.
        -11    1    1    2    0    0 -0.79547520575E+02  0.29903044399E+02  0.34223146700E+03  0.35262498082E+03  0.00000000000E+00 0. -1.
         11    1    1    2    0    0 -0.21273413722E+02 -0.46134785785E+02  0.13693647804E+03  0.14605675475E+03  0.00000000000E+00 0.  1.
</event>
<event>
 7    1  0.2522928E-009  0.1660095E+03  0.7561462E-02  0.1182074E+00
         -2   -1    0    0    0  501 -0.00000000000E+00  0.00000000000E+00  0.39703661008E+02  0.39703661008E+02  0.00000000000E+00 0.  1.
          2   -1    0    0  501    0  0.00000000000E+00 -0.00000000000E+00 -0.97777752181E+03  0.97777752181E+03  0.00000000000E+00 0. -1.
         25    2    1    2    0    0  0.51971219762E+01 -0.15200589385E+03 -0.33012527087E+03  0.38439922884E+03  0.12508905158E+03 0.  0.
          5    1    3    3  502    0  0.35630059537E+02 -0.10793161084E+03 -0.30416090732E+03  0.32473075571E+03  0.41800000000E+01 0.  1.
         -5    1    3    3    0  502 -0.30432937561E+02 -0.44074283013E+02 -0.25964363548E+02  0.59668473134E+02  0.41800000000E+01 0.  1.
        -11    1    1    2    0    0 -0.34018199140E+02  0.88742703239E+02 -0.45862419036E+03  0.46836807453E+03  0.00000000000E+00 0.  1.
         11    1    1    2    0    0  0.28821077164E+02  0.63263190615E+02 -0.14932439957E+03  0.16471387945E+03  0.00000000000E+00 0. -1.
</event>
<event>
 7    1  0.2522928E-009  0.1690526E+03  0.7561462E-02  0.1178839E+00
         -2   -1    0    0    0  501 -0.00000000000E+00  0.00000000000E+00  0.46583666665E+03  0.46583666665E+03  0.00000000000E+00 0.  1.
          2   -1    0    0  501    0  0.00000000000E+00 -0.00000000000E+00 -0.12414764911E+03  0.12414764911E+03  0.00000000000E+00 0. -1.
         25    2    1    2    0    0  0.16112241965E+03  0.12427937486E+02  0.34881307164E+03  0.40426915618E+03  0.12509238165E+03 0.  0.
          5    1    3    3  502    0  0.37928241631E+02  0.19547095836E+02  0.22632074211E+03  0.23034580781E+03  0.41800000000E+01 0.  1.
         -5    1    3    3    0  502  0.12319417801E+03 -0.71191583501E+01  0.12249232953E+03  0.17392334836E+03  0.41800000000E+01 0.  1.
        -11    1    1    2    0    0 -0.37280822841E+01 -0.13868211028E+02 -0.23420733128E+02  0.27472834125E+02  0.00000000000E+00 0. -1.
         11    1    1    2    0    0 -0.15739433736E+03  0.14402735418E+01  0.16296679032E+02  0.15824232547E+03  0.00000000000E+00 0.  1.
</event>
<event>
 7    1  0.2522928E-009  0.9159502E+02  0.7561462E-02  0.1299034E+00
         -4   -1    0    0    0  501 -0.00000000000E+00  0.00000000000E+00  0.51863406850E+02  0.51863406850E+02  0.00000000000E+00 0. -1.
          4   -1    0    0  501    0  0.00000000000E+00 -0.00000000000E+00 -0.23564673899E+03  0.23564673899E+03  0.00000000000E+00 0.  1.
         25    2    1    2    0    0  0.28510610948E+02 -0.74304991846E+00 -0.11504420690E+03  0.17228825310E+03  0.12503865625E+03 0.  0.
          5    1    3    3  502    0 -0.48774966104E+01  0.39008023623E+02  0.64923978744E+01  0.40062944354E+02  0.41800000000E+01 0.  1.
         -5    1    3    3    0  502  0.33388107558E+02 -0.39751073541E+02 -0.12153660478E+03  0.13222530875E+03  0.41800000000E+01 0.  1.
        -11    1    1    2    0    0 -0.54157934446E+02 -0.20866466699E+02 -0.35675048569E+02  0.68126356033E+02  0.00000000000E+00 0.  1.
         11    1    1    2    0    0  0.25647323498E+02  0.21609516617E+02 -0.33064076665E+02  0.47095536697E+02  0.00000000000E+00 0. -1.
</event>
<event>
 7    1  0.2522928E-009  0.8912279E+02  0.7561462E-02  0.1304990E+00
         -2   -1    0    0    0  501 -0.00000000000E+00  0.00000000000E+00  0.23407265206E+03  0.23407265206E+03  0.00000000000E+00 0.  1.
          2   -1    0    0  501    0  0.00000000000E+00 -0.00000000000E+00 -0.59586806971E+02  0.59586806971E+02  0.00000000000E+00 0. -1.
         25    2    1    2    0    0 -0.11876449540E+02  0.29295198922E+02  0.55182259103E+02  0.14030349203E+03  0.12506290187E+03 0.  0.
          5    1    3    3  502    0 -0.62540338876E+02 -0.10279083408E+02  0.18444702237E+02  0.66141008331E+02  0.41800000000E+01 0.  1.
         -5    1    3    3    0  502  0.50663889336E+02  0.39574282330E+02  0.36737556866E+02  0.74162483704E+02  0.41800000000E+01 0.  1.
        -11    1    1    2    0    0 -0.21418043519E+01 -0.35075930445E+02  0.13008657174E+03  0.13474948745E+03  0.00000000000E+00 0.  1.
         11    1    1    2    0    0  0.14018253892E+02  0.57807315226E+01 -0.10782985755E+02  0.18606479541E+02  0.00000000000E+00 0. -1.
</event>
<event>
 7    1  0.2522928E-009  0.1503861E+03  0.7561462E-02  0.1199999E+00
          1   -1    0    0  501    0  0.00000000000E+00  0.00000000000E+00  0.19583288104E+03  0.19583288104E+03  0.00000000000E+00 0. -1.
         -1   -1    0    0    0  501 -0.00000000000E+00 -0.00000000000E+00 -0.15426115149E+03  0.15426115149E+03  0.00000000000E+00 0.  1.
         25    2    1    2    0    0  0.21026954082E+02  0.12318015384E+03 -0.32836493130E+02  0.17983432786E+03  0.12508663836E+03 0.  0.
          5    1    3    3  502    0  0.67216939969E+02  0.37569760255E+02 -0.11577373832E+00  0.77117376174E+02  0.41800000000E+01 0.  1.
         -5    1    3    3    0  502 -0.46189985886E+02  0.85610393580E+02 -0.32720719391E+02  0.10271695168E+03  0.41800000000E+01 0.  1.
        -11    1    1    2    0    0 -0.70633995531E+01 -0.90180354612E+02  0.31639266672E+01  0.90511868852E+02  0.00000000000E+00 0.  1.
         11    1    1    2    0    0 -0.13963554529E+02 -0.32999799224E+02  0.71244296017E+02  0.79747835826E+02  0.00000000000E+00 0. -1.
</event>
<event>
 7    1  0.2522928E-009  0.2735405E+03  0.7561462E-02  0.1099270E+00
         -2   -1    0    0    0  501 -0.00000000000E+00  0.00000000000E+00  0.12654521358E+03  0.12654521358E+03  0.00000000000E+00 0.  1.
          2   -1    0    0  501    0  0.00000000000E+00 -0.00000000000E+00 -0.65214142069E+03  0.65214142069E+03  0.00000000000E+00 0. -1.
         25    2    1    2    0    0  0.23759476925E+03  0.83549698386E+02 -0.15788222868E+03  0.32250010673E+03  0.12509074401E+03 0.  0.
          5    1    3    3  502    0  0.10692855458E+03 -0.26272423728E+02 -0.69023092474E+02  0.13002159716E+03  0.41800000000E+01 0. -1.
         -5    1    3    3    0  502  0.13066621467E+03  0.10982212211E+03 -0.88859136203E+02  0.19247850957E+03  0.41800000000E+01 0. -1.
        -11    1    1    2    0    0 -0.53590687669E+02 -0.60321874200E+02 -0.78222388492E+02  0.11238074734E+03  0.00000000000E+00 0. -1.
         11    1    1    2    0    0 -0.18400408158E+03 -0.23227824186E+02 -0.28949158994E+03  0.34380578020E+03  0.00000000000E+00 0.  1.
</event>
<event>
 7    1  0.2522928E-009  0.7954816E+02  0.7561462E-02  0.1330339E+00
          1   -1    0    0  501    0  0.00000000000E+00  0.00000000000E+00  0.37987976194E+02  0.37987976194E+02  0.00000000000E+00 0. -1.
         -1   -1    0    0    0  501 -0.00000000000E+00 -0.00000000000E+00 -0.41370999507E+03  0.41370999507E+03  0.00000000000E+00 0.  1.
         25    2    1    2    0    0  0.48639780629E+02 -0.36806071895E+02 -0.18574793998E+03  0.23210086284E+03  0.12509195871E+03 0.  0.
          5    1    3    3  502    0  0.51524772339E+02 -0.24799927035E+02 -0.12908158511E+02  0.58770158258E+02  0.41800000000E+01 0. -1.
         -5    1    3    3    0  502 -0.28849917101E+01 -0.12006144860E+02 -0.17283978147E+03  0.17333070458E+03  0.41800000000E+01 0. -1.
        -11    1    1    2    0    0 -0.26687320763E+02 -0.16292460931E+02 -0.13594898648E+02  0.34095141032E+02  0.00000000000E+00 0. -1.
         11    1    1    2    0    0 -0.21952459866E+02  0.53098532826E+02 -0.17637918025E+03  0.18550196740E+03  0.00000000000E+00 0.  1.
</event>
<event>
 7    1  0.2522928E-009  0.7885110E+02  0.7561462E-02  0.1332344E+00
         -1   -1    0    0    0  501 -0.00000000000E+00  0.00000000000E+00  0.61919924078E+02  0.61919924078E+02  0.00000000000E+00 0.  1.
          1   -1    0    0  501    0  0.00000000000E+00 -0.00000000000E+00 -0.34886768116E+03  0.34886768116E+03  0.00000000000E+00 0. -1.
         25    2    1    2    0    0  0.16627395510E+02 -0.60435803942E+01 -0.29296680200E+03  0.31904555144E+03  0.12509005426E+03 0.  0.
          5    1    3    3  502    0 -0.21040524912E+02  0.15529875606E+02 -0.39723695908E+01  0.26779336158E+02  0.41800000000E+01 0.  1.
         -5    1    3    3    0  502  0.37667920421E+02 -0.21573456000E+02 -0.28899443241E+03  0.29226621528E+03  0.41800000000E+01 0.  1.
        -11    1    1    2    0    0 -0.45583237685E+02 -0.18944134495E+02 -0.98456277534E+01  0.50335357111E+02  0.00000000000E+00 0. -1.
         11    1    1    2    0    0  0.28955842175E+02  0.24987714889E+02  0.15864672672E+02  0.41406696686E+02  0.00000000000E+00 0.  1.
</event>
<event>
 7    1  0.2522928E-009  0.1013141E+03  0.7561462E-02  0.1277557E+00
         -2   -1    0    0    0  501 -0.00000000000E+00  0.00000000000E+00  0.19036677787E+03  0.19036677787E+03  0.00000000000E+00 0.  1.
          2   -1    0    0  501    0  0.00000000000E+00 -0.00000000000E+00 -0.10546658935E+03  0.10546658935E+03  0.00000000000E+00 0. -1.
         25    2    1    2    0    0 -0.27950989622E+02 -0.86652100288E+02  0.42093501233E+02  0.16034071745E+03  0.12508972188E+03 0.  0.
          5    1    3    3  502    0 -0.75949390730E+01 -0.27686073841E+02 -0.44751047187E+02  0.53332264236E+02  0.41800000000E+01 0. -1.
         -5    1    3    3    0  502 -0.20356050549E+02 -0.58966026448E+02  0.86844548419E+02  0.10700845321E+03  0.41800000000E+01 0. -1.
        -11    1    1    2    0    0  0.47623396375E+02  0.47410218283E+02 -0.87651683176E+01  0.67768317491E+02  0.00000000000E+00 0.  1.
         11    1    1    2    0    0 -0.19672406753E+02  0.39241882005E+02  0.51571855606E+02  0.67724332270E+02  0.00000000000E+00 0. -1.
</event>
<event>
 7    1  0.3982549E-009  0.7994552E+02  0.7561462E-02  0.1329206E+00
         -2   -1    0    0    0  501 -0.00000000000E+00  0.00000000000E+00  0.17442709551E+02  0.17442709551E+02  0.00000000000E+00 0.  1.
          2   -1    0    0  501    0  0.00000000000E+00 -0.00000000000E+00 -0.12652514566E+04  0.12652514566E+04  0.00000000000E+00 0. -1.
         25    2    1    2    0    0 -0.10602684379E+02 -0.71763256856E+02 -0.98084344677E+03  0.99144497106E+03  0.12508749585E+03 0.  0.
          5    1    3    3  502    0 -0.13892262637E+02 -0.48777525131E+02 -0.95536918091E+03  0.95672356831E+03  0.41800000000E+01 0.  1.
         -5    1    3    3    0  502  0.32895782580E+01 -0.22985731724E+02 -0.25474265854E+02  0.34721402748E+02  0.41800000000E+01 0.  1.
        -11    1    1    2    0    0 -0.17762629310E+02  0.24010731476E+02 -0.15357428562E+02  0.33583877650E+02  0.00000000000E+00 0.  1.
         11    1    1    2    0    0  0.28365313689E+02  0.47752525380E+02 -0.25160787169E+03  0.25766531741E+03  0.00000000000E+00 0. -1.
</event>
<event>
 7    1  0.2522928E-009  0.8564607E+02  0.7561462E-02  0.1313752E+00
         -1   -1    0    0    0  501 -0.00000000000E+00  0.00000000000E+00  0.17455230574E+02  0.17455230574E+02  0.00000000000E+00 0.  1.
          1   -1    0    0  501    0  0.00000000000E+00 -0.00000000000E+00 -0.10560302792E+04  0.10560302792E+04  0.00000000000E+00 0. -1.
         25    2    1    2    0    0  0.49632038211E+02  0.32038767399E+02 -0.77718303216E+03  0.78939922892E+03  0.12509138782E+03 0.  0.
          5    1    3    3  502    0  0.43561586314E+02  0.30478524647E+02 -0.11072418818E+03  0.12289780517E+03  0.41800000000E+01 0. -1.
         -5    1    3    3    0  502  0.60704518967E+01  0.15602427519E+01 -0.66645884398E+03  0.66650142375E+03  0.41800000000E+01 0. -1.
        -11    1    1    2    0    0  0.20837093167E+02  0.15024685752E+02 -0.76553418202E+02  0.80748693315E+02  0.00000000000E+00 0.  1.
         11    1    1    2    0    0 -0.70469131378E+02 -0.47063453151E+02 -0.18483859829E+03  0.20333758756E+03  0.00000000000E+00 0. -1.
</event>
<event>
 7    1  0.2522928E-009  0.1294501E+03  0.7561462E-02  0.1228274E+00
          2   -1    0    0  501    0  0.00000000000E+00  0.00000000000E+00  0.19841937679E+03  0.19841937679E+03  0.00000000000E+00 0.  1.
         -2   -1    0    0    0  501 -0.00000000000E+00 -0.00000000000E+00 -0.11164749867E+03  0.11164749867E+03  0.00000000000E+00 0. -1.
         25    2    1    2    0    0 -0.10039683248E+03  0.13178638382E+02  0.50721758863E+02  0.16874315428E+03  0.12509338436E+03 0.  0.
          5    1    3    3  502    0 -0.11094364609E+03 -0.14864579124E+02  0.27708494113E+01  0.11204730397E+03  0.41800000000E+01 0.  1.
         -5    1    3    3    0  502  0.10546813604E+02  0.28043217506E+02  0.47950909452E+02  0.56695850312E+02  0.41800000000E+01 0.  1.
        -11    1    1    2    0    0  0.10094506775E+03 -0.25649790642E+02  0.55648691577E+02  0.11808723614E+03  0.00000000000E+00 0.  1.
         11    1    1    2    0    0 -0.54823527075E+00  0.12471152260E+02 -0.19598572318E+02  0.23236485050E+02  0.00000000000E+00 0. -1.
</event>
<event>
 7    1  0.2522928E-009  0.2184581E+03  0.7561462E-02  0.1135038E+00
         -1   -1    0    0    0  501 -0.00000000000E+00  0.00000000000E+00  0.41677394112E+02  0.41677394112E+02  0.00000000000E+00 0.  1.
          1   -1    0    0  501    0  0.00000000000E+00 -0.00000000000E+00 -0.13661570566E+04  0.13661570566E+04  0.00000000000E+00 0. -1.
         25    2    1    2    0    0  0.17294480837E+03  0.11401073137E+03 -0.52227945763E+03  0.57561380823E+03  0.12508825185E+03 0.  0.
          5    1    3    3  502    0  0.16523787198E+03  0.77519755410E+02 -0.30775736381E+03  0.35783366833E+03  0.41800000000E+01 0.  1.
         -5    1    3    3    0  502  0.77069363944E+01  0.36490975959E+02 -0.21452209382E+03  0.21778013990E+03  0.41800000000E+01 0.  1.
        -11    1    1    2    0    0 -0.10177900039E+03 -0.10300891218E+03 -0.61055462692E+03  0.62749243291E+03  0.00000000000E+00 0. -1.
         11    1    1    2    0    0 -0.71165807979E+02 -0.11001819192E+02 -0.19164557792E+03  0.20472820955E+03  0.00000000000E+00 0.  1.
</event>
<event>
 7    1  0.2522928E-009  0.8818159E+02  0.7561462E-02  0.1307316E+00
         -1   -1    0    0    0  501 -0.00000000000E+00  0.00000000000E+00  0.59994771490E+03  0.59994771490E+03  0.00000000000E+00 0.  1.
          1   -1    0    0  501    0  0.00000000000E+00 -0.00000000000E+00 -0.28773746483E+02  0.28773746483E+02  0.00000000000E+00 0. -1.
         25    2    1    2    0    0  0.62272125787E+02  0.37697796459E+02  0.28887070724E+03  0.32309695246E+03  0.12508562541E+03 0.  0.
          5    1    3    3  502    0  0.48526349409E+02  0.14312586153E+02  0.22861591986E+02  0.55675681383E+02  0.41800000000E+01 0.  1.
         -5    1    3    3    0  502  0.13745776378E+02  0.23385210306E+02  0.26600911525E+03  0.26742127108E+03  0.41800000000E+01 0.  1.
        -11    1    1    2    0    0  0.38449582133E+00 -0.35452766946E+02  0.19467144613E+03  0.19787374373E+03  0.00000000000E+00 0.  1.
         11    1    1    2    0    0 -0.62656621608E+02 -0.22450295128E+01  0.87631815048E+02  0.10775076518E+03  0.00000000000E+00 0. -1.
</event>
<event>
 7    1  0.2522928E-009  0.1103301E+03  0.7561462E-02  0.1259960E+00
         -2   -1    0    0    0  501 -0.00000000000E+00  0.00000000000E+00  0.57380953776E+02  0.57380953776E+02  0.00000000000E+00 0.  1.
          2   -1    0    0  501    0  0.00000000000E+00 -0.00000000000E+00 -0.39563309572E+03  0.39563309572E+03  0.00000000000E+00 0. -1.
         25    2    1    2    0    0  0.17373606376E+02 -0.65414801948E+02 -0.22327755080E+03  0.26472933633E+03  0.12509123994E+03 0.  0.
          5    1    3    3  502    0  0.64797972093E+02 -0.63580552727E+01 -0.11996442710E+03  0.13655818622E+03  0.41800000000E+01 0.  1.
         -5    1    3    3    0  502 -0.47424365717E+02 -0.59056746675E+02 -0.10331312370E+03  0.12817115011E+03  0.41800000000E+01 0.  1.
        -11    1    1    2    0    0 -0.30225022291E+02  0.33311027362E+02 -0.13905311822E+03  0.14614700203E+03  0.00000000000E+00 0. -1.
         11    1    1    2    0    0  0.12851415915E+02  0.32103774585E+02  0.24078527074E+02  0.42137711135E+02  0.00000000000E+00 0.  1.
</event>
<event>
 7    1  0.2522928E-009  0.8749409E+02  0.7561462E-02  0.1309036E+00
          1   -1    0    0  501    0  0.00000000000E+00  0.00000000000E+00  0.99063217971E+02  0.99063217971E+02  0.00000000000E+00 0. -1.
         -1   -1    0    0    0  501 -0.00000000000E+00 -0.00000000000E+00 -0.13230726971E+03  0.13230726971E+03  0.00000000000E+00 0.  1.
         25    2    1    2    0    0  0.32624032079E+02  0.17206697754E+02 -0.37589997542E+02  0.13572876809E+03  0.12509553412E+03 0.  0.
          5    1    3    3  502    0  0.56744482013E+02 -0.38719639517E+02 -0.26109789280E+02  0.73609375894E+02  0.41800000000E+01 0. -1.
         -5    1    3    3    0  502 -0.24120449934E+02  0.55926337271E+02 -0.11480208262E+02  0.62119392200E+02  0.41800000000E+01 0. -1.
        -11    1    1    2    0    0 -0.51172205675E+01 -0.16846505710E+02 -0.39859933396E+02  0.43575279590E+02  0.00000000000E+00 0.  1.
         11    1    1    2    0    0 -0.27506811511E+02 -0.36019204331E+00  0.44205879200E+02  0.52066439995E+02  0.00000000000E+00 0. -1.
</event>
<event>
 7    1  0.2522928E-009  0.1208322E+03  0.7561462E-02  0.1241730E+00
         -2   -1    0    0    0  501 -0.00000000000E+00  0.00000000000E+00  0.41082501100E+02  0.41082501100E+02  0.00000000000E+00 0.  1.
          2   -1    0    0  501    0  0.00000000000E+00 -0.00000000000E+00 -0.42491718695E+03  0.42491718695E+03  0.00000000000E+00 0. -1.
         25    2    1    2    0    0  0.10747490328E+02  0.71732872305E+02 -0.17816638317E+03  0.22946084649E+03  0.12509159229E+03 0.  0.
          5    1    3    3  502    0 -0.52440697767E+02  0.44574401670E+02 -0.54483708158E+02  0.87879752624E+02  0.41800000000E+01 0.  1.
         -5    1    3    3    0  502  0.63188188095E+02  0.27158470635E+02 -0.12368267502E+03  0.14158109387E+03  0.41800000000E+01 0.  1.
        -11    1    1    2    0    0  0.31670421435E+02 -0.38936458227E+02 -0.45901042227E+02  0.68014476772E+02  0.00000000000E+00 0.  1.
         11    1    1    2    0    0 -0.42417911762E+02 -0.32796414078E+02 -0.15976726045E+03  0.16852436479E+03  0.00000000000E+00 0. -1.
</event>
<event>
 7    1  0.2522928E-009  0.1619084E+03  0.7561462E-02  0.1186559E+00
          2   -1    0    0  501    0  0.00000000000E+00  0.00000000000E+00  0.15231494514E+03  0.15231494514E+03  0.00000000000E+00 0. -1.
         -2   -1    0    0    0  501 -0.00000000000E+00 -0.00000000000E+00 -0.20802691035E+03  0.20802691035E+03  0.00000000000E+00 0.  1.
         25    2    1    2    0    0  0.88456267716E+01  0.12562080651E+03 -0.96394875071E+02  0.20198321913E+03  0.12508563757E+03 0.  0.
          5    1    3    3  502    0  0.38172964223E+02  0.13481250145E+03 -0.97822177623E+02  0.17093342733E+03  0.41800000000E+01 0.  1.
         -5    1    3    3    0  502 -0.29327337452E+02 -0.91916949365E+01  0.14273025518E+01  0.31049791793E+02  0.41800000000E+01 0.  1.
        -11    1    1    2    0    0 -0.35777817757E+02 -0.15038241276E+02  0.15502512304E+02  0.41791492338E+02  0.00000000000E+00 0.  1.
         11    1    1    2    0    0  0.26932190985E+02 -0.11058256524E+03  0.25180397558E+02  0.11656714403E+03  0.00000000000E+00 0. -1.
</event>
<event>
 7    1  0.2522928E-009  0.8761433E+02  0.7561462E-02  0.1308734E+00
          1   -1    0    0  501    0  0.00000000000E+00  0.00000000000E+00  0.84016255472E+02  0.84016255472E+02  0.00000000000E+00 0. -1.
         -1   -1    0    0    0  501 -0.00000000000E+00 -0.00000000000E+00 -0.27194948053E+03  0.27194948053E+03  0.00000000000E+00 0.  1.
         25    2    1    2    0    0  0.20857560045E+02  0.19794089767E+02  0.17165913838E+02  0.12949770779E+03  0.12509254144E+03 0.  0.
          5    1    3    3  502    0  0.23426948011E+02  0.46474842073E+02 -0.40295757919E+02  0.65954176101E+02  0.41800000000E+01 0. -1.
         -5    1    3    3    0  502 -0.25693879666E+01 -0.26680752306E+02  0.57461671756E+02  0.63543531687E+02  0.41800000000E+01 0. -1.
        -11    1    1    2    0    0 -0.49776336170E+02 -0.37194002164E+02 -0.13874834550E+03  0.15202690821E+03  0.00000000000E+00 0.  1.
         11    1    1    2    0    0  0.28918776126E+02  0.17399912397E+02 -0.66350793395E+02  0.74441120009E+02  0.00000000000E+00 0. -1.
</event>
<event>
 7    1  0.4360222E-009  0.1741566E+03  0.7561462E-02  0.1173581E+00
         -2   -1    0    0    0  501 -0.00000000000E+00  0.00000000000E+00  0.30116170459E+02  0.30116170459E+02  0.00000000000E+00 0.  1.
          2   -1    0    0  501    0  0.00000000000E+00 -0.00000000000E+00 -0.11002734987E+04  0.11002734987E+04  0.00000000000E+00 0. -1.
         25    2    1    2    0    0  0.97128929693E+02  0.10050629393E+03 -0.69212307511E+03  0.71708821844E+03  0.12508244414E+03 0.  0.
          5    1    3    3  502    0  0.12435611255E+03  0.72359018370E+02 -0.59757725489E+03  0.61466764859E+03  0.41800000000E+01 0. -1.
         -5    1    3    3    0  502 -0.27227182853E+02  0.28147275559E+02 -0.94545820219E+02  0.10242056985E+03  0.41800000000E+01 0. -1.
        -11    1    1    2    0    0  0.13868619527E+02 -0.31178240253E+02 -0.54503952416E+02  0.64304759558E+02  0.00000000000E+00 0.  1.
         11    1    1    2    0    0 -0.11099754922E+03 -0.69328053676E+02 -0.32353030076E+03  0.34899669120E+03  0.00000000000E+00 0. -1.
</event>
<event>
 7    1  0.2522928E-009  0.1186300E+03  0.7561462E-02  0.1245374E+00
         -2   -1    0    0    0  501 -0.00000000000E+00  0.00000000000E+00  0.50852151814E+02  0.50852151814E+02  0.00000000000E+00 0.  1.
          2   -1    0    0  501    0  0.00000000000E+00 -0.00000000000E+00 -0.31804787772E+03  0.31804787772E+03  0.00000000000E+00 0. -1.
         25    2    1    2    0    0  0.43799780874E+02 -0.44909621199E+02 -0.18702707454E+03  0.23358428008E+03  0.12508874613E+03 0.  0.
          5    1    3    3  502    0 -0.42705550138E+02 -0.62198519177E+01 -0.76518023196E+02  0.87948455611E+02  0.41800000000E+01 0. -1.
         -5    1    3    3    0  502  0.86505331011E+02 -0.38689769282E+02 -0.11050905135E+03  0.14563582447E+03  0.41800000000E+01 0. -1.
        -11    1    1    2    0    0 -0.55740878118E+02  0.33899046887E+01 -0.16239136359E+02  0.58157084666E+02  0.00000000000E+00 0. -1.
         11    1    1    2    0    0  0.11941097244E+02  0.41519716511E+02 -0.63929515002E+02  0.77158664782E+02  0.00000000000E+00 0.  1.
</event>
<event>
 7    1  0.2522928E-009  0.1365359E+03  0.7561462E-02  0.1218068E+00
          2   -1    0    0  501    0  0.00000000000E+00  0.00000000000E+00  0.57355342040E+02  0.57355342040E+02  0.00000000000E+00 0. -1.
         -2   -1    0    0    0  501 -0.00000000000E+00 -0.00000000000E+00 -0.52777161848E+03  0.52777161848E+03  0.00000000000E+00 0.  1.
         25    2    1    2    0    0  0.97790088035E+02 -0.87435725516E+02 -0.28884843165E+03  0.34101153865E+03  0.12509014992E+03 0.  0.
          5    1    3    3  502    0  0.81822042056E+02 -0.91586267250E+02 -0.29752839119E+03  0.32190605287E+03  0.41800000000E+01 0.  1.
         -5    1    3    3    0  502  0.15968045979E+02  0.41505417341E+01  0.86799595339E+01  0.19105485772E+02  0.41800000000E+01 0.  1.
        -11    1    1    2    0    0 -0.10770950001E+02  0.21303246567E+02 -0.11209243106E+03  0.11460608526E+03  0.00000000000E+00 0.  1.
         11    1    1    2    0    0 -0.87019138034E+02  0.66132478949E+02 -0.69475413723E+02  0.12950933661E+03  0.00000000000E+00 0. -1.
</event>
<event>
 7    1  0.2522928E-009  0.8252355E+02  0.7561462E-02  0.1322039E+00
          2   -1    0    0  501    0  0.00000000000E+00  0.00000000000E+00  0.38841304328E+03  0.38841304328E+03  0.00000000000E+00 0. -1.
         -2   -1    0    0    0  501 -0.00000000000E+00 -0.00000000000E+00 -0.32735028353E+02  0.32735028353E+02  0.00000000000E+00 0.  1.
         25    2    1    2    0    0 -0.19798521069E+02  0.38110573998E+02  0.25876148222E+03  0.29059560399E+03  0.12507558951E+03 0.  0.
          5    1    3    3  502    0  0.26607970346E+02  0.26418322193E+02  0.23309775296E+03  0.23613120647E+03  0.41800000000E+01 0.  1.
         -5    1    3    3    0  502 -0.46406491415E+02  0.11692251805E+02  0.25663729257E+02  0.54464397519E+02  0.41800000000E+01 0.  1.
        -11    1    1    2    0    0  0.19894045932E+02  0.15778237963E+02  0.80747695724E+01  0.26644469603E+02  0.00000000000E+00 0. -1.
         11    1    1    2    0    0 -0.95524863523E-01 -0.53888811961E+02  0.88841763136E+02  0.10390799804E+03  0.00000000000E+00 0.  1.
</event>
<event>
 7    1  0.2522928E-009  0.2975341E+03  0.7561462E-02  0.1086480E+00
          2   -1    0    0  501    0  0.00000000000E+00  0.00000000000E+00  0.22833514138E+03  0.22833514138E+03  0.00000000000E+00 0. -1.
         -2   -1    0    0    0  501 -0.00000000000E+00 -0.00000000000E+00 -0.42933070234E+03  0.42933070234E+03  0.00000000000E+00 0.  1.
         25    2    1    2    0    0 -0.18436611565E+03  0.22666440087E+03 -0.74536517776E+02  0.32645076014E+03  0.12508713402E+03 0.  0.
          5    1    3    3  502    0 -0.51129231297E+02  0.86420761476E+02  0.32126682639E+02  0.10550991633E+03  0.41800000000E+01 0.  1.
         -5    1    3    3    0  502 -0.13323688435E+03  0.14024363939E+03 -0.10666320042E+03  0.22094084381E+03  0.41800000000E+01 0.  1.
        -11    1    1    2    0    0  0.11368886523E+03 -0.82326295703E+02 -0.88967649681E+02  0.16618670143E+03  0.00000000000E+00 0.  1.
         11    1    1    2    0    0  0.70677250417E+02 -0.14433810516E+03 -0.37491393507E+02  0.16502838215E+03  0.00000000000E+00 0. -1.
</event>
<event>
 7    1  0.2522928E-009  0.1308557E+03  0.7561462E-02  0.1226191E+00
          1   -1    0    0  501    0  0.00000000000E+00  0.00000000000E+00  0.13019587401E+04  0.13019587401E+04  0.00000000000E+00 0. -1.
         -1   -1    0    0    0  501 -0.00000000000E+00 -0.00000000000E+00 -0.15768778585E+02  0.15768778585E+02  0.00000000000E+00 0.  1.
         25    2    1    2    0    0 -0.83026710933E+02  0.21516534085E+02  0.88721422837E+03  0.90008590872E+03  0.12509660299E+03 0.  0.
          5    1    3    3  502    0 -0.52132815876E+02  0.72989493762E+02  0.59524496714E+03  0.60197951792E+03  0.41800000000E+01 0.  1.
         -5    1    3    3    0  502 -0.30893895057E+02 -0.51472959676E+02  0.29196926123E+03  0.29810639080E+03  0.41800000000E+01 0.  1.
        -11    1    1    2    0    0  0.62833921760E+02  0.19694809887E+02  0.14103096046E+03  0.15564613413E+03  0.00000000000E+00 0.  1.
         11    1    1    2    0    0  0.20192789173E+02 -0.41211343973E+02  0.25794477264E+03  0.26199547580E+03  0.00000000000E+00 0. -1.
</event>
<event>
 7    1  0.2522928E-009  0.1112961E+03  0.7561462E-02  0.1258188E+00
          1   -1    0    0  501    0  0.00000000000E+00  0.00000000000E+00  0.56060251065E+03  0.56060251065E+03  0.00000000000E+00 0. -1.
         -1   -1    0    0    0  501 -0.00000000000E+00 -0.00000000000E+00 -0.22892333684E+02  0.22892333684E+02  0.00000000000E+00 0.  1.
         25    2    1    2    0    0 -0.53215893153E+01 -0.27347279623E+02  0.36000606840E+03  0.38213629619E+03  0.12509031364E+03 0.  0.
          5    1    3    3  502    0 -0.17141703972E+02 -0.75842988067E+02  0.20862417142E+03  0.22268254120E+03  0.41800000000E+01 0. -1.
         -5    1    3    3    0  502  0.11820114657E+02  0.48495708444E+02  0.15138189698E+03  0.15945375499E+03  0.41800000000E+01 0. -1.
        -11    1    1    2    0    0 -0.40440254702E+02  0.27441523779E+02  0.95288359594E+02  0.10709025587E+03  0.00000000000E+00 0. -1.
         11    1    1    2    0    0  0.45761844018E+02 -0.94244156374E-01  0.82415748975E+02  0.94268292278E+02  0.00000000000E+00 0.  1.
</event>
<event>
 7    1  0.2522928E-009  0.1221328E+03  0.7561462E-02  0.1239620E+00
          2   -1    0    0  501    0  0.00000000000E+00  0.00000000000E+00  0.37769577384E+03  0.37769577384E+03  0.00000000000E+00 0. -1.
         -2   -1    0    0    0  501 -0.00000000000E+00 -0.00000000000E+00 -0.51946156727E+02  0.51946156727E+02  0.00000000000E+00 0.  1.
         25    2    1    2    0    0  0.53750450959E+02  0.70467172840E+02  0.17550079281E+03  0.23302877542E+03  0.12508856250E+03 0.  0.
          5    1    3    3  502    0  0.94632984794E+02  0.47166221133E+02  0.11516544790E+03  0.15639887153E+03  0.41800000000E+01 0. -1.
         -5    1    3    3    0  502 -0.40882533836E+02  0.23300951707E+02  0.60335344913E+02  0.76629903882E+02  0.41800000000E+01 0. -1.
        -11    1    1    2    0    0 -0.29753850855E+02 -0.21610573332E+02  0.13523950716E+03  0.14015003681E+03  0.00000000000E+00 0. -1.
         11    1    1    2    0    0 -0.23996600103E+02 -0.48856599508E+02  0.15009317141E+02  0.56463118343E+02  0.00000000000E+00 0.  1.
</event>
<event>
 7    1  0.2522928E-009  0.1328461E+03  0.7561462E-02  0.1223293E+00
         -3   -1    0    0    0  501 -0.00000000000E+00  0.00000000000E+00  0.19737791023E+02  0.19737791023E+02  0.00000000000E+00 0.  1.
          3   -1    0    0  501    0  0.00000000000E+00 -0.00000000000E+00 -0.10898297384E+04  0.10898297384E+04  0.00000000000E+00 0. -1.
         25    2    1    2    0    0  0.44490121299E+02  0.80343502830E+02 -0.45222741003E+03  0.47811197345E+03  0.12508788682E+03 0.  0.
          5    1    3    3  502    0  0.19714890718E+01 -0.23570432976E+02 -0.20679407337E+03  0.20818432520E+03  0.41800000000E+01 0. -1.
         -5    1    3    3    0  502  0.42518632227E+02  0.10391393581E+03 -0.24543333666E+03  0.26992764825E+03  0.41800000000E+01 0. -1.
        -11    1    1    2    0    0  0.26956302683E+02 -0.36913467942E+02 -0.18265213143E+03  0.18828448551E+03  0.00000000000E+00 0.  1.
         11    1    1    2    0    0 -0.71446423982E+02 -0.43430034888E+02 -0.43521240590E+03  0.44317107045E+03  0.00000000000E+00 0. -1.
</event>
<event>
 7    1  0.2522928E-009  0.9528160E+02  0.7561462E-02  0.1290543E+00
          1   -1    0    0  501    0  0.00000000000E+00  0.00000000000E+00  0.30231249976E+02  0.30231249976E+02  0.00000000000E+00 0. -1.
         -1   -1    0    0    0  501 -0.00000000000E+00 -0.00000000000E+00 -0.56699196303E+03  0.56699196303E+03  0.00000000000E+00 0.  1.
         25    2    1    2    0    0 -0.41231010792E+02  0.17775286412E+02 -0.42563776232E+03  0.44590582795E+03  0.12509414707E+03 0.  0.
          5    1    3    3  502    0  0.30272656944E+02  0.57057673938E+01 -0.28482157791E+02  0.42162723494E+02  0.41800000000E+01 0.  1.
         -5    1    3    3    0  502 -0.71503667736E+02  0.12069519018E+02 -0.39715560452E+03  0.40374310445E+03  0.41800000000E+01 0.  1.
        -11    1    1    2    0    0  0.61994765273E+02 -0.44209048842E+01 -0.11031257072E+03  0.12661658099E+03  0.00000000000E+00 0.  1.
         11    1    1    2    0    0 -0.20763754481E+02 -0.13354381528E+02 -0.81038001825E+00  0.24700804074E+02  0.00000000000E+00 0. -1.
</event>
<event>
 6    1  0.2522928E-009  0.2878243E+03  0.7561462E-02  0.1091491E+00
          2   -1    0    0  501    0  0.00000000000E+00  0.00000000000E+00  0.65651684829E+03  0.65651684829E+03  0.00000000000E+00 0. -1.
         -2   -1    0    0    0  501 -0.00000000000E+00 -0.00000000000E+00 -0.12704605210E+03  0.12704605210E+03  0.00000000000E+00 0.  1.
          5    1    1    2  502    0  0.64474926316E+02 -0.26807838226E+03  0.22719246848E+03  0.35729109322E+03  0.41800000000E+01 0.  1.
         -5    1    1    2    0  502  0.12491673437E+02  0.12332597663E+02  0.24290138172E+02  0.30259181793E+02  0.41800000000E+01 0.  1.
        -11    1    1    2    0    0 -0.39334005920E+02  0.21949100579E+02  0.39173392911E+02  0.59694905562E+02  0.00000000000E+00 0. -1.
         11    1    1    2    0    0 -0.37632593834E+02  0.23379668402E+03  0.23881479662E+03  0.33631771982E+03  0.00000000000E+00 0.  1.
</event>
<event>
 7    1  0.2522928E-009  0.1869944E+03  0.7561462E-02  0.1161200E+00
         -1   -1    0    0    0  501 -0.00000000000E+00  0.00000000000E+00  0.19392639976E+03  0.19392639976E+03  0.00000000000E+00 0.  1.
          1   -1    0    0  501    0  0.00000000000E+00 -0.00000000000E+00 -0.33531356396E+03  0.33531356396E+03  0.00000000000E+00 0. -1.
         25    2    1    2    0    0  0.15419545015E+03  0.18437002985E+02  0.10533546271E+03  0.22551972864E+03  0.12508968133E+03 0.  0.
          5    1    3    3  502    0 -0.15951125731E+02  0.23789605806E+02  0.11989954333E+02  0.31330738283E+02  0.41800000000E+01 0. -1.
         -5    1    3    3    0  502  0.17014657588E+03 -0.53526028209E+01  0.93345508375E+02  0.19418899036E+03  0.41800000000E+01 0. -1.
        -11    1    1    2    0    0 -0.95507604006E+02  0.28437223733E+02 -0.16472461659E+03  0.19252162847E+03  0.00000000000E+00 0.  1.
         11    1    1    2    0    0 -0.58687846147E+02 -0.46874226718E+02 -0.81998010314E+02  0.11119860661E+03  0.00000000000E+00 0. -1.
</event>
<event>
 7    1  0.2522928E-009  0.1136241E+03  0.7561462E-02  0.1254002E+00
         -2   -1    0    0    0  501 -0.00000000000E+00  0.00000000000E+00  0.38588295814E+02  0.38588295814E+02  0.00000000000E+00 0.  1.
          2   -1    0    0  501    0  0.00000000000E+00 -0.00000000000E+00 -0.43769517775E+03  0.43769517775E+03  0.00000000000E+00 0. -1.
         25    2    1    2    0    0 -0.15571263098E+02  0.64633306231E+02 -0.25409221355E+03  0.29091132239E+03  0.12508643409E+03 0.  0.
          5    1    3    3  502    0 -0.70244522596E+02  0.43738507408E+02 -0.14273380592E+03  0.16503866740E+03  0.41800000000E+01 0. -1.
         -5    1    3    3    0  502  0.54673259498E+02  0.20894798823E+02 -0.11135840764E+03  0.12587265499E+03  0.41800000000E+01 0. -1.
        -11    1    1    2    0    0 -0.78547094312E+01 -0.61593792117E+02 -0.31881588376E+02  0.69799193154E+02  0.00000000000E+00 0.  1.
         11    1    1    2    0    0  0.23425972529E+02 -0.30395141141E+01 -0.11313308000E+03  0.11557295802E+03  0.00000000000E+00 0. -1.
</event>
<event>
 7    1  0.2522928E-009  0.1487467E+03  0.7561462E-02  0.1202022E+00
          2   -1    0    0  501    0  0.00000000000E+00  0.00000000000E+00  0.22499171635E+02  0.22499171635E+02  0.00000000000E+00 0. -1.
         -2   -1    0    0    0  501 -0.00000000000E+00 -0.00000000000E+00 -0.11892604527E+04  0.11892604527E+04  0.00000000000E+00 0.  1.
         25    2    1    2    0    0 -0.41769414319E+02 -0.10940979948E+03 -0.49874183465E+03  0.52735834981E+03  0.12509285865E+03 0.  0.
          5    1    3    3  502    0 -0.58734949915E+02 -0.13792454441E+02 -0.99357604651E+02  0.11631608721E+03  0.41800000000E+01 0. -1.
         -5    1    3    3    0  502  0.16965535596E+02 -0.95617345040E+02 -0.39938423000E+03  0.41104226260E+03  0.41800000000E+01 0. -1.
        -11    1    1    2    0    0  0.12611848513E+02  0.10993207181E+03 -0.60400624351E+03  0.61405835336E+03  0.00000000000E+00 0.  1.
         11    1    1    2    0    0  0.29157565806E+02 -0.52227233216E+00 -0.64013202908E+02  0.70342921170E+02  0.00000000000E+00 0. -1.
</event>
<event>
 7    1  0.2522928E-009  0.1535795E+03  0.7561462E-02  0.1196142E+00
         -4   -1    0    0    0  501 -0.00000000000E+00  0.00000000000E+00  0.27298059195E+03  0.27298059195E+03  0.00000000000E+00 0.  1.
          4   -1    0    0  501    0  0.00000000000E+00 -0.00000000000E+00 -0.10260895813E+03  0.10260895813E+03  0.00000000000E+00 0. -1.
         25    2    1    2    0    0  0.83971700836E+02  0.92990143864E+02  0.68750130063E+02  0.18992583398E+03  0.12508728405E+03 0.  0.
          5    1    3    3  502    0 -0.29456901362E+02  0.35221453721E+02  0.35797631705E+02  0.58371248708E+02  0.41800000000E+01 0.  1.
         -5    1    3    3    0  502  0.11342860220E+03  0.57768690143E+02  0.32952498359E+02  0.13155458527E+03  0.41800000000E+01 0.  1.
        -11    1    1    2    0    0 -0.29902392242E+02 -0.67682551802E+02  0.77250041825E+01  0.74395944579E+02  0.00000000000E+00 0. -1.
         11    1    1    2    0    0 -0.54069308595E+02 -0.25307592062E+02  0.93896499577E+02  0.11126777153E+03  0.00000000000E+00 0.  1.
</event>
<event>
 7    1  0.2522928E-009  0.1293797E+03  0.7561462E-02  0.1228379E+00
         -1   -1    0    0    0  501 -0.00000000000E+00  0.00000000000E+00  0.39727604157E+03  0.39727604157E+03  0.00000000000E+00 0.  1.
          1   -1    0    0  501    0  0.00000000000E+00 -0.00000000000E+00 -0.52253279257E+02  0.52253279257E+02  0.00000000000E+00 0. -1.
         25    2    1    2    0    0  0.87713752248E+02  0.33363787127E+02  0.20651345945E+03  0.25904233358E+03  0.12509307346E+03 0.  0.
          5    1    3    3  502    0 -0.32015099486E+02  0.38877323540E+01  0.35143187180E+02  0.47881072076E+02  0.41800000000E+01 0.  1.
         -5    1    3    3    0  502  0.11972885173E+03  0.29476054773E+02  0.17137027227E+03  0.21116126150E+03  0.41800000000E+01 0.  1.
        -11    1    1    2    0    0 -0.72873841267E+01  0.93063379622E+01 -0.10535926946E+02  0.15834129287E+02  0.00000000000E+00 0. -1.
         11    1    1    2    0    0 -0.80426368122E+02 -0.42670125089E+02  0.14904522981E+03  0.17465285796E+03  0.00000000000E+00 0.  1.
</event>
<event>
 7    1  0.2522928E-009  0.1090281E+03  0.7561462E-02  0.1262380E+00
          1   -1    0    0  501    0  0.00000000000E+00  0.00000000000E+00  0.26819675520E+02  0.26819675520E+02  0.00000000000E+00 0. -1.
         -1   -1    0    0    0  501 -0.00000000000E+00 -0.00000000000E+00 -0.47909223859E+03  0.47909223859E+03  0.00000000000E+00 0.  1.
         25    2    1    2    0    0  0.27301091941E+02 -0.16550650412E+02 -0.27705207221E+03  0.30564639690E+03  0.12507036247E+03 0.  0.
          5    1    3    3  502    0 -0.50040303265E+02 -0.10866465965E+02 -0.11411578664E+03  0.12514790128E+03  0.41800000000E+01 0. -1.
         -5    1    3    3    0  502  0.77341395206E+02 -0.56841844464E+01 -0.16293628557E+03  0.18049849562E+03  0.41800000000E+01 0. -1.
        -11    1    1    2    0    0  0.28730178567E+02 -0.46590351235E+01 -0.24395978267E+02  0.37977539735E+02  0.00000000000E+00 0. -1.
         11    1    1    2    0    0 -0.56031270508E+02  0.21209685535E+02 -0.15082451259E+03  0.16228797747E+03  0.00000000000E+00 0.  1.
</event>
<event>
 7    1  0.2522928E-009  0.2563415E+03  0.7561462E-02  0.1109361E+00
          1   -1    0    0  501    0  0.00000000000E+00  0.00000000000E+00  0.12518589058E+04  0.12518589058E+04  0.00000000000E+00 0. -1.
         -1   -1    0    0    0  501 -0.00000000000E+00 -0.00000000000E+00 -0.12492099123E+03  0.12492099123E+03  0.00000000000E+00 0.  1.
         25    2    1    2    0    0  0.23643477605E+03 -0.39737951844E+02  0.56755399901E+02  0.27631115465E+03  0.12508465382E+03 0.  0.
          5    1    3    3  502    0  0.17910416987E+03  0.14417290041E+02  0.11702091446E+01  0.17973592770E+03  0.41800000000E+01 0. -1.
         -5    1    3    3    0  502  0.57330606188E+02 -0.54155241885E+02  0.55585190757E+02  0.96575226953E+02  0.41800000000E+01 0. -1.
        -11    1    1    2    0    0 -0.71858592325E+02 -0.26473365684E+02  0.39608555321E+03  0.40342070081E+03  0.00000000000E+00 0.  1.
         11    1    1    2    0    0 -0.16457618373E+03  0.66211317527E+02  0.67409696150E+03  0.69704804162E+03  0.00000000000E+00 0. -1.
</event>
<event>
 7    1  0.2522928E-009  0.7670659E+02  0.7561462E-02  0.1338666E+00
         -1   -1    0    0    0  501 -0.00000000000E+00  0.00000000000E+00  0.44197388861E+03  0.44197388861E+03  0.00000000000E+00 0. -1.
          1   -1    0    0  501    0  0.00000000000E+00 -0.00000000000E+00 -0.32389774538E+02  0.32389774538E+02  0.00000000000E+00 0.  1.
         25    2    1    2    0    0  0.48423873499E+02  0.14818433770E+02  0.24827629239E+03  0.28258198129E+03  0.12508797418E+03 0.  0.
          5    1    3    3  502    0 -0.14891563836E+01 -0.27609041383E+02  0.23681630991E+01  0.28063452198E+02  0.41800000000E+01 0.  1.
         -5    1    3    3    0  502  0.49913029883E+02  0.42427475153E+02  0.24590812929E+03  0.25451852910E+03  0.41800000000E+01 0.  1.
        -11    1    1    2    0    0 -0.14178121412E+02  0.10141036660E+02 -0.65771641045E+01  0.18631125542E+02  0.00000000000E+00 0.  1.
         11    1    1    2    0    0 -0.34245752087E+02 -0.24959470429E+02  0.16788498578E+03  0.17315055631E+03  0.00000000000E+00 0. -1.
</event>
<event>
 7    1  0.2522928E-009  0.1286310E+03  0.7561462E-02  0.1229501E+00
          2   -1    0    0  501    0  0.00000000000E+00  0.00000000000E+00  0.37586830830E+03  0.37586830830E+03  0.00000000000E+00 0. -1.
         -2   -1    0    0    0  501 -0.00000000000E+00 -0.00000000000E+00 -0.57089996932E+02  0.57089996932E+02  0.00000000000E+00 0.  1.
         25    2    1    2    0    0 -0.77681995727E+01 -0.96037540599E+02  0.12695911078E+03  0.20260819514E+03  0.12509160962E+03 0.  0.
          5    1    3    3  502    0 -0.59194788988E+02 -0.66889770676E+02  0.10837538137E+03  0.14050252721E+03  0.41800000000E+01 0. -1.
         -5    1    3    3    0  502  0.51426589415E+02 -0.29147769922E+02  0.18583729412E+02  0.62105667931E+02  0.41800000000E+01 0. -1.
        -11    1    1    2    0    0 -0.14065240454E+02  0.80661420488E+02  0.76760530939E+02  0.11223312726E+03  0.00000000000E+00 0.  1.
         11    1    1    2    0    0  0.21833440027E+02  0.15376120110E+02  0.11505866964E+03  0.11811698283E+03  0.00000000000E+00 0. -1.
</event>
<event>
 6    1  0.2795424E-009  0.1592103E+03  0.7561462E-02  0.1189591E+00
         -2   -1    0    0    0  501 -0.00000000000E+00  0.00000000000E+00  0.37513728810E+02  0.37513728810E+02  0.00000000000E+00 0.  1.
          2   -1    0    0  501    0  0.00000000000E+00 -0.00000000000E+00 -0.10223868627E+04  0.10223868627E+04  0.00000000000E+00 0. -1.
          5    1    1    2  502    0  0.30028969229E+01 -0.72218230259E+01 -0.27402945657E+03  0.27417291549E+03  0.41800000000E+01 0. -1.
         -5    1    1    2    0  502 -0.13297553071E+03 -0.74287022416E+02 -0.38961289257E+03  0.41835001127E+03  0.41800000000E+01 0. -1.
        -11    1    1    2    0    0  0.77542373505E+02  0.28487944717E+02 -0.80433368309E+02  0.11529921691E+03  0.00000000000E+00 0.  1.
         11    1    1    2    0    0  0.52430260280E+02  0.53020900724E+02 -0.24079741648E+03  0.25207844788E+03  0.00000000000E+00 0. -1.
</event>
<event>
 7    1  0.2522928E-009  0.1591843E+03  0.7561462E-02  0.1189621E+00
          1   -1    0    0  501    0  0.00000000000E+00  0.00000000000E+00  0.83473275913E+03  0.83473275913E+03  0.00000000000E+00 0. -1.
         -1   -1    0    0    0  501 -0.00000000000E+00 -0.00000000000E+00 -0.37225006482E+02  0.37225006482E+02  0.00000000000E+00 0.  1.
         25    2    1    2    0    0 -0.61968852526E+00 -0.13089115301E+03  0.30708950114E+03  0.35648759260E+03  0.12508622633E+03 0.  0.
          5    1    3    3  502    0 -0.24550739412E+02  0.19894099387E+01  0.48711210407E+01  0.25453816566E+02  0.41800000000E+01 0. -1.
         -5    1    3    3    0  502  0.23931050887E+02 -0.13288056294E+03  0.30221838010E+03  0.33103377604E+03  0.41800000000E+01 0. -1.
        -11    1    1    2    0    0 -0.43504377698E+02  0.50987795991E+02  0.22682686823E+03  0.23652233377E+03  0.00000000000E+00 0.  1.
         11    1    1    2    0    0  0.44124066223E+02  0.79903357014E+02  0.26359138328E+03  0.27894783925E+03  0.00000000000E+00 0. -1.
</event>
<event>
 7    1  0.2522928E-009  0.1588684E+03  0.7561462E-02  0.1189980E+00
          1   -1    0    0  501    0  0.00000000000E+00  0.00000000000E+00  0.64731549330E+02  0.64731549330E+02  0.00000000000E+00 0. -1.
         -1   -1    0    0    0  501 -0.00000000000E+00 -0.00000000000E+00 -0.40188309169E+03  0.40188309169E+03  0.00000000000E+00 0.  1.
         25    2    1    2    0    0  0.11864808349E+03  0.60192840835E+01 -0.17865637786E+03  0.24835277445E+03  0.12508956683E+03 0.  0.
          5    1    3    3  502    0 -0.24059669127E+02 -0.67476008334E+01 -0.48591049456E+02  0.54799272648E+02  0.41800000000E+01 0. -1.
         -5    1    3    3    0  502  0.14270775261E+03  0.12766884917E+02 -0.13006532840E+03  0.19355350180E+03  0.41800000000E+01 0. -1.
        -11    1    1    2    0    0 -0.10729626553E+03 -0.39014815806E+02 -0.13149092535E+03  0.17413933473E+03  0.00000000000E+00 0.  1.
         11    1    1    2    0    0 -0.11351817957E+02  0.32995531723E+02 -0.27004239152E+02  0.44122531850E+02  0.00000000000E+00 0. -1.
</event>
<event>
 7    1  0.2641469E-009  0.1227404E+03  0.7561462E-02  0.1238643E+00
         -2   -1    0    0    0  501 -0.00000000000E+00  0.00000000000E+00  0.32256229523E+02  0.32256229523E+02  0.00000000000E+00 0. -1.
          2   -1    0    0  501    0  0.00000000000E+00 -0.00000000000E+00 -0.62939182700E+03  0.62939182700E+03  0.00000000000E+00 0.  1.
         25    2    1    2    0    0 -0.68616771906E+02 -0.54474072573E+02 -0.26075225391E+03  0.30218470422E+03  0.12509265197E+03 0.  0.
          5    1    3    3  502    0 -0.10515874143E+03 -0.37292367219E+02 -0.18034066798E+03  0.21210683742E+03  0.41800000000E+01 0. -1.
         -5    1    3    3    0  502  0.36541969528E+02 -0.17181705354E+02 -0.80411585931E+02  0.90077866803E+02  0.41800000000E+01 0. -1.
        -11    1    1    2    0    0  0.71223918947E+01  0.23146032150E+02 -0.10574364240E+02  0.26425072368E+02  0.00000000000E+00 0. -1.
         11    1    1    2    0    0  0.61494380012E+02  0.31328040423E+02 -0.32580897933E+03  0.33303827993E+03  0.00000000000E+00 0.  1.
</event>
<event>
 7    1  0.2522928E-009  0.1132207E+03  0.7561462E-02  0.1254719E+00
         -1   -1    0    0    0  501 -0.00000000000E+00  0.00000000000E+00  0.17759820460E+03  0.17759820460E+03  0.00000000000E+00 0.  1.
          1   -1    0    0  501    0  0.00000000000E+00 -0.00000000000E+00 -0.82125870948E+02  0.82125870948E+02  0.00000000000E+00 0. -1.
         25    2    1    2    0    0 -0.48276652996E+02  0.24321693245E+02  0.56551177330E+02  0.14753961696E+03  0.12509085869E+03 0.  0.
          5    1    3    3  502    0 -0.96605155541E+00 -0.43836637239E+02 -0.47428156980E+01  0.44300685331E+02  0.41800000000E+01 0. -1.
         -5    1    3    3    0  502 -0.47310601441E+02  0.68158330484E+02  0.61293993028E+02  0.10323893163E+03  0.41800000000E+01 0. -1.
        -11    1    1    2    0    0  0.51567257244E+02  0.19681168251E+02  0.39802785313E+02  0.68049923747E+02  0.00000000000E+00 0.  1.
         11    1    1    2    0    0 -0.32906042475E+01 -0.44002861496E+02 -0.88162898644E+00  0.44134534843E+02  0.00000000000E+00 0. -1.
</event>
<event>
 7    1  0.2522928E-009  0.1127470E+03  0.7561462E-02  0.1255566E+00
          1   -1    0    0  501    0  0.00000000000E+00  0.00000000000E+00  0.23137782388E+03  0.23137782388E+03  0.00000000000E+00 0. -1.
         -1   -1    0    0    0  501 -0.00000000000E+00 -0.00000000000E+00 -0.74104271299E+02  0.74104271299E+02  0.00000000000E+00 0.  1.
         25    2    1    2    0    0  0.97627645652E+01 -0.59711477934E+02  0.13165721113E+03  0.19141883680E+03  0.12508708035E+03 0.  0.
          5    1    3    3  502    0 -0.77231127693E+01  0.30316218978E+02  0.80402088383E+00  0.31572748591E+02  0.41800000000E+01 0.  1.
         -5    1    3    3    0  502  0.17485877334E+02 -0.90027696913E+02  0.13085319025E+03  0.15984608821E+03  0.41800000000E+01 0.  1.
        -11    1    1    2    0    0  0.26544499055E+02  0.60224908775E+02 -0.57698419034E+01  0.66067701206E+02  0.00000000000E+00 0.  1.
         11    1    1    2    0    0 -0.36307263620E+02 -0.51343084095E+00  0.31386183352E+02  0.47995557171E+02  0.00000000000E+00 0. -1.
</event>
<event>
 7    1  0.2522928E-009  0.1891742E+03  0.7561462E-02  0.1159208E+00
         -2   -1    0    0    0  501 -0.00000000000E+00  0.00000000000E+00  0.76353861902E+03  0.76353861902E+03  0.00000000000E+00 0.  1.
          2   -1    0    0  501    0  0.00000000000E+00 -0.00000000000E+00 -0.79382409167E+02  0.79382409167E+02  0.00000000000E+00 0. -1.
         25    2    1    2    0    0 -0.17606387890E+03  0.46919957396E+02  0.56577827031E+03  0.60741465903E+03  0.12509014744E+03 0.  0.
          5    1    3    3  502    0 -0.58137482892E+02  0.49423048156E+02  0.37782379408E+03  0.38547489721E+03  0.41800000000E+01 0. -1.
         -5    1    3    3    0  502 -0.11792639601E+03 -0.25030907603E+01  0.18795447624E+03  0.22193976182E+03  0.41800000000E+01 0. -1.
        -11    1    1    2    0    0  0.58820470345E+02 -0.27985529728E+02  0.93845309036E+02  0.11423650745E+03  0.00000000000E+00 0.  1.
         11    1    1    2    0    0  0.11724340856E+03 -0.18934427668E+02  0.24532630508E+02  0.12126986172E+03  0.00000000000E+00 0. -1.
</event>
<event>
 7    1  0.2522928E-009  0.6635087E+02  0.7561462E-02  0.1372961E+00
          2   -1    0    0  501    0  0.00000000000E+00  0.00000000000E+00  0.24024681554E+04  0.24024681554E+04  0.00000000000E+00 0. -1.
         -2   -1    0    0    0  501 -0.00000000000E+00 -0.00000000000E+00 -0.91743388877E+01  0.91743388877E+01  0.00000000000E+00 0.  1.
         25    2    1    2    0    0  0.11316204734E+02  0.63880263582E+01  0.21130042475E+04  0.21167436913E+04  0.12509213134E+03 0.  0.
          5    1    3    3  502    0 -0.41858500150E+01  0.20661704048E+02  0.61862714336E+02  0.65489657042E+02  0.41800000000E+01 0. -1.
         -5    1    3    3    0  502  0.15502054749E+02 -0.14273677689E+02  0.20511415331E+04  0.20512540342E+04  0.41800000000E+01 0. -1.
        -11    1    1    2    0    0  0.16590679915E+02  0.35619857218E+02  0.93514577914E+02  0.10143471383E+03  0.00000000000E+00 0.  1.
         11    1    1    2    0    0 -0.27906884649E+02 -0.42007883576E+02  0.18677499111E+03  0.19346408917E+03  0.00000000000E+00 0. -1.
</event>
<event>
 7    1  0.2522928E-009  0.1162255E+03  0.7561462E-02  0.1249457E+00
          2   -1    0    0  501    0  0.00000000000E+00  0.00000000000E+00  0.61936934781E+02  0.61936934781E+02  0.00000000000E+00 0. -1.
         -2   -1    0    0    0  501 -0.00000000000E+00 -0.00000000000E+00 -0.32047490858E+03  0.32047490858E+03  0.00000000000E+00 0.  1.
         25    2    1    2    0    0  0.66614721519E+02  0.49771624684E+02 -0.18593299010E+03  0.23902556664E+03  0.12508960370E+03 0.  0.
          5    1    3    3  502    0  0.73634121881E+02  0.74226580475E+02 -0.84881114800E+02  0.13473620599E+03  0.41800000000E+01 0. -1.
         -5    1    3    3    0  502 -0.70194003627E+01 -0.24454955791E+02 -0.10105187530E+03  0.10428936065E+03  0.41800000000E+01 0. -1.
        -11    1    1    2    0    0 -0.49689535820E+02 -0.63221358812E+02 -0.14920586325E+02  0.81783947546E+02  0.00000000000E+00 0. -1.
         11    1    1    2    0    0 -0.16925185699E+02  0.13449734128E+02 -0.57684397380E+02  0.61602329178E+02  0.00000000000E+00 0.  1.
</event>
<event>
 7    1  0.2522928E-009  0.7463678E+02  0.7561462E-02  0.1345000E+00
          2   -1    0    0  501    0  0.00000000000E+00  0.00000000000E+00  0.72289119053E+02  0.72289119053E+02  0.00000000000E+00 0. -1.
         -2   -1    0    0    0  501 -0.00000000000E+00 -0.00000000000E+00 -0.19578938968E+03  0.19578938968E+03  0.00000000000E+00 0.  1.
         25    2    1    2    0    0 -0.27598366017E+02  0.28558184451E+02 -0.11157919267E+03  0.17226233705E+03  0.12508859590E+03 0.  0.
          5    1    3    3  502    0 -0.45818566011E+02  0.52993546401E+02 -0.12117878685E+03  0.14003366643E+03  0.41800000000E+01 0.  1.
         -5    1    3    3    0  502  0.18220199993E+02 -0.24435361949E+02  0.95995941827E+01  0.32228670619E+02  0.41800000000E+01 0.  1.
        -11    1    1    2    0    0  0.24915597649E+02 -0.60217812241E+01  0.35182580943E+02  0.43530022481E+02  0.00000000000E+00 0. -1.
         11    1    1    2    0    0  0.26827683681E+01 -0.22536403227E+02 -0.47103658897E+02  0.52286149198E+02  0.00000000000E+00 0.  1.
</event>
<event>
 7    1  0.2522928E-009  0.1150152E+03  0.7561462E-02  0.1251555E+00
          2   -1    0    0  501    0  0.00000000000E+00  0.00000000000E+00  0.58421303083E+03  0.58421303083E+03  0.00000000000E+00 0. -1.
         -2   -1    0    0    0  501 -0.00000000000E+00 -0.00000000000E+00 -0.23802321637E+02  0.23802321637E+02  0.00000000000E+00 0.  1.
         25    2    1    2    0    0  0.24191304585E+02  0.34304185679E+02  0.31950247011E+03  0.34567509720E+03  0.12508975995E+03 0.  0.
          5    1    3    3  502    0 -0.19495119209E+02 -0.37705030889E+02  0.66631275913E+02  0.79113389241E+02  0.41800000000E+01 0. -1.
         -5    1    3    3    0  502  0.43686423793E+02  0.72009216568E+02  0.25287119420E+03  0.26656170796E+03  0.41800000000E+01 0. -1.
        -11    1    1    2    0    0 -0.25013193174E+02 -0.66393985916E+02  0.18027277576E+03  0.19373201821E+03  0.00000000000E+00 0.  1.
         11    1    1    2    0    0  0.82188858940E+00  0.32089800237E+02  0.60635463316E+02  0.68608237054E+02  0.00000000000E+00 0. -1.
</event>
<event>
 7    1  0.2522928E-009  0.1088365E+03  0.7561462E-02  0.1262740E+00
          1   -1    0    0  501    0  0.00000000000E+00  0.00000000000E+00  0.84327203468E+03  0.84327203468E+03  0.00000000000E+00 0. -1.
         -1   -1    0    0    0  501 -0.00000000000E+00 -0.00000000000E+00 -0.17182780031E+02  0.17182780031E+02  0.00000000000E+00 0.  1.
         25    2    1    2    0    0 -0.38522242853E+02 -0.35987271194E+02  0.48710088338E+03  0.50566138467E+03  0.12508844263E+03 0.  0.
          5    1    3    3  502    0  0.38411097798E+02 -0.14780516064E+02  0.29064808152E+03  0.29357734207E+03  0.41800000000E+01 0.  1.
         -5    1    3    3    0  502 -0.76933340651E+02 -0.21206755130E+02  0.19645280186E+03  0.21208404260E+03  0.41800000000E+01 0.  1.
        -11    1    1    2    0    0  0.57023047287E+02  0.12512627855E+01  0.26415122420E+03  0.27023889955E+03  0.00000000000E+00 0. -1.
         11    1    1    2    0    0 -0.18500804435E+02  0.34736008409E+02  0.74837147066E+02  0.84554530487E+02  0.00000000000E+00 0.  1.
</event>
<event>
 7    1  0.2522928E-009  0.8349990E+02  0.7561462E-02  0.1319403E+00
         -1   -1    0    0    0  501 -0.00000000000E+00  0.00000000000E+00  0.22802775580E+03  0.22802775580E+03  0.00000000000E+00 0.  1.
          1   -1    0    0  501    0  0.00000000000E+00 -0.00000000000E+00 -0.66350700605E+02  0.66350700605E+02  0.00000000000E+00 0. -1.
         25    2    1    2    0    0  0.17767795495E+02  0.16391289373E+02  0.15822018090E+03  0.20314162563E+03  0.12509406659E+03 0.  0.
          5    1    3    3  502    0 -0.30390586723E+02 -0.14618002693E+02  0.13820780999E+03  0.14232408407E+03  0.41800000000E+01 0.  1.
         -5    1    3    3    0  502  0.48158382218E+02  0.31009292066E+02  0.20012370907E+02  0.60817541561E+02  0.41800000000E+01 0.  1.
        -11    1    1    2    0    0  0.13133489852E+02 -0.36451979847E+02  0.27259946680E+02  0.47374466577E+02  0.00000000000E+00 0.  1.
         11    1    1    2    0    0 -0.30901285347E+02  0.20060690474E+02 -0.23803072380E+02  0.43862364199E+02  0.00000000000E+00 0. -1.
</event>
<event>
 7    1  0.2522928E-009  0.1321511E+03  0.7561462E-02  0.1224298E+00
          1   -1    0    0  501    0  0.00000000000E+00  0.00000000000E+00  0.15085384486E+03  0.15085384486E+03  0.00000000000E+00 0. -1.
         -1   -1    0    0    0  501 -0.00000000000E+00 -0.00000000000E+00 -0.12738221017E+03  0.12738221017E+03  0.00000000000E+00 0.  1.
         25    2    1    2    0    0 -0.46926199763E+00 -0.80742388515E+02  0.42070114469E+02  0.15471403443E+03  0.12508790672E+03 0.  0.
          5    1    3    3  502    0 -0.24388420846E+02 -0.10508732593E+03  0.50685247465E+02  0.11926696044E+03  0.41800000000E+01 0.  1.
         -5    1    3    3    0  502  0.23919158849E+02  0.24344937413E+02 -0.86151329958E+01  0.35447073987E+02  0.41800000000E+01 0.  1.
        -11    1    1    2    0    0  0.28141418155E+02 -0.77905824561E+01 -0.17913551466E+01  0.29254769595E+02  0.00000000000E+00 0. -1.
         11    1    1    2    0    0 -0.27672156157E+02  0.88532970971E+02 -0.16807124629E+02  0.94267251013E+02  0.00000000000E+00 0.  1.
</event>
<event>
 7    1  0.2522928E-009  0.1021697E+03  0.7561462E-02  0.1275798E+00
          2   -1    0    0  501    0  0.00000000000E+00  0.00000000000E+00  0.69223353495E+03  0.69223353495E+03  0.00000000000E+00 0. -1.
         -2   -1    0    0    0  501 -0.00000000000E+00 -0.00000000000E+00 -0.21163725390E+02  0.21163725390E+02  0.00000000000E+00 0.  1.
         25    2    1    2    0    0  0.33102803719E+02 -0.42180020753E+02  0.40476641253E+03  0.42703228990E+03  0.12508308495E+03 0.  0.
          5    1    3    3  502    0  0.65744143078E+02 -0.41156153580E+02  0.37396462252E+03  0.38194650493E+03  0.41800000000E+01 0.  1.
         -5    1    3    3    0  502 -0.32641339359E+02 -0.10238671737E+01  0.30801790003E+02  0.45085784972E+02  0.41800000000E+01 0.  1.
        -11    1    1    2    0    0 -0.45956594067E+02 -0.36880838555E+01  0.66217180782E+02  0.80686588300E+02  0.00000000000E+00 0.  1.
         11    1    1    2    0    0  0.12853790347E+02  0.45868104609E+02  0.20008621625E+03  0.20567838214E+03  0.00000000000E+00 0. -1.
</event>
<event>
 7    1  0.2522928E-009  0.1084607E+03  0.7561462E-02  0.1263447E+00
          2   -1    0    0  501    0  0.00000000000E+00  0.00000000000E+00  0.66720755019E+03  0.66720755019E+03  0.00000000000E+00 0. -1.
         -2   -1    0    0    0  501 -0.00000000000E+00 -0.00000000000E+00 -0.19262052194E+02  0.19262052194E+02  0.00000000000E+00 0.  1.
         25    2    1    2    0    0  0.26574387433E+02  0.18130822794E+02  0.41746820840E+03  0.43699285879E+03  0.12509248102E+03 0.  0.
          5    1    3    3  502    0  0.71743531775E+02 -0.43367621097E+01  0.30925350420E+03  0.31752345444E+03  0.41800000000E+01 0.  1.
         -5    1    3    3    0  502 -0.45169144342E+02  0.22467584904E+02  0.10821470420E+03  0.11946940435E+03  0.41800000000E+01 0.  1.
        -11    1    1    2    0    0  0.14348167661E+02  0.28715752590E+02  0.60744770364E+02  0.68705105259E+02  0.00000000000E+00 0. -1.
         11    1    1    2    0    0 -0.40922555094E+02 -0.46846575384E+02  0.16973251923E+03  0.18077163833E+03  0.00000000000E+00 0.  1.
</event>
<event>
 7    1  0.2522928E-009  0.1949843E+03  0.7561462E-02  0.1154041E+00
         -2   -1    0    0    0  501 -0.00000000000E+00  0.00000000000E+00  0.86878639310E+02  0.86878639310E+02  0.00000000000E+00 0.  1.
          2   -1    0    0  501    0  0.00000000000E+00 -0.00000000000E+00 -0.77915292680E+03  0.77915292680E+03  0.00000000000E+00 0. -1.
         25    2    1    2    0    0 -0.14754258950E+03 -0.61418969928E+02 -0.73102988614E+02  0.21571280310E+03  0.12508741301E+03 0.  0.
          5    1    3    3  502    0 -0.80309519817E+02 -0.95608502612E+02 -0.29055714465E+02  0.12826656497E+03  0.41800000000E+01 0. -1.
         -5    1    3    3    0  502 -0.67233069686E+02  0.34189532685E+02 -0.44047274150E+02  0.87446238138E+02  0.41800000000E+01 0. -1.
        -11    1    1    2    0    0  0.26231551844E+02  0.62924722705E+02 -0.13575404949E+03  0.15191042424E+03  0.00000000000E+00 0.  1.
         11    1    1    2    0    0  0.12131103766E+03 -0.15057527777E+01 -0.48341724939E+03  0.49840833877E+03  0.00000000000E+00 0. -1.
</event>
<event>
 7    1  0.2522928E-009  0.6540053E+02  0.7561462E-02  0.1376471E+00
         -3   -1    0    0    0  501 -0.00000000000E+00  0.00000000000E+00  0.75312536184E+02  0.75312536184E+02  0.00000000000E+00 0.  1.
          3   -1    0    0  501    0  0.00000000000E+00 -0.00000000000E+00 -0.20220718846E+03  0.20220718846E+03  0.00000000000E+00 0. -1.
         25    2    1    2    0    0 -0.50560604254E+02  0.36055606418E+01 -0.30926969083E+02  0.13846670319E+03  0.12508867137E+03 0.  0.
          5    1    3    3  502    0  0.49339214024E+01 -0.18799034210E+02 -0.66030894097E+02  0.68958673442E+02  0.41800000000E+01 0. -1.
         -5    1    3    3    0  502 -0.55494525656E+02  0.22404594852E+02  0.35103925015E+02  0.69508029750E+02  0.41800000000E+01 0. -1.
        -11    1    1    2    0    0  0.16012547247E+02  0.11546663761E+01  0.15464567285E+02  0.22290979456E+02  0.00000000000E+00 0.  1.
         11    1    1    2    0    0  0.34548057006E+02 -0.47602270179E+01 -0.11143225048E+03  0.11676204199E+03  0.00000000000E+00 0. -1.
</event>
<event>
 7    1  0.2522928E-009  0.7920683E+02  0.7561462E-02  0.1331318E+00
         -1   -1    0    0    0  501 -0.00000000000E+00  0.00000000000E+00  0.17462929642E+03  0.17462929642E+03  0.00000000000E+00 0.  1.
          1   -1    0    0  501    0  0.00000000000E+00 -0.00000000000E+00 -0.81256977008E+02  0.81256977008E+02  0.00000000000E+00 0. -1.
         25    2    1    2    0    0 -0.28588232707E+02  0.41284901077E+00  0.95791674672E+02  0.16013538544E+03  0.12509931751E+03 0.  0.
          5    1    3    3  502    0  0.83034297383E+01  0.20696911014E+02 -0.24039091852E+02  0.33055399076E+02  0.41800000000E+01 0.  1.
         -5    1    3    3    0  502 -0.36891662445E+02 -0.20284062004E+02  0.11983076652E+03  0.12707998637E+03  0.41800000000E+01 0.  1.
        -11    1    1    2    0    0 -0.30865418097E+02 -0.11501394417E+02  0.91268036202E+01  0.34179740376E+02  0.00000000000E+00 0. -1.
         11    1    1    2    0    0  0.59453650803E+02  0.11088545407E+02 -0.11546158880E+02  0.61571147609E+02  0.00000000000E+00 0.  1.
</event>
<event>
 7    1  0.2522928E-009  0.1200413E+03  0.7561462E-02  0.1243029E+00
          1   -1    0    0  501    0  0.00000000000E+00  0.00000000000E+00  0.94573459648E+03  0.94573459648E+03  0.00000000000E+00 0. -1.
         -1   -1    0    0    0  501 -0.00000000000E+00 -0.00000000000E+00 -0.15926968230E+02  0.15926968230E+02  0.00000000000E+00 0.  1.
         25    2    1    2    0    0  0.41010903984E+02 -0.45360387532E+02  0.60769192039E+03  0.62343888061E+03  0.12508840376E+03 0.  0.
          5    1    3    3  502    0  0.79360685863E+02 -0.55711083751E+02  0.47727314290E+03  0.48704103384E+03  0.41800000000E+01 0. -1.
         -5    1    3    3    0  502 -0.38349781880E+02  0.10350696219E+02  0.13041877749E+03  0.13639784677E+03  0.41800000000E+01 0. -1.
        -11    1    1    2    0    0 -0.31037467120E+02  0.69964173438E+02  0.24338048314E+03  0.25513206287E+03  0.00000000000E+00 0. -1.
         11    1    1    2    0    0 -0.99734368634E+01 -0.24603785906E+02  0.78735224726E+02  0.83090621230E+02  0.00000000000E+00 0.  1.
</event>
<event>
 7    1  0.2522928E-009  0.1564072E+03  0.7561462E-02  0.1192814E+00
         -4   -1    0    0    0  501 -0.00000000000E+00  0.00000000000E+00  0.69885499089E+03  0.69885499089E+03  0.00000000000E+00 0.  1.
          4   -1    0    0  501    0  0.00000000000E+00 -0.00000000000E+00 -0.42684989590E+02  0.42684989590E+02  0.00000000000E+00 0. -1.
         25    2    1    2    0    0 -0.11242272225E+03 -0.21490310032E+02  0.50250029517E+03  0.53033527584E+03  0.12509299042E+03 0.  0.
          5    1    3    3  502    0 -0.11600058956E+03 -0.59821670706E+02  0.39919086998E+03  0.42000665726E+03  0.41800000000E+01 0. -1.
         -5    1    3    3    0  502  0.35778673110E+01  0.38331360674E+02  0.10330942519E+03  0.11032861858E+03  0.41800000000E+01 0. -1.
        -11    1    1    2    0    0  0.17318760955E+02 -0.30533172057E+02  0.50895100951E+02  0.61826575012E+02  0.00000000000E+00 0.  1.
         11    1    1    2    0    0  0.95103961292E+02  0.52023482089E+02  0.10277460518E+03  0.14937812963E+03  0.00000000000E+00 0. -1.
</event>
<event>
 7    1  0.2522928E-009  0.1556679E+03  0.7561462E-02  0.1193676E+00
         -2   -1    0    0    0  501 -0.00000000000E+00  0.00000000000E+00  0.39252478895E+02  0.39252478895E+02  0.00000000000E+00 0.  1.
          2   -1    0    0  501    0  0.00000000000E+00 -0.00000000000E+00 -0.67957646033E+03  0.67957646033E+03  0.00000000000E+00 0. -1.
         25    2    1    2    0    0 -0.12060744541E+03 -0.84409903366E+01 -0.39104301438E+03  0.42799536004E+03  0.12509189790E+03 0.  0.
          5    1    3    3  502    0 -0.85620491873E+01  0.44789012741E+02 -0.15059295815E+03  0.15740100316E+03  0.41800000000E+01 0. -1.
         -5    1    3    3    0  502 -0.11204539622E+03 -0.53230003077E+02 -0.24045005622E+03  0.27059435689E+03  0.41800000000E+01 0. -1.
        -11    1    1    2    0    0  0.91777412603E+02 -0.27070460816E+02 -0.20908725640E+03  0.22994213207E+03  0.00000000000E+00 0. -1.
         11    1    1    2    0    0  0.28830032806E+02  0.35511451152E+02 -0.40193710656E+02  0.60891447107E+02  0.00000000000E+00 0.  1.
</event>
<event>
 7    1  0.2522928E-009  0.9611941E+02  0.7561462E-02  0.1288675E+00
         -2   -1    0    0    0  501 -0.00000000000E+00  0.00000000000E+00  0.69219934852E+02  0.69219934852E+02  0.00000000000E+00 0.  1.
          2   -1    0    0  501    0  0.00000000000E+00 -0.00000000000E+00 -0.22105481748E+03  0.22105481748E+03  0.00000000000E+00 0. -1.
         25    2    1    2    0    0  0.43162966769E+02 -0.19684134435E+02 -0.12306632430E+03  0.18177867742E+03  0.12509060931E+03 0.  0.
          5    1    3    3  502    0 -0.10625299093E+02  0.42134470846E+02 -0.74739179497E+02  0.86554190922E+02  0.41800000000E+01 0.  1.
         -5    1    3    3    0  502  0.53788265862E+02 -0.61818605281E+02 -0.48327144806E+02  0.95224486496E+02  0.41800000000E+01 0.  1.
        -11    1    1    2    0    0 -0.32052768720E+02 -0.11010588385E+02  0.27365726251E+02  0.43560257259E+02  0.00000000000E+00 0.  1.
         11    1    1    2    0    0 -0.11110198049E+02  0.30694722820E+02 -0.56134284578E+02  0.64935817656E+02  0.00000000000E+00 0. -1.
</event>
<event>
 7    1  0.2522928E-009  0.1161357E+03  0.7561462E-02  0.1249612E+00
         -2   -1    0    0    0  501 -0.00000000000E+00  0.00000000000E+00  0.53572550349E+02  0.53572550349E+02  0.00000000000E+00 0.  1.
          2   -1    0    0  501    0  0.00000000000E+00 -0.00000000000E+00 -0.29585765442E+03  0.29585765442E+03  0.00000000000E+00 0. -1.
         25    2    1    2    0    0  0.51081973237E+02 -0.37675725786E+02 -0.11914810129E+03  0.18404493111E+03  0.12508972110E+03 0.  0.
          5    1    3    3  502    0  0.23158671275E+02 -0.74107722991E+02 -0.29351778506E+02  0.83110035276E+02  0.41800000000E+01 0. -1.
         -5    1    3    3    0  502  0.27923301962E+02  0.36431997204E+02 -0.89796322782E+02  0.10093489584E+03  0.41800000000E+01 0. -1.
        -11    1    1    2    0    0  0.86290851740E+01 -0.22228165905E+02 -0.15282530157E+02  0.28321514762E+02  0.00000000000E+00 0.  1.
         11    1    1    2    0    0 -0.59711058411E+02  0.59903891691E+02 -0.10785447263E+03  0.13706375890E+03  0.00000000000E+00 0. -1.
</event>
<event>
 7    1  0.2522928E-009  0.9247515E+02  0.7561462E-02  0.1296966E+00
          1   -1    0    0  501    0  0.00000000000E+00  0.00000000000E+00  0.37100160017E+02  0.37100160017E+02  0.00000000000E+00 0. -1.
         -1   -1    0    0    0  501 -0.00000000000E+00 -0.00000000000E+00 -0.40050874304E+03  0.40050874304E+03  0.00000000000E+00 0.  1.
         25    2    1    2    0    0 -0.44558565087E+02 -0.61741298077E+01 -0.16792492088E+03  0.21418005987E+03  0.12510289122E+03 0.  0.
          5    1    3    3  502    0  0.28489975334E+02  0.11907264249E+02 -0.12201112363E+03  0.12592715484E+03  0.41800000000E+01 0. -1.
         -5    1    3    3    0  502 -0.73048540421E+02 -0.18081394057E+02 -0.45913797250E+02  0.88252905033E+02  0.41800000000E+01 0. -1.
        -11    1    1    2    0    0  0.31270483163E+02  0.34846160636E+02 -0.31504915172E+02  0.56432771581E+02  0.00000000000E+00 0. -1.
         11    1    1    2    0    0  0.13288081924E+02 -0.28672030829E+02 -0.16397874697E+03  0.16699607160E+03  0.00000000000E+00 0.  1.
</event>
<event>
 7    1  0.2522928E-009  0.1176055E+03  0.7561462E-02  0.1247100E+00
         -2   -1    0    0    0  501 -0.00000000000E+00  0.00000000000E+00  0.17017502803E+03  0.17017502803E+03  0.00000000000E+00 0.  1.
          2   -1    0    0  501    0  0.00000000000E+00 -0.00000000000E+00 -0.10511799911E+03  0.10511799911E+03  0.00000000000E+00 0. -1.
         25    2    1    2    0    0  0.60134446362E+02 -0.62947665987E+01  0.84438963132E+02  0.16258098513E+03  0.12508741946E+03 0.  0.
          5    1    3    3  502    0  0.49911902436E+02  0.55679769774E+02  0.35692925497E+02  0.82963197247E+02  0.41800000000E+01 0.  1.
         -5    1    3    3    0  502  0.10222543926E+02 -0.61974536373E+02  0.48746037634E+02  0.79617787887E+02  0.41800000000E+01 0. -1.
        -11    1    1    2    0    0  0.93471597400E+01  0.23923217879E+02  0.18482410428E+02  0.31643154775E+02  0.00000000000E+00 0.  1.
         11    1    1    2    0    0 -0.69481606102E+02 -0.17628451280E+02 -0.37864344645E+02  0.81068887228E+02  0.00000000000E+00 0. -1.
</event>
<event>
 7    1  0.2522928E-009  0.1738112E+03  0.7561462E-02  0.1173931E+00
         -2   -1    0    0    0  501 -0.00000000000E+00  0.00000000000E+00  0.12818928661E+03  0.12818928661E+03  0.00000000000E+00 0.  1.
          2   -1    0    0  501    0  0.00000000000E+00 -0.00000000000E+00 -0.49314242703E+03  0.49314242703E+03  0.00000000000E+00 0. -1.
         25    2    1    2    0    0 -0.13806959112E+03  0.33850177824E+02  0.29926479201E+02  0.19170831655E+03  0.12508971958E+03 0.  0.
          5    1    3    3  502    0 -0.14250254535E+02  0.53559037575E+02 -0.16449281691E+02  0.57962846104E+02  0.41800000000E+01 0.  1.
         -5    1    3    3    0  502 -0.12381933659E+03 -0.19708859751E+02  0.46375760893E+02  0.13374547044E+03  0.41800000000E+01 0.  1.
        -11    1    1    2    0    0  0.11142102234E+03 -0.62265587804E+02 -0.26697265989E+03  0.29591561090E+03  0.00000000000E+00 0.  1.
         11    1    1    2    0    0  0.26648568781E+02  0.28415409980E+02 -0.12790695972E+03  0.13370778619E+03  0.00000000000E+00 0. -1.
</event>
<event>
 7    1  0.2522928E-009  0.1034357E+03  0.7561462E-02  0.1273233E+00
          1   -1    0    0  501    0  0.00000000000E+00  0.00000000000E+00  0.73786790329E+03  0.73786790329E+03  0.00000000000E+00 0. -1.
         -1   -1    0    0    0  501 -0.00000000000E+00 -0.00000000000E+00 -0.18186296905E+02  0.18186296905E+02  0.00000000000E+00 0.  1.
         25    2    1    2    0    0  0.48245270904E+00 -0.35812239384E+02  0.37638501258E+03  0.39824120090E+03  0.12509047583E+03 0.  0.
          5    1    3    3  502    0  0.58609161547E+02 -0.19380442021E+02  0.12253082963E+03  0.13726584411E+03  0.41800000000E+01 0.  1.
         -5    1    3    3    0  502 -0.58126708838E+02 -0.16431797364E+02  0.25385418295E+03  0.26097535678E+03  0.41800000000E+01 0.  1.
        -11    1    1    2    0    0  0.31356203785E+02  0.41596312647E+02  0.29572996575E+03  0.30028266247E+03  0.00000000000E+00 0. -1.
         11    1    1    2    0    0 -0.31838656494E+02 -0.57840732630E+01  0.47566628059E+02  0.57530336830E+02  0.00000000000E+00 0.  1.
</event>
<event>
 7    1  0.2522928E-009  0.1370582E+03  0.7561462E-02  0.1217343E+00
         -1   -1    0    0    0  501 -0.00000000000E+00  0.00000000000E+00  0.24944585055E+03  0.24944585055E+03  0.00000000000E+00 0.  1.
          1   -1    0    0  501    0  0.00000000000E+00 -0.00000000000E+00 -0.11386255398E+03  0.11386255398E+03  0.00000000000E+00 0. -1.
         25    2    1    2    0    0 -0.97814640568E+02  0.80965006302E+02  0.49931060932E+02  0.18510723138E+03  0.12509412499E+03 0.  0.
          5    1    3    3  502    0 -0.81032287332E+01 -0.34713979892E+01 -0.34397196758E+02  0.35754055221E+02  0.41800000000E+01 0. -1.
         -5    1    3    3    0  502 -0.89711411835E+02  0.84436404291E+02  0.84328257690E+02  0.14935317616E+03  0.41800000000E+01 0. -1.
        -11    1    1    2    0    0  0.57595385262E+02 -0.85077995596E+01  0.74549025014E+02  0.94589471863E+02  0.00000000000E+00 0. -1.
         11    1    1    2    0    0  0.40219255306E+02 -0.72457206743E+02  0.11103210622E+02  0.83611701289E+02  0.00000000000E+00 0.  1.
</event>
<event>
 7    1  0.2522928E-009  0.1530893E+03  0.7561462E-02  0.1196727E+00
         -1   -1    0    0    0  501 -0.00000000000E+00  0.00000000000E+00  0.34526067526E+02  0.34526067526E+02  0.00000000000E+00 0.  1.
          1   -1    0    0  501    0  0.00000000000E+00 -0.00000000000E+00 -0.95457311085E+03  0.95457311085E+03  0.00000000000E+00 0. -1.
         25    2    1    2    0    0 -0.10947553541E+03  0.65528303444E+02 -0.67563524829E+03  0.69886283995E+03  0.12508968352E+03 0.  0.
          5    1    3    3  502    0 -0.73649010427E+02 -0.23701857414E+02 -0.38457800844E+03  0.39230558466E+03  0.41800000000E+01 0.  1.
         -5    1    3    3    0  502 -0.35826524982E+02  0.89230160858E+02 -0.29105723985E+03  0.30655725529E+03  0.41800000000E+01 0.  1.
        -11    1    1    2    0    0  0.78994872382E+02 -0.27342786710E+02 -0.22055286722E+03  0.23586306427E+03  0.00000000000E+00 0. -1.
         11    1    1    2    0    0  0.30480663027E+02 -0.38185516735E+02 -0.23858927824E+02  0.54373274168E+02  0.00000000000E+00 0.  1.
</event>
<event>
 7    1  0.2522928E-009  0.9562743E+02  0.7561462E-02  0.1289769E+00
          2   -1    0    0  501    0  0.00000000000E+00  0.00000000000E+00  0.30935224710E+03  0.30935224710E+03  0.00000000000E+00 0. -1.
         -2   -1    0    0    0  501 -0.00000000000E+00 -0.00000000000E+00 -0.56662463922E+02  0.56662463922E+02  0.00000000000E+00 0.  1.
         25    2    1    2    0    0  0.44042976166E+02 -0.11757070422E+02  0.22229608258E+03  0.25911604760E+03  0.12509022880E+03 0.  0.
          5    1    3    3  502    0 -0.41218517679E+02  0.33438868611E+00  0.10997737150E+03  0.11752264743E+03  0.41800000000E+01 0. -1.
         -5    1    3    3    0  502  0.85261493844E+02 -0.12091459108E+02  0.11231871108E+03  0.14159340018E+03  0.41800000000E+01 0. -1.
        -11    1    1    2    0    0 -0.52657766061E+02  0.54669207298E+01 -0.19090646561E+02  0.56277707264E+02  0.00000000000E+00 0.  1.
         11    1    1    2    0    0  0.86147898958E+01  0.62901496917E+01  0.49484347159E+02  0.50620956153E+02  0.00000000000E+00 0. -1.
</event>
<event>
 7    1  0.2522928E-009  0.1084014E+03  0.7561462E-02  0.1263559E+00
         -1   -1    0    0    0  501 -0.00000000000E+00  0.00000000000E+00  0.19333966801E+02  0.19333966801E+02  0.00000000000E+00 0.  1.
          1   -1    0    0  501    0  0.00000000000E+00 -0.00000000000E+00 -0.77544418771E+03  0.77544418771E+03  0.00000000000E+00 0. -1.
         25    2    1    2    0    0 -0.22408357831E+02 -0.50487950299E+02 -0.42606029095E+03  0.44746645645E+03  0.12509072905E+03 0.  0.
          5    1    3    3  502    0 -0.56046538310E+02  0.94368031569E+00 -0.92292944298E+02  0.10806278247E+03  0.41800000000E+01 0.  1.
         -5    1    3    3    0  502  0.33638180479E+02 -0.51431630615E+02 -0.33376734666E+03  0.33940367398E+03  0.41800000000E+01 0.  1.
        -11    1    1    2    0    0 -0.31217630596E+02  0.22694262485E+02 -0.66132115290E+02  0.76570403437E+02  0.00000000000E+00 0.  1.
         11    1    1    2    0    0  0.53625988427E+02  0.27793687815E+02 -0.26391781467E+03  0.27074129463E+03  0.00000000000E+00 0. -1.
</event>
<event>
 7    1  0.2522928E-009  0.1237963E+03  0.7561462E-02  0.1236963E+00
         -2   -1    0    0    0  501 -0.00000000000E+00  0.00000000000E+00  0.16740667806E+03  0.16740667806E+03  0.00000000000E+00 0. -1.
          2   -1    0    0  501    0  0.00000000000E+00 -0.00000000000E+00 -0.10725654176E+03  0.10725654176E+03  0.00000000000E+00 0.  1.
         25    2    1    2    0    0  0.48809529913E+02 -0.59919264097E+02  0.49882672416E+02  0.15526997101E+03  0.12509114465E+03 0.  0.
          5    1    3    3  502    0 -0.12504560427E+02 -0.70668064313E+02 -0.51575879568E+01  0.72072272469E+02  0.41800000000E+01 0. -1.
         -5    1    3    3    0  502  0.61314090340E+02  0.10748800216E+02  0.55040260373E+02  0.83197698539E+02  0.41800000000E+01 0. -1.
        -11    1    1    2    0    0  0.21857630480E+01  0.62229843351E+02  0.23670371674E+02  0.66615444596E+02  0.00000000000E+00 0. -1.
         11    1    1    2    0    0 -0.50995292961E+02 -0.23105792537E+01 -0.13402907790E+02  0.52777804216E+02  0.00000000000E+00 0.  1.
</event>
<event>
 7    1  0.2522928E-009  0.1487146E+03  0.7561462E-02  0.1202061E+00
          1   -1    0    0  501    0  0.00000000000E+00  0.00000000000E+00  0.20349244665E+03  0.20349244665E+03  0.00000000000E+00 0. -1.
         -1   -1    0    0    0  501 -0.00000000000E+00 -0.00000000000E+00 -0.13022870442E+03  0.13022870442E+03  0.00000000000E+00 0.  1.
         25    2    1    2    0    0  0.55749708415E+02  0.95271814541E+02  0.10722149779E-01  0.16682766181E+03  0.12508684982E+03 0.  0.
          5    1    3    3  502    0 -0.40269167030E+02  0.22872245030E+02 -0.95662888072E-01  0.46499752229E+02  0.41800000000E+01 0. -1.
         -5    1    3    3    0  502  0.96018875445E+02  0.72399569511E+02  0.10638503785E+00  0.12032790958E+03  0.41800000000E+01 0. -1.
        -11    1    1    2    0    0 -0.34642209415E+02 -0.17055474951E+01  0.61034103259E+02  0.70200807161E+02  0.00000000000E+00 0. -1.
         11    1    1    2    0    0 -0.21107499000E+02 -0.93566267045E+02  0.12218916824E+02  0.96692682097E+02  0.00000000000E+00 0.  1.
</event>
<event>
 7    1  0.2522928E-009  0.1355246E+03  0.7561462E-02  0.1219481E+00
          1   -1    0    0  501    0  0.00000000000E+00  0.00000000000E+00  0.13914415373E+03  0.13914415373E+03  0.00000000000E+00 0. -1.
         -1   -1    0    0    0  501 -0.00000000000E+00 -0.00000000000E+00 -0.19518310371E+03  0.19518310371E+03  0.00000000000E+00 0.  1.
         25    2    1    2    0    0 -0.14022095881E+02  0.98374922361E+02  0.17604500152E+02  0.16072038635E+03  0.12508748795E+03 0.  0.
          5    1    3    3  502    0 -0.62369370221E+02  0.89900886779E+02  0.38088278728E+01  0.10956316605E+03  0.41800000000E+01 0.  1.
         -5    1    3    3    0  502  0.48347274340E+02  0.84740355818E+01  0.13795672279E+02  0.51157220300E+02  0.41800000000E+01 0.  1.
        -11    1    1    2    0    0 -0.15684580139E+02 -0.68070089615E+02 -0.10122976952E+03  0.12299190783E+03  0.00000000000E+00 0.  1.
         11    1    1    2    0    0  0.29706676021E+02 -0.30304832746E+02  0.27586319388E+02  0.50614963255E+02  0.00000000000E+00 0. -1.
</event>
<event>
 7    1  0.2522928E-009  0.7642238E+02  0.7561462E-02  0.1339522E+00
          3   -1    0    0  501    0  0.00000000000E+00  0.00000000000E+00  0.37242176757E+03  0.37242176757E+03  0.00000000000E+00 0. -1.
         -3   -1    0    0    0  501 -0.00000000000E+00 -0.00000000000E+00 -0.39013645066E+02  0.39013645066E+02  0.00000000000E+00 0.  1.
         25    2    1    2    0    0 -0.42500918878E+02 -0.17062409406E+02  0.13098986456E+03  0.18682412218E+03  0.12508978412E+03 0.  0.
          5    1    3    3  502    0 -0.50014764463E+02  0.16831982352E+02  0.17801728738E+01  0.52966345066E+02  0.41800000000E+01 0.  1.
         -5    1    3    3    0  502  0.75138455843E+01 -0.33894391758E+02  0.12920969169E+03  0.13385777712E+03  0.41800000000E+01 0.  1.
        -11    1    1    2    0    0  0.23311343151E+02  0.32719031447E+02  0.19450640909E+03  0.19861192541E+03  0.00000000000E+00 0. -1.
         11    1    1    2    0    0  0.19189575727E+02 -0.15656622041E+02  0.79118488479E+01  0.25999365040E+02  0.00000000000E+00 0.  1.
</event>
<event>
 7    1  0.2522928E-009  0.1589827E+03  0.7561462E-02  0.1189850E+00
         -1   -1    0    0    0  501 -0.00000000000E+00  0.00000000000E+00  0.84674672169E+02  0.84674672169E+02  0.00000000000E+00 0.  1.
          1   -1    0    0  501    0  0.00000000000E+00 -0.00000000000E+00 -0.50611254714E+03  0.50611254714E+03  0.00000000000E+00 0. -1.
         25    2    1    2    0    0 -0.64901466071E+01  0.13298132394E+03 -0.55764416915E+02  0.19100696065E+03  0.12509130387E+03 0.  0.
          5    1    3    3  502    0  0.19072451696E+02  0.14361705186E+03 -0.68423739892E+02  0.16027756106E+03  0.41800000000E+01 0. -1.
         -5    1    3    3    0  502 -0.25562598303E+02 -0.10635727929E+02  0.12659322978E+02  0.30729399585E+02  0.41800000000E+01 0. -1.
        -11    1    1    2    0    0 -0.22236875710E+02 -0.94054735001E+02 -0.14775939420E+03  0.17656050066E+03  0.00000000000E+00 0.  1.
         11    1    1    2    0    0  0.28727022317E+02 -0.38926588934E+02 -0.21791406385E+03  0.22321975800E+03  0.00000000000E+00 0. -1.
</event>
<event>
 7    1  0.2522928E-009  0.1819637E+03  0.7561462E-02  0.1165916E+00
         -4   -1    0    0    0  501 -0.00000000000E+00  0.00000000000E+00  0.78044168164E+02  0.78044168164E+02  0.00000000000E+00 0.  1.
          4   -1    0    0  501    0  0.00000000000E+00 -0.00000000000E+00 -0.48342107200E+03  0.48342107200E+03  0.00000000000E+00 0. -1.
         25    2    1    2    0    0  0.14431098391E+03  0.43138863282E+01 -0.23986347007E+03  0.30663696955E+03  0.12508987621E+03 0.  0.
          5    1    3    3  502    0  0.10695830077E+03 -0.39904583414E+02 -0.21507451154E+03  0.24353022768E+03  0.41800000000E+01 0.  1.
         -5    1    3    3    0  502  0.37352683148E+02  0.44218469742E+02 -0.24788958524E+02  0.63106741870E+02  0.41800000000E+01 0.  1.
        -11    1    1    2    0    0 -0.10903829009E+03  0.55398825963E+02 -0.87120763819E+02  0.15016126702E+03  0.00000000000E+00 0.  1.
         11    1    1    2    0    0 -0.35272693821E+02 -0.59712712291E+02 -0.78392669949E+02  0.10466700359E+03  0.00000000000E+00 0. -1.
</event>
<event>
 7    1  0.2522928E-009  0.1498307E+03  0.7561462E-02  0.1200681E+00
          2   -1    0    0  501    0  0.00000000000E+00  0.00000000000E+00  0.29612623257E+03  0.29612623257E+03  0.00000000000E+00 0. -1.
         -2   -1    0    0    0  501 -0.00000000000E+00 -0.00000000000E+00 -0.12579779807E+03  0.12579779807E+03  0.00000000000E+00 0.  1.
         25    2    1    2    0    0 -0.12286332431E+03  0.63070849985E+02 -0.10632272046E+02  0.18663808856E+03  0.12508957716E+03 0.  0.
          5    1    3    3  502    0 -0.13480666366E+03  0.54098625313E+02  0.25298009700E+02  0.14750240514E+03  0.41800000000E+01 0.  1.
         -5    1    3    3    0  502  0.11943339346E+02  0.89722246721E+01 -0.35930281745E+02  0.39135683418E+02  0.41800000000E+01 0.  1.
        -11    1    1    2    0    0  0.31565118527E+02 -0.23376774580E+02  0.15586309249E+02  0.42258293073E+02  0.00000000000E+00 0.  1.
         11    1    1    2    0    0  0.91298205786E+02 -0.39694075404E+02  0.16537439729E+03  0.19302764901E+03  0.00000000000E+00 0. -1.
</event>
<event>
 7    1  0.2522928E-009  0.1121669E+03  0.7561462E-02  0.1256609E+00
          1   -1    0    0  501    0  0.00000000000E+00  0.00000000000E+00  0.34578003488E+02  0.34578003488E+02  0.00000000000E+00 0. -1.
         -1   -1    0    0    0  501 -0.00000000000E+00 -0.00000000000E+00 -0.48757507624E+03  0.48757507624E+03  0.00000000000E+00 0.  1.
         25    2    1    2    0    0 -0.16894966624E+02 -0.39111689429E+02 -0.36809418226E+03  0.39109645450E+03  0.12509174859E+03 0.  0.
          5    1    3    3  502    0 -0.50554769738E+02 -0.64553472769E+02 -0.17360644515E+03  0.19204063577E+03  0.41800000000E+01 0.  1.
         -5    1    3    3    0  502  0.33659803113E+02  0.25441783340E+02 -0.19448773711E+03  0.19905581873E+03  0.41800000000E+01 0.  1.
        -11    1    1    2    0    0  0.49885229395E+02  0.43958382431E+02 -0.56983075443E+02  0.87566810977E+02  0.00000000000E+00 0. -1.
         11    1    1    2    0    0 -0.32990262771E+02 -0.48466930014E+01 -0.27919815049E+02  0.43489814246E+02  0.00000000000E+00 0.  1.
</event>
<event>
 7    1  0.2522928E-009  0.9704311E+02  0.7561462E-02  0.1286640E+00
          1   -1    0    0  501    0  0.00000000000E+00  0.00000000000E+00  0.53075236331E+03  0.53075236331E+03  0.00000000000E+00 0. -1.
         -1   -1    0    0    0  501 -0.00000000000E+00 -0.00000000000E+00 -0.22629330285E+02  0.22629330285E+02  0.00000000000E+00 0.  1.
         25    2    1    2    0    0  0.10394237825E+02 -0.77795178638E+01  0.26830564092E+03  0.29631757670E+03  0.12509048019E+03 0.  0.
          5    1    3    3  502    0 -0.20050320354E+02 -0.50354124931E+02  0.21393152391E+03  0.22072997659E+03  0.41800000000E+01 0. -1.
         -5    1    3    3    0  502  0.30444558179E+02  0.42574607067E+02  0.54374117012E+02  0.75587600111E+02  0.41800000000E+01 0. -1.
        -11    1    1    2    0    0 -0.38635611374E+01 -0.39400578731E+02  0.67186858770E+02  0.77983374512E+02  0.00000000000E+00 0.  1.
         11    1    1    2    0    0 -0.65306766880E+01  0.47180096595E+02  0.17263053333E+03  0.17908074238E+03  0.00000000000E+00 0. -1.
</event>
<event>
 7    1  0.2522928E-009  0.1345256E+03  0.7561462E-02  0.1220891E+00
         -2   -1    0    0    0  501 -0.00000000000E+00  0.00000000000E+00  0.16891187330E+02  0.16891187330E+02  0.00000000000E+00 0.  1.
          2   -1    0    0  501    0  0.00000000000E+00 -0.00000000000E+00 -0.17088381392E+04  0.17088381392E+04  0.00000000000E+00 0. -1.
         25    2    1    2    0    0 -0.10314309025E+03  0.43024404078E+02 -0.11965647340E+04  0.12082647802E+04  0.12508804840E+03 0.  0.
          5    1    3    3  502    0 -0.17169535756E+02  0.27445910926E+02 -0.85676560981E+03  0.85738722497E+03  0.41800000000E+01 0.  1.
         -5    1    3    3    0  502 -0.85973554495E+02  0.15578493152E+02 -0.33979912423E+03  0.35087755520E+03  0.41800000000E+01 0.  1.
        -11    1    1    2    0    0 -0.19648863323E+02 -0.36522840508E+01 -0.51879659410E+02  0.55596007674E+02  0.00000000000E+00 0.  1.
         11    1    1    2    0    0  0.12279195357E+03 -0.39372120027E+02 -0.44350255844E+03  0.46186853870E+03  0.00000000000E+00 0. -1.
</event>
<event>
 7    1  0.2522928E-009  0.8150872E+02  0.7561462E-02  0.1324824E+00
         -1   -1    0    0    0  501 -0.00000000000E+00  0.00000000000E+00  0.12617658543E+03  0.12617658543E+03  0.00000000000E+00 0.  1.
          1   -1    0    0  501    0  0.00000000000E+00 -0.00000000000E+00 -0.13142609720E+03  0.13142609720E+03  0.00000000000E+00 0. -1.
         25    2    1    2    0    0 -0.49126868133E+02 -0.38707408959E+02  0.25293297332E+02  0.14212202831E+03  0.12508879790E+03 0.  0.
          5    1    3    3  502    0 -0.18478673496E+02 -0.27225553317E+02 -0.49951653678E+02  0.59961089322E+02  0.41800000000E+01 0.  1.
         -5    1    3    3    0  502 -0.30648194637E+02 -0.11481855642E+02  0.75244951009E+02  0.82160938991E+02  0.41800000000E+01 0.  1.
        -11    1    1    2    0    0  0.15209218441E+02 -0.22335161772E+02  0.16145864439E+02  0.31478067213E+02  0.00000000000E+00 0.  1.
         11    1    1    2    0    0  0.33917649692E+02  0.61042570731E+02 -0.46688673549E+02  0.84002587102E+02  0.00000000000E+00 0. -1.
</event>
<event>
 7    1  0.2522928E-009  0.1388640E+03  0.7561462E-02  0.1214866E+00
         -1   -1    0    0    0  501 -0.00000000000E+00  0.00000000000E+00  0.42646729833E+02  0.42646729833E+02  0.00000000000E+00 0.  1.
          1   -1    0    0  501    0  0.00000000000E+00 -0.00000000000E+00 -0.51757766729E+03  0.51757766729E+03  0.00000000000E+00 0. -1.
         25    2    1    2    0    0  0.68561975176E+02 -0.66162537961E+02 -0.33191945207E+03  0.36728210214E+03  0.12508954401E+03 0.  0.
          5    1    3    3  502    0  0.95376737726E+02 -0.75812634455E+02 -0.30235401946E+03  0.32600567959E+03  0.41800000000E+01 0. -1.
         -5    1    3    3    0  502 -0.26814762550E+02  0.96500964937E+01 -0.29565432611E+02  0.41276422549E+02  0.41800000000E+01 0. -1.
        -11    1    1    2    0    0 -0.40811670601E+02 -0.13238683126E+02 -0.31311685010E+02  0.53115692656E+02  0.00000000000E+00 0.  1.
         11    1    1    2    0    0 -0.27750304574E+02  0.79401221087E+02 -0.11169980037E+03  0.13982660232E+03  0.00000000000E+00 0. -1.
</event>
<event>
 7    1  0.2522928E-009  0.1295572E+03  0.7561462E-02  0.1228114E+00
         -1   -1    0    0    0  501 -0.00000000000E+00  0.00000000000E+00  0.27698473214E+02  0.27698473214E+02  0.00000000000E+00 0.  1.
          1   -1    0    0  501    0  0.00000000000E+00 -0.00000000000E+00 -0.89781630218E+03  0.89781630218E+03  0.00000000000E+00 0. -1.
         25    2    1    2    0    0 -0.10423240616E+03 -0.17893664972E+02 -0.60136558779E+03  0.62327519504E+03  0.12508725290E+03 0.  0.
          5    1    3    3  502    0 -0.35632037777E+01 -0.36910227155E+02 -0.49636141725E+02  0.62098955347E+02  0.41800000000E+01 0.  1.
         -5    1    3    3    0  502 -0.10066920239E+03  0.19016562184E+02 -0.55172944606E+03  0.56117623970E+03  0.41800000000E+01 0.  1.
        -11    1    1    2    0    0  0.92178502938E+01  0.22316715435E+02 -0.92538157807E+01  0.25858028895E+02  0.00000000000E+00 0.  1.
         11    1    1    2    0    0  0.95014555869E+02 -0.44230504631E+01 -0.25949842540E+03  0.27638155146E+03  0.00000000000E+00 0. -1.
</event>
<event>
 7    1  0.2522928E-009  0.1230877E+03  0.7561462E-02  0.1238089E+00
         -3   -1    0    0    0  501 -0.00000000000E+00  0.00000000000E+00  0.55663518169E+02  0.55663518169E+02  0.00000000000E+00 0.  1.
          3   -1    0    0  501    0  0.00000000000E+00 -0.00000000000E+00 -0.42901289376E+03  0.42901289376E+03  0.00000000000E+00 0. -1.
         25    2    1    2    0    0 -0.32612559655E+02  0.86530924641E+02 -0.28517334649E+03  0.32483784542E+03  0.12507840862E+03 0.  0.
          5    1    3    3  502    0 -0.64460062298E+02  0.99802808771E+02 -0.24011211969E+03  0.26793096628E+03  0.41800000000E+01 0. -1.
         -5    1    3    3    0  502  0.31847502643E+02 -0.13271884130E+02 -0.45061226804E+02  0.56906879145E+02  0.41800000000E+01 0. -1.
        -11    1    1    2    0    0  0.76561861155E+01 -0.24735306640E+02 -0.89510612940E+02  0.93180482985E+02  0.00000000000E+00 0. -1.
         11    1    1    2    0    0  0.24956373539E+02 -0.61795618001E+02  0.13345838426E+01  0.66658083519E+02  0.00000000000E+00 0.  1.
</event>
<event>
 7    1  0.2522928E-009  0.8980741E+02  0.7561462E-02  0.1303319E+00
         -2   -1    0    0    0  501 -0.00000000000E+00  0.00000000000E+00  0.87132502627E+02  0.87132502627E+02  0.00000000000E+00 0.  1.
          2   -1    0    0  501    0  0.00000000000E+00 -0.00000000000E+00 -0.17585028055E+03  0.17585028055E+03  0.00000000000E+00 0. -1.
         25    2    1    2    0    0 -0.53375010749E+02 -0.16776696714E+02 -0.26091796227E+02  0.13949097483E+03  0.12508637378E+03 0.  0.
          5    1    3    3  502    0 -0.38112879420E+02 -0.60756848456E+02 -0.49471980630E+02  0.87229212305E+02  0.41800000000E+01 0.  1.
         -5    1    3    3    0  502 -0.15262131330E+02  0.43980151741E+02  0.23380184403E+02  0.52261762529E+02  0.41800000000E+01 0.  1.
        -11    1    1    2    0    0  0.15048656896E+02  0.17000530063E+02  0.21360799476E+02  0.31173127065E+02  0.00000000000E+00 0.  1.
         11    1    1    2    0    0  0.38326353854E+02 -0.22383334809E+00 -0.83986781173E+02  0.92318681277E+02  0.00000000000E+00 0. -1.
</event>
<event>
 7    1  0.2522928E-009  0.1199774E+03  0.7561462E-02  0.1243134E+00
          1   -1    0    0  501    0  0.00000000000E+00  0.00000000000E+00  0.14515648292E+03  0.14515648292E+03  0.00000000000E+00 0. -1.
         -1   -1    0    0    0  501 -0.00000000000E+00 -0.00000000000E+00 -0.10805202308E+03  0.10805202308E+03  0.00000000000E+00 0.  1.
         25    2    1    2    0    0  0.17629669569E+02 -0.58313999120E+02  0.13775605587E+02  0.13982046988E+03  0.12509463916E+03 0.  0.
          5    1    3    3  502    0 -0.47798087451E+02 -0.17459411586E+01  0.22050624019E+02  0.52833776073E+02  0.41800000000E+01 0.  1.
         -5    1    3    3    0  502  0.65427757020E+02 -0.56568057961E+02 -0.82750184323E+01  0.86986693812E+02  0.41800000000E+01 0.  1.
        -11    1    1    2    0    0 -0.33214911185E+02 -0.10467505229E+02 -0.87535081328E+01  0.35908535133E+02  0.00000000000E+00 0.  1.
         11    1    1    2    0    0  0.15585241616E+02  0.68781504349E+02  0.32082362388E+02  0.77479500987E+02  0.00000000000E+00 0. -1.
</event>
<event>
 7    1  0.2522928E-009  0.7440892E+02  0.7561462E-02  0.1345711E+00
         -2   -1    0    0    0  501 -0.00000000000E+00  0.00000000000E+00  0.45011299712E+02  0.45011299712E+02  0.00000000000E+00 0.  1.
          2   -1    0    0  501    0  0.00000000000E+00 -0.00000000000E+00 -0.27503448461E+03  0.27503448461E+03  0.00000000000E+00 0. -1.
         25    2    1    2    0    0 -0.80808728894E+01  0.53605597342E+01 -0.17156442615E+03  0.21254644275E+03  0.12509037492E+03 0.  0.
          5    1    3    3  502    0 -0.91610362876E+01 -0.53960095647E+02 -0.39256582518E+02  0.67484577342E+02  0.41800000000E+01 0.  1.
         -5    1    3    3    0  502  0.10801633983E+01  0.59320655381E+02 -0.13230784363E+03  0.14506186541E+03  0.41800000000E+01 0.  1.
        -11    1    1    2    0    0  0.20509376673E+02  0.90667273567E+00  0.19495989295E+02  0.28311661653E+02  0.00000000000E+00 0.  1.
         11    1    1    2    0    0 -0.12428503784E+02 -0.62672324699E+01 -0.77954748042E+02  0.79187679922E+02  0.00000000000E+00 0. -1.
</event>
<event>
 7    1  0.2522928E-009  0.1238772E+03  0.7561462E-02  0.1236834E+00
         -2   -1    0    0    0  501 -0.00000000000E+00  0.00000000000E+00  0.31103114698E+02  0.31103114698E+02  0.00000000000E+00 0.  1.
          2   -1    0    0  501    0  0.00000000000E+00 -0.00000000000E+00 -0.56179757459E+03  0.56179757459E+03  0.00000000000E+00 0. -1.
         25    2    1    2    0    0  0.70328514466E+02 -0.42205266335E+01 -0.35770635981E+03  0.38544126419E+03  0.12508883042E+03 0.  0.
          5    1    3    3  502    0 -0.27626965789E+02  0.24794467567E+02 -0.14034914474E+03  0.14523556620E+03  0.41800000000E+01 0. -1.
         -5    1    3    3    0  502  0.97955480255E+02 -0.29014994201E+02 -0.21735721507E+03  0.24020569798E+03  0.41800000000E+01 0. -1.
        -11    1    1    2    0    0 -0.84975698217E+02  0.19287603691E+02 -0.10581058209E+03  0.13707209864E+03  0.00000000000E+00 0.  1.
         11    1    1    2    0    0  0.14647183751E+02 -0.15067077058E+02 -0.67177517989E+02  0.70387326459E+02  0.00000000000E+00 0. -1.
</event>
<event>
 7    1  0.2522928E-009  0.1039880E+03  0.7561462E-02  0.1272126E+00
          2   -1    0    0  501    0  0.00000000000E+00  0.00000000000E+00  0.13326138274E+04  0.13326138274E+04  0.00000000000E+00 0. -1.
         -2   -1    0    0    0  501 -0.00000000000E+00 -0.00000000000E+00 -0.11622767948E+02  0.11622767948E+02  0.00000000000E+00 0.  1.
         25    2    1    2    0    0 -0.35947522504E+02  0.81521360545E+01  0.97645206496E+03  0.98512139049E+03  0.12508731809E+03 0.  0.
          5    1    3    3  502    0  0.80786187650E+01  0.52130151693E+02  0.68654744211E+03  0.68858382167E+03  0.41800000000E+01 0.  1.
         -5    1    3    3    0  502 -0.44026141269E+02 -0.43978015639E+02  0.28990462284E+03  0.29653756882E+03  0.41800000000E+01 0.  1.
        -11    1    1    2    0    0 -0.21977784159E+02 -0.24092666790E+02  0.59869252353E+02  0.68174826490E+02  0.00000000000E+00 0.  1.
         11    1    1    2    0    0  0.57925306664E+02  0.15940530735E+02  0.28466974209E+03  0.29094037832E+03  0.00000000000E+00 0. -1.
</event>
<event>
 7    1  0.2522928E-009  0.2150126E+03  0.7561462E-02  0.1137657E+00
         -2   -1    0    0    0  501 -0.00000000000E+00  0.00000000000E+00  0.43023908577E+03  0.43023908577E+03  0.00000000000E+00 0.  1.
          2   -1    0    0  501    0  0.00000000000E+00 -0.00000000000E+00 -0.13069511581E+03  0.13069511581E+03  0.00000000000E+00 0. -1.
         25    2    1    2    0    0 -0.90530885016E+02  0.17177380156E+03  0.25160408917E+03  0.34155533919E+03  0.12511335659E+03 0.  0.
          5    1    3    3  502    0  0.30615926810E+02  0.40336410590E+02  0.41021078927E+02  0.65303616363E+02  0.41800000000E+01 0. -1.
         -5    1    3    3    0  502 -0.12114681183E+03  0.13143739097E+03  0.21058301024E+03  0.27625172283E+03  0.41800000000E+01 0. -1.
        -11    1    1    2    0    0  0.30422751651E+02 -0.11036819618E+03  0.65179343369E+02  0.13173848849E+03  0.00000000000E+00 0. -1.
         11    1    1    2    0    0  0.60108133366E+02 -0.61405605379E+02 -0.17239462576E+02  0.87640373907E+02  0.00000000000E+00 0.  1.
</event>
<event>
 7    1  0.2666675E-009  0.1315554E+03  0.7561462E-02  0.1225166E+00
          2   -1    0    0  501    0  0.00000000000E+00  0.00000000000E+00  0.10654651508E+04  0.10654651508E+04  0.00000000000E+00 0. -1.
         -2   -1    0    0    0  501 -0.00000000000E+00 -0.00000000000E+00 -0.20798536614E+02  0.20798536614E+02  0.00000000000E+00 0.  1.
         25    2    1    2    0    0  0.74956296155E+02 -0.68565110718E+02  0.54767902363E+03  0.57089329329E+03  0.12508884306E+03 0.  0.
          5    1    3    3  502    0 -0.11427285081E+02  0.58435077261E+01  0.27471003568E+03  0.27504146147E+03  0.41800000000E+01 0.  1.
         -5    1    3    3    0  502  0.86383581236E+02 -0.74408618444E+02  0.27296898796E+03  0.29585183182E+03  0.41800000000E+01 0.  1.
        -11    1    1    2    0    0  0.15446642586E+02  0.36446803936E+02  0.17334486663E+03  0.17780723009E+03  0.00000000000E+00 0. -1.
         11    1    1    2    0    0 -0.90402938742E+02  0.32118306781E+02  0.32364272389E+03  0.33756316401E+03  0.00000000000E+00 0.  1.
</event>
<event>
 7    1  0.2522928E-009  0.1441875E+03  0.7561462E-02  0.1207803E+00
         -1   -1    0    0    0  501 -0.00000000000E+00  0.00000000000E+00  0.18421682245E+03  0.18421682245E+03  0.00000000000E+00 0.  1.
          1   -1    0    0  501    0  0.00000000000E+00 -0.00000000000E+00 -0.14785468645E+03  0.14785468645E+03  0.00000000000E+00 0. -1.
         25    2    1    2    0    0  0.76514558159E+02  0.67221818934E+02 -0.51927516410E+02  0.16945884557E+03  0.12508630152E+03 0.  0.
          5    1    3    3  502    0  0.10297853437E+03  0.73811691194E+02 -0.60639721031E+02  0.14052541572E+03  0.41800000000E+01 0.  1.
         -5    1    3    3    0  502 -0.26463976208E+02 -0.65898722592E+01  0.87122046209E+01  0.28933429843E+02  0.41800000000E+01 0.  1.
        -11    1    1    2    0    0 -0.51757618823E+02 -0.87735524325E+02  0.79685960357E+02  0.12932990997E+03  0.00000000000E+00 0.  1.
         11    1    1    2    0    0 -0.24756939336E+02  0.20513705391E+02  0.86036920517E+01  0.33282753358E+02  0.00000000000E+00 0. -1.
</event>
<event>
 7    1  0.2522928E-009  0.9318644E+02  0.7561462E-02  0.1295314E+00
          1   -1    0    0  501    0  0.00000000000E+00  0.00000000000E+00  0.29443117497E+03  0.29443117497E+03  0.00000000000E+00 0. -1.
         -1   -1    0    0    0  501 -0.00000000000E+00 -0.00000000000E+00 -0.82021261185E+02  0.82021261185E+02  0.00000000000E+00 0.  1.
         25    2    1    2    0    0  0.24808642718E+02 -0.28629236427E+01 -0.15687357179E+02  0.12851992229E+03  0.12509041596E+03 0.  0.
          5    1    3    3  502    0 -0.17273258618E+02  0.44360417005E+02  0.24258769915E+02  0.53592652275E+02  0.41800000000E+01 0.  1.
         -5    1    3    3    0  502  0.42081901336E+02 -0.47223340647E+02 -0.39946127094E+02  0.74927270014E+02  0.41800000000E+01 0.  1.
        -11    1    1    2    0    0 -0.16768989836E+02 -0.33762028159E+02  0.19274901223E+03  0.19640075173E+03  0.00000000000E+00 0. -1.
         11    1    1    2    0    0 -0.80396528823E+01  0.36624951802E+02  0.35348258733E+02  0.51531762131E+02  0.00000000000E+00 0.  1.
</event>
<event>
 7    1  0.2522928E-009  0.2080226E+03  0.7561462E-02  0.1143142E+00
          2   -1    0    0  501    0  0.00000000000E+00  0.00000000000E+00  0.65568306168E+03  0.65568306168E+03  0.00000000000E+00 0. -1.
         -2   -1    0    0    0  501 -0.00000000000E+00 -0.00000000000E+00 -0.69348664152E+02  0.69348664152E+02  0.00000000000E+00 0.  1.
         25    2    1    2    0    0  0.18107911388E+03  0.18232256260E+02  0.27581148324E+03  0.35332963521E+03  0.12509115148E+03 0.  0.
          5    1    3    3  502    0  0.14704800996E+03 -0.38931635778E+02  0.21274114983E+03  0.26156272427E+03  0.41800000000E+01 0.  1.
         -5    1    3    3    0  502  0.34031103924E+02  0.57163892038E+02  0.63070333406E+02  0.91766910938E+02  0.41800000000E+01 0.  1.
        -11    1    1    2    0    0 -0.22111490442E+02  0.24101058179E+02  0.95638126828E+02  0.10107635885E+03  0.00000000000E+00 0. -1.
         11    1    1    2    0    0 -0.15896762344E+03 -0.42333314439E+02  0.21488478747E+03  0.27062573177E+03  0.00000000000E+00 0.  1.
</event>
<event>
 7    1  0.2522928E-009  0.1885113E+03  0.7561462E-02  0.1159811E+00
          3   -1    0    0  501    0  0.00000000000E+00  0.00000000000E+00  0.23872203625E+02  0.23872203625E+02  0.00000000000E+00 0. -1.
         -3   -1    0    0    0  501 -0.00000000000E+00 -0.00000000000E+00 -0.17192009146E+04  0.17192009146E+04  0.00000000000E+00 0.  1.
         25    2    1    2    0    0 -0.15796504130E+03  0.41905759885E+02 -0.11013344391E+04  0.11204022959E+04  0.12511878729E+03 0.  0.
          5    1    3    3  502    0 -0.20806881821E+02  0.51533001309E+02 -0.52171039480E+03  0.52467874456E+03  0.41800000000E+01 0.  1.
         -5    1    3    3    0  502 -0.13715815948E+03 -0.96272414237E+01 -0.57962404427E+03  0.59572355131E+03  0.41800000000E+01 0.  1.
        -11    1    1    2    0    0  0.14598260663E+03 -0.63374362567E+02 -0.46854437724E+03  0.49483438109E+03  0.00000000000E+00 0. -1.
         11    1    1    2    0    0  0.11982434679E+02  0.21468602682E+02 -0.12544989462E+03  0.12783644122E+03  0.00000000000E+00 0.  1.
</event>
<event>
 7    1  0.2522928E-009  0.8524206E+02  0.7561462E-02  0.1314801E+00
         -2   -1    0    0    0  501 -0.00000000000E+00  0.00000000000E+00  0.36626713750E+02  0.36626713750E+02  0.00000000000E+00 0.  1.
          2   -1    0    0  501    0  0.00000000000E+00 -0.00000000000E+00 -0.44409248205E+03  0.44409248205E+03  0.00000000000E+00 0. -1.
         25    2    1    2    0    0 -0.45114964120E+02 -0.41549361698E+02 -0.28004589956E+03  0.31278642575E+03  0.12509169767E+03 0.  0.
          5    1    3    3  502    0 -0.60972624613E+02 -0.19071750454E+02 -0.27756387363E+03  0.28485183686E+03  0.41800000000E+01 0. -1.
         -5    1    3    3    0  502  0.15857660493E+02 -0.22477611244E+02 -0.24820259283E+01  0.27934588887E+02  0.41800000000E+01 0. -1.
        -11    1    1    2    0    0  0.33442421490E+02  0.52751792512E+02 -0.30202143203E+02  0.69378070184E+02  0.00000000000E+00 0.  1.
         11    1    1    2    0    0  0.11672542630E+02 -0.11202430815E+02 -0.97217725539E+02  0.98554699870E+02  0.00000000000E+00 0. -1.
</event>
<event>
 7    1  0.2522928E-009  0.9080942E+02  0.7561462E-02  0.1300903E+00
          2   -1    0    0  501    0  0.00000000000E+00  0.00000000000E+00  0.36974691002E+03  0.36974691002E+03  0.00000000000E+00 0. -1.
         -2   -1    0    0    0  501 -0.00000000000E+00 -0.00000000000E+00 -0.52926644348E+02  0.52926644348E+02  0.00000000000E+00 0.  1.
         25    2    1    2    0    0  0.85992713625E+01 -0.59436742865E+02  0.26955158352E+03  0.30317041169E+03  0.12509024133E+03 0.  0.
          5    1    3    3  502    0  0.17218299404E+02 -0.82893761778E+02  0.97213855311E+02  0.12898004357E+03  0.41800000000E+01 0. -1.
         -5    1    3    3    0  502 -0.86190280410E+01  0.23457018913E+02  0.17233772821E+03  0.17419036811E+03  0.41800000000E+01 0. -1.
        -11    1    1    2    0    0  0.13404006816E+02  0.39895683562E+02  0.70434657298E+02  0.82051044566E+02  0.00000000000E+00 0. -1.
         11    1    1    2    0    0 -0.22003278178E+02  0.19541059303E+02 -0.23165975139E+02  0.37452098117E+02  0.00000000000E+00 0.  1.
</event>
<event>
 7    1  0.2522928E-009  0.1095937E+03  0.7561462E-02  0.1261324E+00
          1   -1    0    0  501    0  0.00000000000E+00  0.00000000000E+00  0.34194941887E+03  0.34194941887E+03  0.00000000000E+00 0. -1.
         -1   -1    0    0    0  501 -0.00000000000E+00 -0.00000000000E+00 -0.48338893543E+02  0.48338893543E+02  0.00000000000E+00 0.  1.
         25    2    1    2    0    0 -0.35792448994E+02 -0.54954180764E+02  0.18405581561E+03  0.23200192866E+03  0.12508912924E+03 0.  0.
          5    1    3    3  502    0 -0.54294336165E+02  0.80238535848E+01  0.14595888666E+03  0.15599271189E+03  0.41800000000E+01 0. -1.
         -5    1    3    3    0  502  0.18501887172E+02 -0.62978034349E+02  0.38096928951E+02  0.76009216776E+02  0.41800000000E+01 0. -1.
        -11    1    1    2    0    0 -0.64308972452E+01  0.55771083090E+02  0.20572751394E+02  0.59791372691E+02  0.00000000000E+00 0.  1.
         11    1    1    2    0    0  0.42223346239E+02 -0.81690232584E+00  0.88981958318E+02  0.98495011057E+02  0.00000000000E+00 0. -1.
</event>
<event>
 7    1  0.2522928E-009  0.9503721E+02  0.7561462E-02  0.1291092E+00
         -2   -1    0    0    0  501 -0.00000000000E+00  0.00000000000E+00  0.13716829899E+02  0.13716829899E+02  0.00000000000E+00 0.  1.
          2   -1    0    0  501    0  0.00000000000E+00 -0.00000000000E+00 -0.11844933060E+04  0.11844933060E+04  0.00000000000E+00 0. -1.
         25    2    1    2    0    0 -0.60394927640E+02  0.89474880980E+01 -0.80920362793E+03  0.82108791187E+03  0.12508893932E+03 0.  0.
          5    1    3    3  502    0 -0.20278654823E+02 -0.25491117050E+02 -0.48706163061E+02  0.58743370775E+02  0.41800000000E+01 0. -1.
         -5    1    3    3    0  502 -0.40116272817E+02  0.34438605148E+02 -0.76049746487E+03  0.76234454110E+03  0.41800000000E+01 0. -1.
        -11    1    1    2    0    0 -0.14942229199E+02  0.18710183487E+02 -0.12598328439E+03  0.12823856333E+03  0.00000000000E+00 0.  1.
         11    1    1    2    0    0  0.75337156840E+02 -0.27657671585E+02 -0.23558956376E+03  0.24888366067E+03  0.00000000000E+00 0. -1.
</event>
<event>
 7    1  0.2522928E-009  0.1667229E+03  0.7561462E-02  0.1181309E+00
         -1   -1    0    0    0  501 -0.00000000000E+00  0.00000000000E+00  0.92402893298E+02  0.92402893298E+02  0.00000000000E+00 0.  1.
          1   -1    0    0  501    0  0.00000000000E+00 -0.00000000000E+00 -0.38451057455E+03  0.38451057455E+03  0.00000000000E+00 0. -1.
         25    2    1    2    0    0  0.11360988394E+03  0.76000284354E+02 -0.57757438943E+02  0.19409703696E+03  0.12511790060E+03 0.  0.
          5    1    3    3  502    0  0.19492259680E+02 -0.28864691364E+02  0.11655200641E+02  0.36965317488E+02  0.41800000000E+01 0. -1.
         -5    1    3    3    0  502  0.94117624265E+02  0.10486497572E+03 -0.69412639584E+02  0.15713171947E+03  0.41800000000E+01 0. -1.
        -11    1    1    2    0    0 -0.12172780074E+03 -0.52559079990E+02 -0.18531711210E+03  0.22786519348E+03  0.00000000000E+00 0.  1.
         11    1    1    2    0    0  0.81179167919E+01 -0.23441204364E+02 -0.49033130205E+02  0.54951237409E+02  0.00000000000E+00 0. -1.
</event>
<event>
 7    1  0.2522928E-009  0.7364625E+02  0.7561462E-02  0.1348115E+00
          1   -1    0    0  501    0  0.00000000000E+00  0.00000000000E+00  0.27161246476E+03  0.27161246476E+03  0.00000000000E+00 0. -1.
         -1   -1    0    0    0  501 -0.00000000000E+00 -0.00000000000E+00 -0.69395935147E+02  0.69395935147E+02  0.00000000000E+00 0.  1.
         25    2    1    2    0    0 -0.40756612680E+02 -0.78266755807E+01  0.20447733621E+03  0.24327083636E+03  0.12508940992E+03 0.  0.
          5    1    3    3  502    0 -0.29940846234E+02  0.67902909545E+01 -0.63425697586E+01  0.31626933389E+02  0.41800000000E+01 0. -1.
         -5    1    3    3    0  502 -0.10815766446E+02 -0.14616966535E+02  0.21081990597E+03  0.21164390298E+03  0.41800000000E+01 0. -1.
        -11    1    1    2    0    0  0.68012117518E+02  0.14609577336E+02 -0.46374489112E-01  0.69563568266E+02  0.00000000000E+00 0.  1.
         11    1    1    2    0    0 -0.27255504838E+02 -0.67829017553E+01 -0.22144321086E+01  0.28173995275E+02  0.00000000000E+00 0. -1.
</event>
<event>
 7    1  0.2522928E-009  0.8415144E+02  0.7561462E-02  0.1317667E+00
         -1   -1    0    0    0  501 -0.00000000000E+00  0.00000000000E+00  0.24194872548E+02  0.24194872548E+02  0.00000000000E+00 0.  1.
          1   -1    0    0  501    0  0.00000000000E+00 -0.00000000000E+00 -0.65593552664E+03  0.65593552664E+03  0.00000000000E+00 0. -1.
         25    2    1    2    0    0  0.56455728277E+02  0.35600188719E+01 -0.44086364677E+03  0.46174497820E+03  0.12509095432E+03 0.  0.
          5    1    3    3  502    0  0.53830155459E+02  0.13791093046E+02 -0.64617761835E+02  0.85327647505E+02  0.41800000000E+01 0.  1.
         -5    1    3    3    0  502  0.26255728185E+01 -0.10231074174E+02 -0.37624588494E+03  0.37641733069E+03  0.41800000000E+01 0.  1.
        -11    1    1    2    0    0 -0.35129590712E+02  0.39685063650E+02 -0.13226530698E+03  0.14248896046E+03  0.00000000000E+00 0.  1.
         11    1    1    2    0    0 -0.21326137565E+02 -0.43245082522E+02 -0.58611700334E+02  0.75896460535E+02  0.00000000000E+00 0. -1.
</event>
<event>
 7    1  0.2522928E-009  0.8393125E+02  0.7561462E-02  0.1318251E+00
         -1   -1    0    0    0  501 -0.00000000000E+00  0.00000000000E+00  0.37791622804E+03  0.37791622804E+03  0.00000000000E+00 0.  1.
          1   -1    0    0  501    0  0.00000000000E+00 -0.00000000000E+00 -0.70892502824E+02  0.70892502824E+02  0.00000000000E+00 0. -1.
         25    2    1    2    0    0 -0.22195276270E+02  0.53944530030E+02  0.31115268494E+03  0.34039083982E+03  0.12508911975E+03 0.  0.
          5    1    3    3  502    0 -0.24475510815E+02  0.41561909791E+02  0.26045756302E+02  0.54975419930E+02  0.41800000000E+01 0.  1.
         -5    1    3    3    0  502  0.22802345451E+01  0.12382620239E+02  0.28510692864E+03  0.28541541989E+03  0.41800000000E+01 0.  1.
        -11    1    1    2    0    0 -0.15892797373E+02 -0.64684757582E+02 -0.12992890510E+02  0.67863937961E+02  0.00000000000E+00 0. -1.
         11    1    1    2    0    0  0.38088073643E+02  0.10740227552E+02  0.88639307856E+01  0.40553953083E+02  0.00000000000E+00 0.  1.
</event>
<event>
 7    1  0.2522928E-009  0.1237179E+03  0.7561462E-02  0.1237087E+00
         -2   -1    0    0    0  501 -0.00000000000E+00  0.00000000000E+00  0.45735061486E+02  0.45735061486E+02  0.00000000000E+00 0.  1.
          2   -1    0    0  501    0  0.00000000000E+00 -0.00000000000E+00 -0.51621858551E+03  0.51621858551E+03  0.00000000000E+00 0. -1.
         25    2    1    2    0    0  0.94986771819E+02 -0.21401872818E+02 -0.33885872329E+03  0.37410211961E+03  0.12508650832E+03 0.  0.
          5    1    3    3  502    0  0.11536828800E+03 -0.27474043184E+02 -0.19243241785E+03  0.22608045640E+03  0.41800000000E+01 0.  1.
         -5    1    3    3    0  502 -0.20381516179E+02  0.60721703663E+01 -0.14642630544E+03  0.14802166321E+03  0.41800000000E+01 0.  1.
        -11    1    1    2    0    0 -0.44865761397E+02 -0.12511325895E+02 -0.41752994891E+01  0.46764334137E+02  0.00000000000E+00 0.  1.
         11    1    1    2    0    0 -0.50121010422E+02  0.33913198713E+02 -0.12744950125E+03  0.14108719326E+03  0.00000000000E+00 0. -1.
</event>
<event>
 7    1  0.2522928E-009  0.1276105E+03  0.7561462E-02  0.1231045E+00
         -2   -1    0    0    0  501 -0.00000000000E+00  0.00000000000E+00  0.27819006550E+02  0.27819006550E+02  0.00000000000E+00 0.  1.
          2   -1    0    0  501    0  0.00000000000E+00 -0.00000000000E+00 -0.71645430979E+03  0.71645430979E+03  0.00000000000E+00 0. -1.
         25    2    1    2    0    0 -0.77092365343E+02 -0.26947401231E+02 -0.48175427856E+03  0.50438078783E+03  0.12507357430E+03 0.  0.
          5    1    3    3  502    0 -0.10216509826E+03 -0.69981994234E+01 -0.24709367097E+03  0.26750595644E+03  0.41800000000E+01 0.  1.
         -5    1    3    3    0  502  0.25072732916E+02 -0.19949201808E+02 -0.23466060759E+03  0.23687483138E+03  0.41800000000E+01 0.  1.
        -11    1    1    2    0    0 -0.11393716391E+02 -0.17898584278E+02 -0.49500045629E+02  0.53855646033E+02  0.00000000000E+00 0. -1.
         11    1    1    2    0    0  0.88486081734E+02  0.44845985509E+02 -0.15738097904E+03  0.18603688247E+03  0.00000000000E+00 0.  1.
</event>
<event>
 7    1  0.2522928E-009  0.9724629E+02  0.7561462E-02  0.1286196E+00
         -2   -1    0    0    0  501 -0.00000000000E+00  0.00000000000E+00  0.25866818862E+03  0.25866818862E+03  0.00000000000E+00 0.  1.
          2   -1    0    0  501    0  0.00000000000E+00 -0.00000000000E+00 -0.80340823576E+02  0.80340823576E+02  0.00000000000E+00 0. -1.
         25    2    1    2    0    0 -0.65620407698E+02  0.67123380234E+02  0.89380113181E+02  0.18013184791E+03  0.12508833647E+03 0.  0.
          5    1    3    3  502    0 -0.62308208015E+02  0.52076066219E+02  0.12037640268E+03  0.14526589477E+03  0.41800000000E+01 0.  1.
         -5    1    3    3    0  502 -0.33121996829E+01  0.15047314016E+02 -0.30996289504E+02  0.34865953147E+02  0.41800000000E+01 0.  1.
        -11    1    1    2    0    0  0.22338427096E+02 -0.75509674651E+01 -0.17555290668E+02  0.29397460183E+02  0.00000000000E+00 0. -1.
         11    1    1    2    0    0  0.43281980602E+02 -0.59572412769E+02  0.10650254253E+03  0.12947970410E+03  0.00000000000E+00 0.  1.
</event>
<event>
 7    1  0.2522928E-009  0.8871015E+02  0.7561462E-02  0.1306006E+00
          1   -1    0    0  501    0  0.00000000000E+00  0.00000000000E+00  0.29825973137E+03  0.29825973137E+03  0.00000000000E+00 0. -1.
         -1   -1    0    0    0  501 -0.00000000000E+00 -0.00000000000E+00 -0.43971944761E+02  0.43971944761E+02  0.00000000000E+00 0.  1.
         25    2    1    2    0    0  0.18846289325E+02 -0.19460736398E+02  0.17993000091E+03  0.22080869635E+03  0.12509105593E+03 0.  0.
          5    1    3    3  502    0  0.31443284803E-01  0.29933175852E+02 -0.29788208422E+01  0.30370080324E+02  0.41800000000E+01 0. -1.
         -5    1    3    3    0  502  0.18814846040E+02 -0.49393912250E+02  0.18290882175E+03  0.19043861602E+03  0.41800000000E+01 0. -1.
        -11    1    1    2    0    0 -0.20215720402E+02  0.55006411428E+02  0.57341631324E+02  0.81990507575E+02  0.00000000000E+00 0. -1.
         11    1    1    2    0    0  0.13694310765E+01 -0.35545675030E+02  0.17016154380E+02  0.39432472211E+02  0.00000000000E+00 0.  1.
</event>
<event>
 7    1  0.2522928E-009  0.1269169E+03  0.7561462E-02  0.1232103E+00
         -1   -1    0    0    0  501 -0.00000000000E+00  0.00000000000E+00  0.72425214119E+03  0.72425214119E+03  0.00000000000E+00 0.  1.
          1   -1    0    0  501    0  0.00000000000E+00 -0.00000000000E+00 -0.27992776484E+02  0.27992776484E+02  0.00000000000E+00 0. -1.
         25    2    1    2    0    0  0.57528030617E+01  0.86308382242E+02  0.29720874476E+03  0.33383910378E+03  0.12503310625E+03 0.  0.
          5    1    3    3  502    0 -0.44332180189E+02  0.50387859603E+02  0.64891602026E+02  0.93448761411E+02  0.41800000000E+01 0. -1.
         -5    1    3    3    0  502  0.50084983251E+02  0.35920522639E+02  0.23231714274E+03  0.24039034237E+03  0.41800000000E+01 0. -1.
        -11    1    1    2    0    0 -0.47242297576E+02 -0.56917368962E+02  0.21041216479E+03  0.22303520050E+03  0.00000000000E+00 0. -1.
         11    1    1    2    0    0  0.41489494514E+02 -0.29391013280E+02  0.18863845516E+03  0.19537061340E+03  0.00000000000E+00 0.  1.
</event>
<event>
 7    1  0.2522928E-009  0.1037533E+03  0.7561462E-02  0.1272596E+00
         -1   -1    0    0    0  501 -0.00000000000E+00  0.00000000000E+00  0.18831811008E+02  0.18831811008E+02  0.00000000000E+00 0.  1.
          1   -1    0    0  501    0  0.00000000000E+00 -0.00000000000E+00 -0.76133574218E+03  0.76133574218E+03  0.00000000000E+00 0. -1.
         25    2    1    2    0    0 -0.38484619567E+02 -0.43015889561E+01 -0.53296153271E+03  0.54881209370E+03  0.12508856553E+03 0.  0.
          5    1    3    3  502    0 -0.25906626283E+02 -0.61606294897E+02 -0.35856652800E+03  0.36476556342E+03  0.41800000000E+01 0.  1.
         -5    1    3    3    0  502 -0.12577993284E+02  0.57304705941E+02 -0.17439500471E+03  0.18404653027E+03  0.41800000000E+01 0.  1.
        -11    1    1    2    0    0  0.60031889316E+02  0.42064900654E+01 -0.80398392144E+02  0.10042621049E+03  0.00000000000E+00 0.  1.
         11    1    1    2    0    0 -0.21547269748E+02  0.95098890615E-01 -0.12914400632E+03  0.13092924901E+03  0.00000000000E+00 0. -1.
</event>
<event>
 7    1  0.2522928E-009  0.1457370E+03  0.7561462E-02  0.1205811E+00
         -2   -1    0    0    0  501 -0.00000000000E+00  0.00000000000E+00  0.10508989060E+03  0.10508989060E+03  0.00000000000E+00 0.  1.
          2   -1    0    0  501    0  0.00000000000E+00 -0.00000000000E+00 -0.23937315841E+03  0.23937315841E+03  0.00000000000E+00 0. -1.
         25    2    1    2    0    0 -0.25147015213E+02 -0.10866653007E+03 -0.10704685712E+03  0.19886312615E+03  0.12508687457E+03 0.  0.
          5    1    3    3  502    0 -0.46979547665E+02 -0.11895522957E+03 -0.11606617844E+03  0.17276068626E+03  0.41800000000E+01 0.  1.
         -5    1    3    3    0  502  0.21832532452E+02  0.10288699503E+02  0.90193213207E+01  0.26102439882E+02  0.41800000000E+01 0.  1.
        -11    1    1    2    0    0  0.14825213374E+02 -0.11277823976E+02  0.78346499312E+01  0.20207869872E+02  0.00000000000E+00 0.  1.
         11    1    1    2    0    0  0.10321801839E+02  0.11994435404E+03 -0.35071060624E+02  0.12539205299E+03  0.00000000000E+00 0. -1.
</event>
<event>
 7    1  0.2658206E-009  0.1130521E+03  0.7561462E-02  0.1255020E+00
         -2   -1    0    0    0  501 -0.00000000000E+00  0.00000000000E+00  0.14664654940E+02  0.14664654940E+02  0.00000000000E+00 0. -1.
          2   -1    0    0  501    0  0.00000000000E+00 -0.00000000000E+00 -0.11683080771E+04  0.11683080771E+04  0.00000000000E+00 0.  1.
         25    2    1    2    0    0 -0.53491568931E+02 -0.28361627198E+02 -0.81791938678E+03  0.82964102670E+03  0.12508549109E+03 0.  0.
          5    1    3    3  502    0 -0.65568717621E+02 -0.57541261217E+02 -0.35345044272E+03  0.36408095437E+03  0.41800000000E+01 0.  1.
         -5    1    3    3    0  502  0.12077148690E+02  0.29179634019E+02 -0.46446894405E+03  0.46556007233E+03  0.41800000000E+01 0.  1.
        -11    1    1    2    0    0 -0.48639667577E+01  0.45759990845E+02 -0.18798022360E+03  0.19353087453E+03  0.00000000000E+00 0.  1.
         11    1    1    2    0    0  0.58355535689E+02 -0.17398363647E+02 -0.14774381177E+03  0.15980083078E+03  0.00000000000E+00 0. -1.
</event>
<event>
 7    1  0.2522928E-009  0.1157209E+03  0.7561462E-02  0.1250328E+00
          1   -1    0    0  501    0  0.00000000000E+00  0.00000000000E+00  0.81779955514E+02  0.81779955514E+02  0.00000000000E+00 0. -1.
         -1   -1    0    0    0  501 -0.00000000000E+00 -0.00000000000E+00 -0.20198181664E+03  0.20198181664E+03  0.00000000000E+00 0.  1.
         25    2    1    2    0    0  0.60819522341E+02  0.19667894181E+02 -0.39353606984E+02  0.14588421118E+03  0.12509059249E+03 0.  0.
          5    1    3    3  502    0 -0.27058339186E+02 -0.66531867974E+01  0.21739981505E+02  0.35588169521E+02  0.41800000000E+01 0. -1.
         -5    1    3    3    0  502  0.87877861527E+02  0.26321080978E+02 -0.61093588489E+02  0.11029604166E+03  0.41800000000E+01 0. -1.
        -11    1    1    2    0    0 -0.29522003389E+02  0.36616134317E+02 -0.29593601191E+02  0.55570416661E+02  0.00000000000E+00 0.  1.
         11    1    1    2    0    0 -0.31297518952E+02 -0.56284028497E+02 -0.51254652950E+02  0.82307144316E+02  0.00000000000E+00 0. -1.
</event>
<event>
 7    1  0.2522928E-009  0.1066968E+03  0.7561462E-02  0.1266812E+00
         -2   -1    0    0    0  501 -0.00000000000E+00  0.00000000000E+00  0.56752972213E+02  0.56752972213E+02  0.00000000000E+00 0. -1.
          2   -1    0    0  501    0  0.00000000000E+00 -0.00000000000E+00 -0.38025453706E+03  0.38025453706E+03  0.00000000000E+00 0.  1.
         25    2    1    2    0    0  0.89868059585E+02  0.37661907818E+02 -0.19344592525E+03  0.25012492527E+03  0.12508582978E+03 0.  0.
          5    1    3    3  502    0  0.62532691208E+02  0.54087336782E+02 -0.20074409618E+03  0.21714382796E+03  0.41800000000E+01 0.  1.
         -5    1    3    3    0  502  0.27335368376E+02 -0.16425428965E+02  0.72981709282E+01  0.32981097311E+02  0.41800000000E+01 0.  1.
        -11    1    1    2    0    0 -0.67718891488E+02 -0.34723772265E+02 -0.14232380563E+03  0.16139285695E+03  0.00000000000E+00 0.  1.
         11    1    1    2    0    0 -0.22149168096E+02 -0.29381355527E+01  0.12268166029E+02  0.25489727060E+02  0.00000000000E+00 0. -1.
</event>
<event>
 7    1  0.2588473E-009  0.1953240E+03  0.7561462E-02  0.1153745E+00
         -2   -1    0    0    0  501 -0.00000000000E+00  0.00000000000E+00  0.11438016705E+03  0.11438016705E+03  0.00000000000E+00 0.  1.
          2   -1    0    0  501    0  0.00000000000E+00 -0.00000000000E+00 -0.43626480346E+03  0.43626480346E+03  0.00000000000E+00 0. -1.
         25    2    1    2    0    0  0.19457788400E+03 -0.61872267686E+01 -0.15482119252E+03  0.27841650479E+03  0.12508922325E+03 0.  0.
          5    1    3    3  502    0  0.12784825533E+02  0.19647434386E+01 -0.80770808364E+02  0.81906702195E+02  0.41800000000E+01 0. -1.
         -5    1    3    3    0  502  0.18179305846E+03 -0.81519702071E+01 -0.74050384155E+02  0.19650980260E+03  0.41800000000E+01 0. -1.
        -11    1    1    2    0    0 -0.12780164901E+03  0.96445064504E+01 -0.15998168402E+03  0.20498882218E+03  0.00000000000E+00 0. -1.
         11    1    1    2    0    0 -0.66776234985E+02 -0.34572796819E+01 -0.70817598716E+01  0.67239643548E+02  0.00000000000E+00 0.  1.
</event>
<event>
 7    1  0.2522928E-009  0.1032670E+03  0.7561462E-02  0.1273572E+00
         -2   -1    0    0    0  501 -0.00000000000E+00  0.00000000000E+00  0.17809478650E+03  0.17809478650E+03  0.00000000000E+00 0.  1.
          2   -1    0    0  501    0  0.00000000000E+00 -0.00000000000E+00 -0.74391269350E+02  0.74391269350E+02  0.00000000000E+00 0. -1.
         25    2    1    2    0    0  0.83507900116E+01  0.33493087277E+02  0.39236837392E+02  0.13557129235E+03  0.12509405786E+03 0.  0.
          5    1    3    3  502    0  0.44223252806E+02 -0.16968553948E+02 -0.18296851898E+02  0.50949731120E+02  0.41800000000E+01 0.  1.
         -5    1    3    3    0  502 -0.35872462795E+02  0.50461641225E+02  0.57533689291E+02  0.84621561233E+02  0.41800000000E+01 0.  1.
        -11    1    1    2    0    0  0.38724799609E+02  0.72452164037E+00  0.19464629616E+02  0.43347512529E+02  0.00000000000E+00 0.  1.
         11    1    1    2    0    0 -0.47075589620E+02 -0.34217608917E+02  0.45002050143E+02  0.73567250969E+02  0.00000000000E+00 0. -1.
</event>
<event>
 7    1  0.2522928E-009  0.9769425E+02  0.7561462E-02  0.1285221E+00
          2   -1    0    0  501    0  0.00000000000E+00  0.00000000000E+00  0.19499297698E+03  0.19499297698E+03  0.00000000000E+00 0.  1.
         -2   -1    0    0    0  501 -0.00000000000E+00 -0.00000000000E+00 -0.70502208344E+02  0.70502208344E+02  0.00000000000E+00 0. -1.
         25    2    1    2    0    0 -0.36765509325E+02 -0.16271330849E+02  0.90275593941E+02  0.15941498702E+03  0.12508795443E+03 0.  0.
          5    1    3    3  502    0  0.82644038345E+01 -0.59385463728E+02  0.73058784909E+02  0.94604398023E+02  0.41800000000E+01 0. -1.
         -5    1    3    3    0  502 -0.45029913159E+02  0.43114132880E+02  0.17216809032E+02  0.64810588999E+02  0.41800000000E+01 0. -1.
        -11    1    1    2    0    0 -0.16398979269E+02  0.10153743961E+02  0.47220011294E+02  0.51007396563E+02  0.00000000000E+00 0.  1.
         11    1    1    2    0    0  0.53164488593E+02  0.61175868876E+01 -0.13004836598E+02  0.55072801742E+02  0.00000000000E+00 0. -1.
</event>
<event>
 7    1  0.2522928E-009  0.1713502E+03  0.7561462E-02  0.1176447E+00
          1   -1    0    0  501    0  0.00000000000E+00  0.00000000000E+00  0.68035058510E+03  0.68035058510E+03  0.00000000000E+00 0. -1.
         -1   -1    0    0    0  501 -0.00000000000E+00 -0.00000000000E+00 -0.53140625840E+02  0.53140625840E+02  0.00000000000E+00 0.  1.
         25    2    1    2    0    0  0.11786469102E+03  0.95834006079E+02  0.40076595666E+03  0.44647300166E+03  0.12509415287E+03 0.  0.
          5    1    3    3  502    0  0.65871977327E+01  0.47642351213E+02  0.24136179024E+03  0.24614258264E+03  0.41800000000E+01 0. -1.
         -5    1    3    3    0  502  0.11127749329E+03  0.48191654866E+02  0.15940416642E+03  0.20033041902E+03  0.41800000000E+01 0. -1.
        -11    1    1    2    0    0 -0.85492481252E+02 -0.10866517758E+03  0.20068554140E+03  0.24370427098E+03  0.00000000000E+00 0. -1.
         11    1    1    2    0    0 -0.32372209768E+02  0.12831171496E+02  0.25758461198E+02  0.43313938294E+02  0.00000000000E+00 0.  1.
</event>
<event>
 7    1  0.2522928E-009  0.9020391E+02  0.7561462E-02  0.1302359E+00
          1   -1    0    0  501    0  0.00000000000E+00  0.00000000000E+00  0.19799419144E+03  0.19799419144E+03  0.00000000000E+00 0. -1.
         -1   -1    0    0    0  501 -0.00000000000E+00 -0.00000000000E+00 -0.69952294836E+02  0.69952294836E+02  0.00000000000E+00 0.  1.
         25    2    1    2    0    0 -0.29560733915E+01  0.16521377821E+02  0.24732762667E+02  0.12860579812E+03  0.12508416154E+03 0.  0.
          5    1    3    3  502    0  0.52695255326E+02  0.11667643464E+01  0.42739846602E+02  0.67987632408E+02  0.41800000000E+01 0. -1.
         -5    1    3    3    0  502 -0.55651328718E+02  0.15354613474E+02 -0.18007083935E+02  0.60618165716E+02  0.41800000000E+01 0. -1.
        -11    1    1    2    0    0 -0.32215885659E+02 -0.47579418451E+01  0.96221039050E+02  0.10158242789E+03  0.00000000000E+00 0.  1.
         11    1    1    2    0    0  0.35171959050E+02 -0.11763435975E+02  0.70880948908E+01  0.37758260269E+02  0.00000000000E+00 0. -1.
</event>
<event>
 7    1  0.2522928E-009  0.1039632E+03  0.7561462E-02  0.1272176E+00
          1   -1    0    0  501    0  0.00000000000E+00  0.00000000000E+00  0.11068271954E+03  0.11068271954E+03  0.00000000000E+00 0. -1.
         -1   -1    0    0    0  501 -0.00000000000E+00 -0.00000000000E+00 -0.13995675560E+03  0.13995675560E+03  0.00000000000E+00 0.  1.
         25    2    1    2    0    0  0.46115746598E+01  0.52092021494E+02  0.16560258824E+02  0.13658950792E+03  0.12509039203E+03 0.  0.
          5    1    3    3  502    0  0.43483115040E+02  0.49785680192E+02  0.51660831289E+02  0.83998268644E+02  0.41800000000E+01 0. -1.
         -5    1    3    3    0  502 -0.38871540380E+02  0.23063413013E+01 -0.35100572464E+02  0.52591239280E+02  0.41800000000E+01 0. -1.
        -11    1    1    2    0    0  0.28940922374E+02  0.11088385937E+02 -0.24175100993E+02  0.39306040230E+02  0.00000000000E+00 0.  1.
         11    1    1    2    0    0 -0.33552497034E+02 -0.63180407430E+02 -0.21659193889E+02  0.74743926979E+02  0.00000000000E+00 0. -1.
</event>
<event>
 7    1  0.2522928E-009  0.1516219E+03  0.7561462E-02  0.1198494E+00
         -2   -1    0    0    0  501 -0.00000000000E+00  0.00000000000E+00  0.14256992825E+02  0.14256992825E+02  0.00000000000E+00 0. -1.
          2   -1    0    0  501    0  0.00000000000E+00 -0.00000000000E+00 -0.20537548321E+04  0.20537548321E+04  0.00000000000E+00 0.  1.
         25    2    1    2    0    0 -0.10396232507E+03 -0.43644561507E+02 -0.15279157809E+04  0.15371685681E+04  0.12509020848E+03 0.  0.
          5    1    3    3  502    0 -0.10027832109E+03 -0.77768940554E+02 -0.13475559217E+04  0.13535243568E+04  0.41800000000E+01 0.  1.
         -5    1    3    3    0  502 -0.36840039815E+01  0.34124379048E+02 -0.18035985922E+03  0.18364421131E+03  0.41800000000E+01 0.  1.
        -11    1    1    2    0    0  0.43903364925E+02  0.64584046980E+02 -0.28201442003E+03  0.29262730167E+03  0.00000000000E+00 0.  1.
         11    1    1    2    0    0  0.60058960146E+02 -0.20939485473E+02 -0.22956763834E+03  0.23821595522E+03  0.00000000000E+00 0. -1.
</event>
<event>
 7    1  0.2522928E-009  0.2763927E+03  0.7561462E-02  0.1097676E+00
          2   -1    0    0  501    0  0.00000000000E+00  0.00000000000E+00  0.63253557204E+03  0.63253557204E+03  0.00000000000E+00 0. -1.
         -2   -1    0    0    0  501 -0.00000000000E+00 -0.00000000000E+00 -0.12323039660E+03  0.12323039660E+03  0.00000000000E+00 0.  1.
         25    2    1    2    0    0  0.25356001110E+03 -0.38729264434E+02  0.28287460078E+03  0.40181688101E+03  0.12508449520E+03 0.  0.
          5    1    3    3  502    0  0.23110672255E+03  0.52895106052E+01  0.25765358558E+03  0.34618078903E+03  0.41800000000E+01 0. -1.
         -5    1    3    3    0  502  0.22453288552E+02 -0.44018775039E+02  0.25221015203E+02  0.55636091978E+02  0.41800000000E+01 0. -1.
        -11    1    1    2    0    0 -0.13799439114E+03 -0.24659815309E+02  0.11308161270E+03  0.18010555129E+03  0.00000000000E+00 0. -1.
         11    1    1    2    0    0 -0.11556561997E+03  0.63389079743E+02  0.11334896196E+03  0.17384353634E+03  0.00000000000E+00 0.  1.
</event>
<event>
 7    1  0.2522928E-009  0.1073211E+03  0.7561462E-02  0.1265613E+00
          1   -1    0    0  501    0  0.00000000000E+00  0.00000000000E+00  0.31078249471E+03  0.31078249471E+03  0.00000000000E+00 0. -1.
         -1   -1    0    0    0  501 -0.00000000000E+00 -0.00000000000E+00 -0.95213670778E+02  0.95213670778E+02  0.00000000000E+00 0.  1.
         25    2    1    2    0    0 -0.15003940353E+02  0.69371530223E+02  0.24892190615E+03  0.28747830070E+03  0.12507649891E+03 0.  0.
          5    1    3    3  502    0  0.30317881365E+02  0.88975311967E+02  0.16946452140E+03  0.19383363094E+03  0.41800000000E+01 0.  1.
         -5    1    3    3    0  502 -0.45321821718E+02 -0.19603781745E+02  0.79457384752E+02  0.93644669758E+02  0.41800000000E+01 0.  1.
        -11    1    1    2    0    0  0.42048824115E+01 -0.23035197980E+02  0.30773147142E+02  0.38668953530E+02  0.00000000000E+00 0. -1.
         11    1    1    2    0    0  0.10799057941E+02 -0.46336332242E+02 -0.64126229359E+02  0.79848911263E+02  0.00000000000E+00 0.  1.
</event>
<event>
 7    1  0.2522928E-009  0.1630475E+03  0.7561462E-02  0.1185299E+00
         -1   -1    0    0    0  501 -0.00000000000E+00  0.00000000000E+00  0.34228115653E+02  0.34228115653E+02  0.00000000000E+00 0.  1.
          1   -1    0    0  501    0  0.00000000000E+00 -0.00000000000E+00 -0.10016581188E+04  0.10016581188E+04  0.00000000000E+00 0. -1.
         25    2    1    2    0    0 -0.12794661810E+03 -0.54947125476E+02 -0.66057117012E+03  0.68657926597E+03  0.12508914413E+03 0.  0.
          5    1    3    3  502    0 -0.19088930755E+02  0.19448754172E+02 -0.32258958015E+03  0.32376558023E+03  0.41800000000E+01 0. -1.
         -5    1    3    3    0  502 -0.10885768735E+03 -0.74395879648E+02 -0.33798158997E+03  0.36281368574E+03  0.41800000000E+01 0. -1.
        -11    1    1    2    0    0  0.14185430643E+03  0.42878057346E+02 -0.26612181168E+03  0.30460136359E+03  0.00000000000E+00 0.  1.
         11    1    1    2    0    0 -0.13907688322E+02  0.12069068130E+02 -0.40737021320E+02  0.44705604862E+02  0.00000000000E+00 0. -1.
</event>
<event>
 7    1  0.2522928E-009  0.1067078E+03  0.7561462E-02  0.1266791E+00
         -1   -1    0    0    0  501 -0.00000000000E+00  0.00000000000E+00  0.88866423885E+02  0.88866423885E+02  0.00000000000E+00 0.  1.
          1   -1    0    0  501    0  0.00000000000E+00 -0.00000000000E+00 -0.19866933797E+03  0.19866933797E+03  0.00000000000E+00 0. -1.
         25    2    1    2    0    0 -0.18554902049E+02 -0.69549539231E+02 -0.34072175481E+02  0.14828867860E+03  0.12508875354E+03 0.  0.
          5    1    3    3  502    0  0.23612600742E+02 -0.89908886543E+02 -0.39253809212E+02  0.10099255780E+03  0.41800000000E+01 0. -1.
         -5    1    3    3    0  502 -0.42167502791E+02  0.20359347312E+02  0.51816337309E+01  0.47296120799E+02  0.41800000000E+01 0. -1.
        -11    1    1    2    0    0  0.18007673622E+02  0.40796702581E+02  0.12610379237E+02  0.46342948927E+02  0.00000000000E+00 0.  1.
         11    1    1    2    0    0  0.54722842619E+00  0.28752836651E+02 -0.88341117844E+02  0.92904134334E+02  0.00000000000E+00 0. -1.
</event>
<event>
 7    1  0.2522928E-009  0.9243806E+02  0.7561462E-02  0.1297053E+00
         -1   -1    0    0    0  501 -0.00000000000E+00  0.00000000000E+00  0.13952390854E+03  0.13952390854E+03  0.00000000000E+00 0.  1.
          1   -1    0    0  501    0  0.00000000000E+00 -0.00000000000E+00 -0.85352597248E+02  0.85352597248E+02  0.00000000000E+00 0. -1.
         25    2    1    2    0    0 -0.34498476993E+01  0.10516541098E+02  0.23400821145E+02  0.12773594999E+03  0.12508547239E+03 0.  0.
          5    1    3    3  502    0  0.42864960609E+02 -0.34734130529E+02  0.29253556117E+02  0.62586800662E+02  0.41800000000E+01 0.  1.
         -5    1    3    3    0  502 -0.46314808309E+02  0.45250671627E+02 -0.58527349722E+01  0.65149149327E+02  0.41800000000E+01 0.  1.
        -11    1    1    2    0    0  0.17263596918E+02  0.22797576037E+02 -0.19977076045E+02  0.34883302868E+02  0.00000000000E+00 0. -1.
         11    1    1    2    0    0 -0.13813749218E+02 -0.33314117135E+02  0.50747566193E+02  0.62257252931E+02  0.00000000000E+00 0.  1.
</event>
<event>
 7    1  0.2522928E-009  0.2905923E+03  0.7561462E-02  0.1090040E+00
         -2   -1    0    0    0  501 -0.00000000000E+00  0.00000000000E+00  0.51361562343E+02  0.51361562343E+02  0.00000000000E+00 0.  1.
          2   -1    0    0  501    0  0.00000000000E+00 -0.00000000000E+00 -0.19558203943E+04  0.19558203943E+04  0.00000000000E+00 0. -1.
         25    2    1    2    0    0 -0.28569789697E+03  0.37532133380E+02 -0.12035907820E+04  0.12439089817E+04  0.12508730931E+03 0.  0.
          5    1    3    3  502    0 -0.30685530897E+02  0.10873030163E+02 -0.36973096323E+02  0.49439931665E+02  0.41800000000E+01 0.  1.
         -5    1    3    3    0  502 -0.25501236608E+03  0.26659103217E+02 -0.11666176857E+04  0.11944690501E+04  0.41800000000E+01 0.  1.
        -11    1    1    2    0    0  0.14200350232E+03 -0.42246451292E+02 -0.45433198716E+03  0.47787792570E+03  0.00000000000E+00 0. -1.
         11    1    1    2    0    0  0.14369439466E+03  0.47143179129E+01 -0.24653606275E+03  0.28539504916E+03  0.00000000000E+00 0.  1.
</event>
<event>
 7    1  0.2522928E-009  0.1518604E+03  0.7561462E-02  0.1198205E+00
          2   -1    0    0  501    0  0.00000000000E+00  0.00000000000E+00  0.27364316051E+02  0.27364316051E+02  0.00000000000E+00 0. -1.
         -2   -1    0    0    0  501 -0.00000000000E+00 -0.00000000000E+00 -0.10678661993E+04  0.10678661993E+04  0.00000000000E+00 0.  1.
         25    2    1    2    0    0 -0.69338187588E+02  0.11169218326E+03 -0.56038772507E+03  0.58903683439E+03  0.12508821605E+03 0.  0.
          5    1    3    3  502    0 -0.11068208542E+02 -0.16232011997E+02 -0.13126617609E+02  0.23995081655E+02  0.41800000000E+01 0. -1.
         -5    1    3    3    0  502 -0.58269979046E+02  0.12792419525E+03 -0.54726110746E+03  0.56504175273E+03  0.41800000000E+01 0. -1.
        -11    1    1    2    0    0 -0.19026309941E+00 -0.50147296146E+02 -0.72607351640E+02  0.88241798616E+02  0.00000000000E+00 0. -1.
         11    1    1    2    0    0  0.69528450687E+02 -0.61544887111E+02 -0.40750680652E+03  0.41795188233E+03  0.00000000000E+00 0.  1.
</event>
<event>
 7    1  0.2522928E-009  0.9847810E+02  0.7561462E-02  0.1283529E+00
         -1   -1    0    0    0  501 -0.00000000000E+00  0.00000000000E+00  0.18223879813E+03  0.18223879813E+03  0.00000000000E+00 0.  1.
          1   -1    0    0  501    0  0.00000000000E+00 -0.00000000000E+00 -0.13975936674E+03  0.13975936674E+03  0.00000000000E+00 0. -1.
         25    2    1    2    0    0 -0.40997358694E+01  0.53099629043E+02 -0.83305167479E+02  0.15945084791E+03  0.12509373898E+03 0.  0.
          5    1    3    3  502    0 -0.52622112027E+02  0.51192537828E+01 -0.73121134577E+02  0.90329763397E+02  0.41800000000E+01 0.  1.
         -5    1    3    3    0  502  0.48522376158E+02  0.47980375261E+02 -0.10184032902E+02  0.69121084513E+02  0.41800000000E+01 0.  1.
        -11    1    1    2    0    0  0.28880099503E+02 -0.30718493884E+02  0.12183377832E+03  0.12892306059E+03  0.00000000000E+00 0.  1.
         11    1    1    2    0    0 -0.24780363634E+02 -0.22381135159E+02  0.39508205550E+01  0.33624256362E+02  0.00000000000E+00 0. -1.
</event>
<event>
 7    1  0.2522928E-009  0.1382915E+03  0.7561462E-02  0.1215647E+00
          1   -1    0    0  501    0  0.00000000000E+00  0.00000000000E+00  0.42998247390E+03  0.42998247390E+03  0.00000000000E+00 0. -1.
         -1   -1    0    0    0  501 -0.00000000000E+00 -0.00000000000E+00 -0.71606677208E+02  0.71606677208E+02  0.00000000000E+00 0.  1.
         25    2    1    2    0    0 -0.80587485279E+02 -0.10517431493E+03  0.24214190230E+03  0.30304545093E+03  0.12509142728E+03 0.  0.
          5    1    3    3  502    0 -0.63633473553E+02 -0.10852549533E+03  0.10264692601E+03  0.16242187633E+03  0.41800000000E+01 0. -1.
         -5    1    3    3    0  502 -0.16954011726E+02  0.33511803995E+01  0.13949497629E+03  0.14062357460E+03  0.41800000000E+01 0. -1.
        -11    1    1    2    0    0  0.53528494700E+02  0.77809534931E+02  0.22312425399E+02  0.97043638629E+02  0.00000000000E+00 0.  1.
         11    1    1    2    0    0  0.27058990579E+02  0.27364779997E+02  0.93921468998E+02  0.10150006155E+03  0.00000000000E+00 0. -1.
</event>
<event>
 7    1  0.2522928E-009  0.8294528E+02  0.7561462E-02  0.1320895E+00
          1   -1    0    0  501    0  0.00000000000E+00  0.00000000000E+00  0.10815056163E+03  0.10815056163E+03  0.00000000000E+00 0.  1.
         -1   -1    0    0    0  501 -0.00000000000E+00 -0.00000000000E+00 -0.16805022968E+03  0.16805022968E+03  0.00000000000E+00 0. -1.
         25    2    1    2    0    0  0.16118942166E+02  0.33372299555E+02 -0.10743197909E+03  0.16900632627E+03  0.12509187629E+03 0.  0.
          5    1    3    3  502    0 -0.17811532177E+01 -0.42305873449E+02 -0.71580518577E+02  0.83271858841E+02  0.41800000000E+01 0. -1.
         -5    1    3    3    0  502  0.17900095384E+02  0.75678173003E+02 -0.35851460512E+02  0.85734467425E+02  0.41800000000E+01 0. -1.
        -11    1    1    2    0    0 -0.20134166077E+02 -0.11422143042E+02  0.71079397664E+02  0.74753801024E+02  0.00000000000E+00 0.  1.
         11    1    1    2    0    0  0.40152239110E+01 -0.21950156512E+02 -0.23547086618E+02  0.32440664022E+02  0.00000000000E+00 0. -1.
</event>
<event>
 7    1  0.2522928E-009  0.1060433E+03  0.7561462E-02  0.1268078E+00
         -2   -1    0    0    0  501 -0.00000000000E+00  0.00000000000E+00  0.42916170872E+02  0.42916170872E+02  0.00000000000E+00 0.  1.
          2   -1    0    0  501    0  0.00000000000E+00 -0.00000000000E+00 -0.42589457831E+03  0.42589457831E+03  0.00000000000E+00 0. -1.
         25    2    1    2    0    0 -0.72742220204E+02 -0.14954207367E+02 -0.26879328519E+03  0.30563825952E+03  0.12509938690E+03 0.  0.
          5    1    3    3  502    0 -0.68560770249E+02  0.41980398907E+02 -0.20329021099E+03  0.21864884036E+03  0.41800000000E+01 0.  1.
         -5    1    3    3    0  502 -0.41814499551E+01 -0.56934606274E+02 -0.65503074205E+02  0.86989419159E+02  0.41800000000E+01 0.  1.
        -11    1    1    2    0    0  0.14033481917E+02  0.14938319662E+01  0.15024746513E+02  0.20613421755E+02  0.00000000000E+00 0.  1.
         11    1    1    2    0    0  0.58708738287E+02  0.13460375401E+02 -0.12920986876E+03  0.14255906791E+03  0.00000000000E+00 0. -1.
</event>
<event>
 7    1  0.2522928E-009  0.1289916E+03  0.7561462E-02  0.1228960E+00
         -1   -1    0    0    0  501 -0.00000000000E+00  0.00000000000E+00  0.20385982269E+02  0.20385982269E+02  0.00000000000E+00 0.  1.
          1   -1    0    0  501    0  0.00000000000E+00 -0.00000000000E+00 -0.10082413189E+04  0.10082413189E+04  0.00000000000E+00 0. -1.
         25    2    1    2    0    0 -0.75858463599E+02 -0.52735344218E+02 -0.47166289886E+03  0.49663507546E+03  0.12507991442E+03 0.  0.
          5    1    3    3  502    0 -0.31470441615E+02  0.40586118877E+02 -0.13775809788E+03  0.14707952839E+03  0.41800000000E+01 0. -1.
         -5    1    3    3    0  502 -0.44388021984E+02 -0.93321463096E+02 -0.33390480098E+03  0.34955554707E+03  0.41800000000E+01 0. -1.
        -11    1    1    2    0    0  0.61819860090E+02  0.60910183266E+02 -0.50466457163E+03  0.51207233414E+03  0.00000000000E+00 0. -1.
         11    1    1    2    0    0  0.14038603509E+02 -0.81748390480E+01 -0.11527866109E+02  0.19919891540E+02  0.00000000000E+00 0.  1.
</event>
<event>
 7    1  0.2522928E-009  0.9772032E+02  0.7561462E-02  0.1285164E+00
         -3   -1    0    0    0  501 -0.00000000000E+00  0.00000000000E+00  0.56328031525E+02  0.56328031525E+02  0.00000000000E+00 0.  1.
          3   -1    0    0  501    0  0.00000000000E+00 -0.00000000000E+00 -0.23250758669E+03  0.23250758669E+03  0.00000000000E+00 0. -1.
         25    2    1    2    0    0 -0.33209416307E+02  0.34964688258E+02 -0.10398506185E+03  0.16966451777E+03  0.12509100985E+03 0.  0.
          5    1    3    3  502    0 -0.79828895651E+02  0.32660161278E+02 -0.58106854146E+02  0.10408274408E+03  0.41800000000E+01 0.  1.
         -5    1    3    3    0  502  0.46619479344E+02  0.23045269807E+01 -0.45878207699E+02  0.65581773692E+02  0.41800000000E+01 0.  1.
        -11    1    1    2    0    0  0.24239476415E+02  0.18718972061E+01 -0.77192176567E+02  0.80930144812E+02  0.00000000000E+00 0.  1.
         11    1    1    2    0    0  0.89699398919E+01 -0.36836585464E+02  0.49976832447E+01  0.38240955639E+02  0.00000000000E+00 0. -1.
</event>
<event>
 6    1  0.2522928E-009  0.1274771E+03  0.7561462E-02  0.1231248E+00
         -1   -1    0    0    0  501 -0.00000000000E+00  0.00000000000E+00  0.20083156045E+03  0.20083156045E+03  0.00000000000E+00 0.  1.
          1   -1    0    0  501    0  0.00000000000E+00 -0.00000000000E+00 -0.92956922322E+02  0.92956922322E+02  0.00000000000E+00 0. -1.
          5    1    1    2  502    0 -0.37950703844E+02  0.50656912137E+02 -0.14922365432E+02  0.65165390044E+02  0.41800000000E+01 0.  1.
         -5    1    1    2    0  502 -0.42877740479E+02 -0.58988915381E+02  0.48439512715E+02  0.87647313470E+02  0.41800000000E+01 0.  1.
        -11    1    1    2    0    0  0.75079179780E+02  0.40835970253E+02  0.43987493320E+02  0.96121585877E+02  0.00000000000E+00 0. -1.
         11    1    1    2    0    0  0.57492645422E+01 -0.32503967009E+02  0.30369997523E+02  0.44854193378E+02  0.00000000000E+00 0.  1.
</event>
<event>
 7    1  0.2522928E-009  0.1117277E+03  0.7561462E-02  0.1257403E+00
          2   -1    0    0  501    0  0.00000000000E+00  0.00000000000E+00  0.41345325668E+03  0.41345325668E+03  0.00000000000E+00 0. -1.
         -2   -1    0    0    0  501 -0.00000000000E+00 -0.00000000000E+00 -0.32915212606E+02  0.32915212606E+02  0.00000000000E+00 0.  1.
         25    2    1    2    0    0  0.41479394523E+02 -0.21135432181E+02  0.22535143847E+03  0.26191352561E+03  0.12509267530E+03 0.  0.
          5    1    3    3  502    0 -0.35664962031E+02  0.24579318196E+02  0.67143485778E+02  0.80011577175E+02  0.41800000000E+01 0.  1.
         -5    1    3    3    0  502  0.77144356553E+02 -0.45714750377E+02  0.15820795269E+03  0.18190194843E+03  0.41800000000E+01 0.  1.
        -11    1    1    2    0    0 -0.63988492781E+02  0.21944441953E+02  0.14444596168E+03  0.15950147832E+03  0.00000000000E+00 0.  1.
         11    1    1    2    0    0  0.22509098258E+02 -0.80900977206E+00  0.10740643926E+02  0.24953465354E+02  0.00000000000E+00 0. -1.
</event>
<event>
 7    1  0.2522928E-009  0.1331118E+03  0.7561462E-02  0.1222910E+00
          1   -1    0    0  501    0  0.00000000000E+00  0.00000000000E+00  0.17954966839E+03  0.17954966839E+03  0.00000000000E+00 0. -1.
         -1   -1    0    0    0  501 -0.00000000000E+00 -0.00000000000E+00 -0.10812048689E+03  0.10812048689E+03  0.00000000000E+00 0.  1.
         25    2    1    2    0    0  0.58022405139E+02 -0.63490972462E+02  0.16242904374E+02  0.15267583064E+03  0.12509346201E+03 0.  0.
          5    1    3    3  502    0  0.13498069124E+02 -0.95187304667E+02  0.29614380394E+01  0.96275974963E+02  0.41800000000E+01 0. -1.
         -5    1    3    3    0  502  0.44524336015E+02  0.31696332205E+02  0.13281466335E+02  0.56399855681E+02  0.41800000000E+01 0. -1.
        -11    1    1    2    0    0  0.13924441056E+02  0.35228533391E+02  0.42034181232E+02  0.56584556333E+02  0.00000000000E+00 0. -1.
         11    1    1    2    0    0 -0.71946846195E+02  0.28262439071E+02  0.13152095888E+02  0.78409768306E+02  0.00000000000E+00 0.  1.
</event>
<event>
 7    1  0.2522928E-009  0.1532650E+03  0.7561462E-02  0.1196517E+00
          1   -1    0    0  501    0  0.00000000000E+00  0.00000000000E+00  0.25207827298E+03  0.25207827298E+03  0.00000000000E+00 0. -1.
         -1   -1    0    0    0  501 -0.00000000000E+00 -0.00000000000E+00 -0.96656193650E+02  0.96656193650E+02  0.00000000000E+00 0.  1.
         25    2    1    2    0    0 -0.95205611936E+02 -0.58468252823E+02  0.80937991013E+02  0.18622796166E+03  0.12508896907E+03 0.  0.
          5    1    3    3  502    0  0.23948497680E+02 -0.40218126547E+02  0.25731082930E+02  0.53577880444E+02  0.41800000000E+01 0. -1.
         -5    1    3    3    0  502 -0.11915410962E+03 -0.18250126276E+02  0.55206908083E+02  0.13265008122E+03  0.41800000000E+01 0. -1.
        -11    1    1    2    0    0  0.10692749225E+03  0.65360291598E+02  0.79041163309E+02  0.14816531920E+03  0.00000000000E+00 0. -1.
         11    1    1    2    0    0 -0.11721880315E+02 -0.68920387747E+01 -0.45570749935E+01  0.14341185763E+02  0.00000000000E+00 0.  1.
</event>
<event>
 7    1  0.2522928E-009  0.9577814E+02  0.7561462E-02  0.1289433E+00
         -4   -1    0    0    0  501 -0.00000000000E+00  0.00000000000E+00  0.23959901483E+02  0.23959901483E+02  0.00000000000E+00 0.  1.
          4   -1    0    0  501    0  0.00000000000E+00 -0.00000000000E+00 -0.54167252831E+03  0.54167252831E+03  0.00000000000E+00 0. -1.
         25    2    1    2    0    0  0.30696969462E+02  0.47858258912E+01 -0.27214943924E+03  0.30112782949E+03  0.12508974518E+03 0.  0.
          5    1    3    3  502    0  0.57026842720E+02  0.24893170364E+02 -0.60593319097E+02  0.86952593064E+02  0.41800000000E+01 0. -1.
         -5    1    3    3    0  502 -0.26329873258E+02 -0.20107344472E+02 -0.21155612014E+03  0.21417523642E+03  0.41800000000E+01 0. -1.
        -11    1    1    2    0    0 -0.62881203381E+02  0.19821866554E+01 -0.18751151277E+03  0.19778407980E+03  0.00000000000E+00 0. -1.
         11    1    1    2    0    0  0.32184233919E+02 -0.67680125466E+01 -0.58051674818E+02  0.66720520501E+02  0.00000000000E+00 0.  1.
</event>
<event>
 7    1  0.2522928E-009  0.1303233E+03  0.7561462E-02  0.1226977E+00
          2   -1    0    0  501    0  0.00000000000E+00  0.00000000000E+00  0.75012965063E+02  0.75012965063E+02  0.00000000000E+00 0. -1.
         -2   -1    0    0    0  501 -0.00000000000E+00 -0.00000000000E+00 -0.27747623773E+03  0.27747623773E+03  0.00000000000E+00 0.  1.
         25    2    1    2    0    0  0.78120709357E+02  0.44737523258E+02 -0.73066838875E+02  0.17055934125E+03  0.12508970671E+03 0.  0.
          5    1    3    3  502    0 -0.15140355150E+02 -0.26655124522E+02  0.21707976725E+01  0.31014686519E+02  0.41800000000E+01 0.  1.
         -5    1    3    3    0  502  0.93261064507E+02  0.71392647779E+02 -0.75237636548E+02  0.13954465473E+03  0.41800000000E+01 0.  1.
        -11    1    1    2    0    0 -0.70596360202E+02 -0.39490526960E+01 -0.12018705111E+03  0.13944306489E+03  0.00000000000E+00 0.  1.
         11    1    1    2    0    0 -0.75243491547E+01 -0.40788470562E+02 -0.92093826852E+01  0.42486796660E+02  0.00000000000E+00 0. -1.
</event>
<event>
 7    1  0.2522928E-009  0.1495630E+03  0.7561462E-02  0.1201011E+00
         -1   -1    0    0    0  501 -0.00000000000E+00  0.00000000000E+00  0.52517682515E+02  0.52517682515E+02  0.00000000000E+00 0.  1.
          1   -1    0    0  501    0  0.00000000000E+00 -0.00000000000E+00 -0.78241166744E+03  0.78241166744E+03  0.00000000000E+00 0. -1.
         25    2    1    2    0    0  0.12476007105E+02  0.13566442555E+03 -0.59591976936E+03  0.62396262997E+03  0.12509398456E+03 0.  0.
          5    1    3    3  502    0 -0.21328026500E+01  0.10744477192E+02 -0.32534162182E+03  0.32555281588E+03  0.41800000000E+01 0. -1.
         -5    1    3    3    0  502  0.14608809755E+02  0.12491994836E+03 -0.27057814754E+03  0.29840981409E+03  0.41800000000E+01 0. -1.
        -11    1    1    2    0    0 -0.29853642436E+02 -0.56418163776E+01 -0.36772467559E+02  0.47699941605E+02  0.00000000000E+00 0.  1.
         11    1    1    2    0    0  0.17377635331E+02 -0.13002260918E+03 -0.97201748008E+02  0.16326677838E+03  0.00000000000E+00 0. -1.
</event>
<event>
 7    1  0.2522928E-009  0.1610563E+03  0.7561462E-02  0.1187509E+00
          1   -1    0    0  501    0  0.00000000000E+00  0.00000000000E+00  0.13692300665E+04  0.13692300665E+04  0.00000000000E+00 0. -1.
         -1   -1    0    0    0  501 -0.00000000000E+00 -0.00000000000E+00 -0.30754207481E+02  0.30754207481E+02  0.00000000000E+00 0.  1.
         25    2    1    2    0    0  0.59230636892E+02  0.12392948510E+03  0.10564933669E+04  0.10727033680E+04  0.12508995124E+03 0.  0.
          5    1    3    3  502    0  0.69402126161E+01 -0.23804573191E+02  0.84973182097E+02  0.88615677685E+02  0.41800000000E+01 0. -1.
         -5    1    3    3    0  502  0.52290424276E+02  0.14773405829E+03  0.97152018477E+03  0.98408769033E+03  0.41800000000E+01 0. -1.
        -11    1    1    2    0    0 -0.46552447342E+02 -0.11660547804E+03  0.28578885697E+03  0.31215258870E+03  0.00000000000E+00 0. -1.
         11    1    1    2    0    0 -0.12678189551E+02 -0.73240070613E+01 -0.38063648287E+01  0.15128317254E+02  0.00000000000E+00 0.  1.
</event>
<event>
 7    1  0.2522928E-009  0.7387973E+02  0.7561462E-02  0.1347376E+00
          2   -1    0    0  501    0  0.00000000000E+00  0.00000000000E+00  0.24393465595E+02  0.24393465595E+02  0.00000000000E+00 0. -1.
         -2   -1    0    0    0  501 -0.00000000000E+00 -0.00000000000E+00 -0.66947529222E+03  0.66947529222E+03  0.00000000000E+00 0.  1.
         25    2    1    2    0    0 -0.41283409203E+02 -0.49616316194E+02 -0.41734740251E+03  0.44044576165E+03  0.12509003104E+03 0.  0.
          5    1    3    3  502    0 -0.25056478855E+02 -0.32557957015E+02 -0.41428570769E+03  0.41633876554E+03  0.41800000000E+01 0. -1.
         -5    1    3    3    0  502 -0.16226930348E+02 -0.17058359178E+02 -0.30616948266E+01  0.24106996113E+02  0.41800000000E+01 0. -1.
        -11    1    1    2    0    0  0.51984726056E+02  0.49599698977E+02 -0.23125305393E+03  0.24215804102E+03  0.00000000000E+00 0.  1.
         11    1    1    2    0    0 -0.10701316852E+02  0.16617216724E-01  0.35186298154E+01  0.11264955139E+02  0.00000000000E+00 0. -1.
</event>
<event>
 7    1  0.2522928E-009  0.1003975E+03  0.7561462E-02  0.1279462E+00
          2   -1    0    0  501    0  0.00000000000E+00  0.00000000000E+00  0.66208200140E+03  0.66208200140E+03  0.00000000000E+00 0. -1.
         -2   -1    0    0    0  501 -0.00000000000E+00 -0.00000000000E+00 -0.30655781139E+02  0.30655781139E+02  0.00000000000E+00 0.  1.
         25    2    1    2    0    0  0.18669966514E+02 -0.87972723651E+02  0.40395428919E+03  0.43233514876E+03  0.12508735087E+03 0.  0.
          5    1    3    3  502    0  0.16795913169E+02 -0.43155211098E+02  0.29249021582E+02  0.54931344491E+02  0.41800000000E+01 0.  1.
         -5    1    3    3    0  502  0.18740533450E+01 -0.44817512553E+02  0.37470526761E+03  0.37740380427E+03  0.41800000000E+01 0.  1.
        -11    1    1    2    0    0  0.15450565551E+02  0.67952725253E+02  0.20116635596E+03  0.21289479941E+03  0.00000000000E+00 0. -1.
         11    1    1    2    0    0 -0.34120532065E+02  0.20019998398E+02  0.26305575113E+02  0.47507834367E+02  0.00000000000E+00 0.  1.
</event>
<event>
 7    1  0.2522928E-009  0.9336295E+02  0.7561462E-02  0.1294906E+00
          2   -1    0    0  501    0  0.00000000000E+00  0.00000000000E+00  0.16343323720E+04  0.16343323720E+04  0.00000000000E+00 0.  1.
         -2   -1    0    0    0  501 -0.00000000000E+00 -0.00000000000E+00 -0.11127098363E+02  0.11127098363E+02  0.00000000000E+00 0. -1.
         25    2    1    2    0    0  0.26126473234E+02  0.24164736141E+02  0.13560491304E+04  0.13622714968E+04  0.12509140636E+03 0.  0.
          5    1    3    3  502    0 -0.29742748304E+02  0.39450419640E+02  0.10227324602E+04  0.10239336522E+04  0.41800000000E+01 0.  1.
         -5    1    3    3    0  502  0.55869221539E+02 -0.15285683499E+02  0.33331667023E+03  0.33833784460E+03  0.41800000000E+01 0.  1.
        -11    1    1    2    0    0 -0.49788896655E+02 -0.24310952516E+02  0.24351533703E+03  0.24973921601E+03  0.00000000000E+00 0.  1.
         11    1    1    2    0    0  0.23662423421E+02  0.14621637503E+00  0.23640806182E+02  0.33448757500E+02  0.00000000000E+00 0. -1.
</event>
<event>
 7    1  0.2522928E-009  0.1095710E+03  0.7561462E-02  0.1261366E+00
          2   -1    0    0  501    0  0.00000000000E+00  0.00000000000E+00  0.34322526327E+03  0.34322526327E+03  0.00000000000E+00 0. -1.
         -2   -1    0    0    0  501 -0.00000000000E+00 -0.00000000000E+00 -0.54143146459E+02  0.54143146459E+02  0.00000000000E+00 0.  1.
         25    2    1    2    0    0 -0.45218379025E+02 -0.21891150770E+02  0.61161212774E+02  0.14803687446E+03  0.12510115095E+03 0.  0.
          5    1    3    3  502    0  0.61847098956E+01 -0.62197691673E+02  0.53035270993E+02  0.82079326600E+02  0.41800000000E+01 0. -1.
         -5    1    3    3    0  502 -0.51403088921E+02  0.40306540903E+02  0.81259417809E+01  0.65957547862E+02  0.41800000000E+01 0. -1.
        -11    1    1    2    0    0  0.12449862312E+02  0.47720835934E+02  0.67651102394E+02  0.83719465532E+02  0.00000000000E+00 0.  1.
         11    1    1    2    0    0  0.32768516713E+02 -0.25829685164E+02  0.16026980164E+03  0.16561206973E+03  0.00000000000E+00 0. -1.
</event>
<event>
 7    1  0.2522928E-009  0.9683159E+02  0.7561462E-02  0.1287103E+00
          3   -1    0    0  501    0  0.00000000000E+00  0.00000000000E+00  0.21398631064E+03  0.21398631064E+03  0.00000000000E+00 0. -1.
         -3   -1    0    0    0  501 -0.00000000000E+00 -0.00000000000E+00 -0.79725583315E+02  0.79725583315E+02  0.00000000000E+00 0.  1.
         25    2    1    2    0    0 -0.53027186134E+02 -0.14939371120E+02  0.12863670663E+03  0.18769222871E+03  0.12508358464E+03 0.  0.
          5    1    3    3  502    0 -0.79918217419E+02 -0.47998580442E+02  0.95737837523E+02  0.13369364657E+03  0.41800000000E+01 0.  1.
         -5    1    3    3    0  502  0.26891031286E+02  0.33059209322E+02  0.32898869109E+02  0.53998582141E+02  0.41800000000E+01 0.  1.
        -11    1    1    2    0    0  0.27748461244E+02  0.16350754216E+02  0.47318897944E+02  0.57239866941E+02  0.00000000000E+00 0. -1.
         11    1    1    2    0    0  0.25278724889E+02 -0.14113830956E+01 -0.41694877246E+02  0.48779798306E+02  0.00000000000E+00 0.  1.
</event>
<event>
 7    1  0.2522928E-009  0.9360493E+02  0.7561462E-02  0.1294349E+00
          2   -1    0    0  501    0  0.00000000000E+00  0.00000000000E+00  0.28848063609E+02  0.28848063609E+02  0.00000000000E+00 0. -1.
         -2   -1    0    0    0  501 -0.00000000000E+00 -0.00000000000E+00 -0.63502331140E+03  0.63502331140E+03  0.00000000000E+00 0.  1.
         25    2    1    2    0    0 -0.50689595584E+02 -0.13663429936E+02 -0.48568430457E+03  0.50427439849E+03  0.12508917157E+03 0.  0.
          5    1    3    3  502    0 -0.75295083406E+01  0.35473274378E+02 -0.36605944341E+03  0.36787502661E+03  0.41800000000E+01 0.  1.
         -5    1    3    3    0  502 -0.43160087243E+02 -0.49136704314E+02 -0.11962486116E+03  0.13639937188E+03  0.41800000000E+01 0.  1.
        -11    1    1    2    0    0  0.28589543285E+02 -0.26723292975E+02 -0.10328227418E+03  0.11044783625E+03  0.00000000000E+00 0.  1.
         11    1    1    2    0    0  0.22100052298E+02  0.40386722911E+02 -0.17208669037E+02  0.49149140268E+02  0.00000000000E+00 0. -1.
</event>
<event>
 7    1  0.3589781E-009  0.1666539E+03  0.7561462E-02  0.1181383E+00
         -1   -1    0    0    0  501 -0.00000000000E+00  0.00000000000E+00  0.21861032188E+02  0.21861032188E+02  0.00000000000E+00 0.  1.
          1   -1    0    0  501    0  0.00000000000E+00 -0.00000000000E+00 -0.16209176167E+04  0.16209176167E+04  0.00000000000E+00 0. -1.
         25    2    1    2    0    0 -0.35920814835E+02  0.12174474490E+03 -0.12186908315E+04  0.12316507179E+04  0.12507621856E+03 0.  0.
          5    1    3    3  502    0 -0.80153857171E+02  0.55083505459E+02 -0.61203263685E+03  0.61972595102E+03  0.41800000000E+01 0.  1.
         -5    1    3    3    0  502  0.44233042336E+02  0.66661239445E+02 -0.60665819460E+03  0.61192476690E+03  0.41800000000E+01 0.  1.
        -11    1    1    2    0    0 -0.28502989442E+02 -0.60882355930E+02 -0.15413464305E+03  0.16815638513E+03  0.00000000000E+00 0. -1.
         11    1    1    2    0    0  0.64423804277E+02 -0.60862388974E+02 -0.22623111000E+03  0.24297154582E+03  0.00000000000E+00 0.  1.
</event>
<event>
 7    1  0.2522928E-009  0.1594240E+03  0.7561462E-02  0.1189349E+00
          2   -1    0    0  501    0  0.00000000000E+00  0.00000000000E+00  0.50344227056E+02  0.50344227056E+02  0.00000000000E+00 0. -1.
         -2   -1    0    0    0  501 -0.00000000000E+00 -0.00000000000E+00 -0.62393289729E+03  0.62393289729E+03  0.00000000000E+00 0.  1.
         25    2    1    2    0    0  0.10873400891E+03  0.65967812192E+02 -0.41683339930E+03  0.45339780926E+03  0.12507859023E+03 0.  0.
          5    1    3    3  502    0 -0.45471485348E+01  0.48684658332E+02 -0.22169957879E+03  0.22706617571E+03  0.41800000000E+01 0. -1.
         -5    1    3    3    0  502  0.11328115745E+03  0.17283153861E+02 -0.19513382051E+03  0.22633163355E+03  0.41800000000E+01 0. -1.
        -11    1    1    2    0    0 -0.91967300736E+02 -0.52526212730E+01 -0.84240430786E+02  0.12482798009E+03  0.00000000000E+00 0.  1.
         11    1    1    2    0    0 -0.16766708178E+02 -0.60715190919E+02 -0.72514840154E+02  0.96051334994E+02  0.00000000000E+00 0. -1.
</event>
<event>
 7    1  0.2522928E-009  0.1300025E+03  0.7561462E-02  0.1227452E+00
          2   -1    0    0  501    0  0.00000000000E+00  0.00000000000E+00  0.70771163731E+03  0.70771163731E+03  0.00000000000E+00 0.  1.
         -2   -1    0    0    0  501 -0.00000000000E+00 -0.00000000000E+00 -0.38114920133E+02  0.38114920133E+02  0.00000000000E+00 0. -1.
         25    2    1    2    0    0  0.65257472533E+02 -0.39471948141E+02  0.57773568140E+03  0.59602309329E+03  0.12509371591E+03 0.  0.
          5    1    3    3  502    0  0.25867166981E+01 -0.73606576041E+02  0.25445008656E+03  0.26492817535E+03  0.41800000000E+01 0. -1.
         -5    1    3    3    0  502  0.62670755835E+02  0.34134627901E+02  0.32328559484E+03  0.33109491794E+03  0.41800000000E+01 0. -1.
        -11    1    1    2    0    0 -0.37622128389E+02  0.66301215740E+02  0.77467823342E+02  0.10868550688E+03  0.00000000000E+00 0.  1.
         11    1    1    2    0    0 -0.27635344144E+02 -0.26829267599E+02  0.14393212431E+02  0.41117957269E+02  0.00000000000E+00 0. -1.
</event>
<event>
 7    1  0.2522928E-009  0.9179461E+02  0.7561462E-02  0.1298563E+00
         -2   -1    0    0    0  501 -0.00000000000E+00  0.00000000000E+00  0.91200099714E+02  0.91200099714E+02  0.00000000000E+00 0.  1.
          2   -1    0    0  501    0  0.00000000000E+00 -0.00000000000E+00 -0.15506896014E+03  0.15506896014E+03  0.00000000000E+00 0. -1.
         25    2    1    2    0    0 -0.41497384040E+02  0.27672129795E+02 -0.34882986027E+02  0.13911858674E+03  0.12509747724E+03 0.  0.
          5    1    3    3  502    0 -0.55247253461E+02 -0.99757768493E+01  0.29200000288E+02  0.63418353459E+02  0.41800000000E+01 0. -1.
         -5    1    3    3    0  502  0.13749869421E+02  0.37647906644E+02 -0.64082986314E+02  0.75700233281E+02  0.41800000000E+01 0. -1.
        -11    1    1    2    0    0  0.61086349725E+02 -0.12830877347E+02  0.78057822516E+01  0.62905514645E+02  0.00000000000E+00 0.  1.
         11    1    1    2    0    0 -0.19588965685E+02 -0.14841252448E+02 -0.36791656650E+02  0.44244958468E+02  0.00000000000E+00 0. -1.
</event>
<event>
 7    1  0.2522928E-009  0.2562310E+03  0.7561462E-02  0.1109429E+00
         -1   -1    0    0    0  501 -0.00000000000E+00  0.00000000000E+00  0.67818066749E+02  0.67818066749E+02  0.00000000000E+00 0.  1.
          1   -1    0    0  501    0  0.00000000000E+00 -0.00000000000E+00 -0.10437276323E+04  0.10437276323E+04  0.00000000000E+00 0. -1.
         25    2    1    2    0    0 -0.12041221170E+03 -0.20607364904E+03 -0.40958098240E+03  0.49027512325E+03  0.12509063025E+03 0.  0.
          5    1    3    3  502    0 -0.78422118830E+02 -0.33853614805E+02 -0.85918187256E+02  0.12122501086E+03  0.41800000000E+01 0. -1.
         -5    1    3    3    0  502 -0.41990092872E+02 -0.17222003424E+03 -0.32366279515E+03  0.36905011239E+03  0.41800000000E+01 0. -1.
        -11    1    1    2    0    0 -0.58738444663E+01  0.42869178774E+02 -0.55782066664E+02  0.70596795245E+02  0.00000000000E+00 0.  1.
         11    1    1    2    0    0  0.12628605617E+03  0.16320447027E+03 -0.51054651649E+03  0.55067378056E+03  0.00000000000E+00 0. -1.
</event>
<event>
 7    1  0.2522928E-009  0.1183399E+03  0.7561462E-02  0.1245861E+00
         -1   -1    0    0    0  501 -0.00000000000E+00  0.00000000000E+00  0.35462787435E+02  0.35462787435E+02  0.00000000000E+00 0.  1.
          1   -1    0    0  501    0  0.00000000000E+00 -0.00000000000E+00 -0.43547264684E+03  0.43547264684E+03  0.00000000000E+00 0. -1.
         25    2    1    2    0    0 -0.55596904262E+02  0.15388825878E+02 -0.25273564902E+03  0.28783312900E+03  0.12507905556E+03 0.  0.
          5    1    3    3  502    0  0.40017697038E+02 -0.27376829566E+01 -0.72859293557E+02  0.83275807062E+02  0.41800000000E+01 0.  1.
         -5    1    3    3    0  502 -0.95614601300E+02  0.18126508835E+02 -0.17987635546E+03  0.20455732194E+03  0.41800000000E+01 0.  1.
        -11    1    1    2    0    0  0.74817099854E+02 -0.22998436652E+02 -0.14138964825E+03  0.16160927928E+03  0.00000000000E+00 0. -1.
         11    1    1    2    0    0 -0.19220195592E+02  0.76096107739E+01 -0.58845621397E+01  0.21493025992E+02  0.00000000000E+00 0.  1.
</event>
<event>
 7    1  0.2522928E-009  0.1270272E+03  0.7561462E-02  0.1231935E+00
          1   -1    0    0  501    0  0.00000000000E+00  0.00000000000E+00  0.18882292108E+03  0.18882292108E+03  0.00000000000E+00 0. -1.
         -1   -1    0    0    0  501 -0.00000000000E+00 -0.00000000000E+00 -0.12389192251E+03  0.12389192251E+03  0.00000000000E+00 0.  1.
         25    2    1    2    0    0  0.30777915617E+02  0.73830330799E+02  0.90696253838E+02  0.17398915334E+03  0.12509283427E+03 0.  0.
          5    1    3    3  502    0  0.29060059728E+02  0.93592008512E+02  0.19559035409E+02  0.10001989500E+03  0.41800000000E+01 0.  1.
         -5    1    3    3    0  502  0.17178558885E+01 -0.19761677713E+02  0.71137218429E+02  0.73969258349E+02  0.41800000000E+01 0.  1.
        -11    1    1    2    0    0  0.32901101249E+02 -0.63036902020E+02 -0.69046453955E+01  0.71440937898E+02  0.00000000000E+00 0. -1.
         11    1    1    2    0    0 -0.63679016866E+02 -0.10793428778E+02 -0.18860609865E+02  0.67284752346E+02  0.00000000000E+00 0.  1.
</event>
<event>
 7    1  0.2522928E-009  0.1942208E+03  0.7561462E-02  0.1154709E+00
          1   -1    0    0  501    0  0.00000000000E+00  0.00000000000E+00  0.38513941354E+02  0.38513941354E+02  0.00000000000E+00 0. -1.
         -1   -1    0    0    0  501 -0.00000000000E+00 -0.00000000000E+00 -0.98584307419E+03  0.98584307419E+03  0.00000000000E+00 0.  1.
         25    2    1    2    0    0 -0.10044447452E+03 -0.12710835908E+03 -0.46668896269E+03  0.50959881070E+03  0.12508690007E+03 0.  0.
          5    1    3    3  502    0 -0.10717653913E+03 -0.36626361018E+02 -0.27678896925E+03  0.29909514667E+03  0.41800000000E+01 0.  1.
         -5    1    3    3    0  502  0.67320646036E+01 -0.90481998060E+02 -0.18989999343E+03  0.21050366403E+03  0.41800000000E+01 0.  1.
        -11    1    1    2    0    0  0.11632948259E+03  0.10284200549E+03 -0.40703093258E+03  0.43564114440E+03  0.00000000000E+00 0.  1.
         11    1    1    2    0    0 -0.15885008065E+02  0.24266353584E+02 -0.73609237569E+02  0.79117060442E+02  0.00000000000E+00 0. -1.
</event>
<event>
 7    1  0.2522928E-009  0.9084278E+02  0.7561462E-02  0.1300824E+00
         -2   -1    0    0    0  501 -0.00000000000E+00  0.00000000000E+00  0.15704347226E+02  0.15704347226E+02  0.00000000000E+00 0.  1.
          2   -1    0    0  501    0  0.00000000000E+00 -0.00000000000E+00 -0.10288641885E+04  0.10288641885E+04  0.00000000000E+00 0. -1.
         25    2    1    2    0    0 -0.13170720905E+02  0.41268848160E+01 -0.83159356181E+03  0.84106208155E+03  0.12508826445E+03 0.  0.
          5    1    3    3  502    0 -0.19476219912E+02 -0.47807822576E+02 -0.17846487255E+03  0.18582813074E+03  0.41800000000E+01 0.  1.
         -5    1    3    3    0  502  0.63054990062E+01  0.51934707392E+02 -0.65312868927E+03  0.65523395081E+03  0.41800000000E+01 0.  1.
        -11    1    1    2    0    0  0.67281923077E+01 -0.40204036391E+02 -0.14901425157E+03  0.15448909438E+03  0.00000000000E+00 0. -1.
         11    1    1    2    0    0  0.64425285977E+01  0.36077151575E+02 -0.32552027879E+02  0.49017359778E+02  0.00000000000E+00 0.  1.
</event>
<event>
 7    1  0.2522928E-009  0.9514540E+02  0.7561462E-02  0.1290849E+00
          1   -1    0    0  501    0  0.00000000000E+00  0.00000000000E+00  0.17877596273E+03  0.17877596273E+03  0.00000000000E+00 0. -1.
         -1   -1    0    0    0  501 -0.00000000000E+00 -0.00000000000E+00 -0.70016038247E+02  0.70016038247E+02  0.00000000000E+00 0.  1.
         25    2    1    2    0    0 -0.14387668194E+02  0.44544290589E+01  0.38764430070E+02  0.13181906191E+03  0.12508691822E+03 0.  0.
          5    1    3    3  502    0  0.50565829573E+02 -0.97425753449E+01  0.39760391486E+02  0.65193420112E+02  0.41800000000E+01 0. -1.
         -5    1    3    3    0  502 -0.64953497768E+02  0.14197004404E+02 -0.99596141599E+00  0.66625641801E+02  0.41800000000E+01 0. -1.
        -11    1    1    2    0    0 -0.28631077506E+02  0.97314712447E+00 -0.61937628906E+01  0.29309525981E+02  0.00000000000E+00 0.  1.
         11    1    1    2    0    0  0.43018745700E+02 -0.54275761834E+01  0.76189257303E+02  0.87663413082E+02  0.00000000000E+00 0. -1.
</event>
<event>
 7    1  0.2522928E-009  0.1339008E+03  0.7561462E-02  0.1221780E+00
         -2   -1    0    0    0  501 -0.00000000000E+00  0.00000000000E+00  0.22624014548E+03  0.22624014548E+03  0.00000000000E+00 0.  1.
          2   -1    0    0  501    0  0.00000000000E+00 -0.00000000000E+00 -0.86907501129E+02  0.86907501129E+02  0.00000000000E+00 0. -1.
         25    2    1    2    0    0  0.74202303256E+02 -0.44282995070E+02  0.96430166524E+02  0.18003597686E+03  0.12508881040E+03 0.  0.
          5    1    3    3  502    0  0.24354706961E+02 -0.80674673595E+02  0.30728658280E+02  0.89795754635E+02  0.41800000000E+01 0.  1.
         -5    1    3    3    0  502  0.49847596295E+02  0.36391678525E+02  0.65701508244E+02  0.90240222228E+02  0.41800000000E+01 0.  1.
        -11    1    1    2    0    0 -0.28501285431E+02 -0.25438755482E+02  0.30383565414E+02  0.48812033342E+02  0.00000000000E+00 0.  1.
         11    1    1    2    0    0 -0.45701017825E+02  0.69721750553E+02  0.12518912415E+02  0.84299636407E+02  0.00000000000E+00 0. -1.
</event>
<event>
 7    1  0.2522928E-009  0.1068701E+03  0.7561462E-02  0.1266478E+00
          2   -1    0    0  501    0  0.00000000000E+00  0.00000000000E+00  0.52433551650E+03  0.52433551650E+03  0.00000000000E+00 0. -1.
         -2   -1    0    0    0  501 -0.00000000000E+00 -0.00000000000E+00 -0.26120721689E+02  0.26120721689E+02  0.00000000000E+00 0.  1.
         25    2    1    2    0    0  0.32405513929E+02  0.28840346915E+02  0.22048547819E+03  0.25718459052E+03  0.12509270389E+03 0.  0.
          5    1    3    3  502    0 -0.29982930779E+02 -0.32667565328E+02  0.68485551052E+02  0.81693874100E+02  0.41800000000E+01 0. -1.
         -5    1    3    3    0  502  0.62388444708E+02  0.61507912242E+02  0.15199992714E+03  0.17549071642E+03  0.41800000000E+01 0. -1.
        -11    1    1    2    0    0  0.89685301169E+01 -0.38061137846E+02  0.61154998429E+02  0.72588005755E+02  0.00000000000E+00 0.  1.
         11    1    1    2    0    0 -0.41374044046E+02  0.92207909309E+01  0.21657431820E+03  0.22068364191E+03  0.00000000000E+00 0. -1.
</event>
<event>
 7    1  0.2522928E-009  0.1231342E+03  0.7561462E-02  0.1238014E+00
         -1   -1    0    0    0  501 -0.00000000000E+00  0.00000000000E+00  0.54154215125E+03  0.54154215125E+03  0.00000000000E+00 0.  1.
          1   -1    0    0  501    0  0.00000000000E+00 -0.00000000000E+00 -0.48346126569E+02  0.48346126569E+02  0.00000000000E+00 0. -1.
         25    2    1    2    0    0 -0.12654531323E+02 -0.95294241838E+02  0.39384831859E+03  0.42427531316E+03  0.12510760812E+03 0.  0.
          5    1    3    3  502    0 -0.15127559085E+02  0.24854693403E+01 -0.24373413096E+01  0.16075871185E+02  0.41800000000E+01 0. -1.
         -5    1    3    3    0  502  0.24730277614E+01 -0.97779711178E+02  0.39628565990E+03  0.40819944198E+03  0.41800000000E+01 0. -1.
        -11    1    1    2    0    0 -0.16353909564E+02 -0.12668118972E+02  0.14306325942E+02  0.25151591565E+02  0.00000000000E+00 0. -1.
         11    1    1    2    0    0  0.29008440887E+02  0.10796236081E+03  0.85041380147E+02  0.14046137309E+03  0.00000000000E+00 0.  1.
</event>
<event>
 7    1  0.2522928E-009  0.1146138E+03  0.7561462E-02  0.1252257E+00
          2   -1    0    0  501    0  0.00000000000E+00  0.00000000000E+00  0.11670940075E+03  0.11670940075E+03  0.00000000000E+00 0.  1.
         -2   -1    0    0    0  501 -0.00000000000E+00 -0.00000000000E+00 -0.19130533376E+03  0.19130533376E+03  0.00000000000E+00 0. -1.
         25    2    1    2    0    0  0.52507681138E+02 -0.73243929918E+02  0.16723636148E+02  0.15507720203E+03  0.12509008249E+03 0.  0.
          5    1    3    3  502    0  0.26695236189E+02 -0.96725402250E+02 -0.21971920428E+02  0.10280406978E+03  0.41800000000E+01 0.  1.
         -5    1    3    3    0  502  0.25812444950E+02  0.23481472332E+02  0.38695556576E+02  0.52273132256E+02  0.41800000000E+01 0.  1.
        -11    1    1    2    0    0 -0.18713440903E+02  0.83571568896E+01 -0.75306948871E+02  0.78045957550E+02  0.00000000000E+00 0. -1.
         11    1    1    2    0    0 -0.33794240235E+02  0.64886773029E+02 -0.16012620285E+02  0.74891574930E+02  0.00000000000E+00 0.  1.
</event>
<event>
 7    1  0.2522928E-009  0.1072571E+03  0.7561462E-02  0.1265735E+00
         -3   -1    0    0    0  501 -0.00000000000E+00  0.00000000000E+00  0.19404230341E+03  0.19404230341E+03  0.00000000000E+00 0.  1.
          3   -1    0    0  501    0  0.00000000000E+00 -0.00000000000E+00 -0.82853143524E+02  0.82853143524E+02  0.00000000000E+00 0. -1.
         25    2    1    2    0    0  0.10273464004E+02 -0.74574132636E+02  0.72871213191E+02  0.16317003875E+03  0.12508957796E+03 0.  0.
          5    1    3    3  502    0 -0.37187444321E+02 -0.82401040076E+02  0.22210529674E+02  0.93185929459E+02  0.41800000000E+01 0. -1.
         -5    1    3    3    0  502  0.47460908325E+02  0.78269074405E+01  0.50660683517E+02  0.69984109293E+02  0.41800000000E+01 0. -1.
        -11    1    1    2    0    0 -0.16344896820E+01  0.41957020865E+02  0.60282369791E+02  0.73464462593E+02  0.00000000000E+00 0.  1.
         11    1    1    2    0    0 -0.86389743220E+01  0.32617111771E+02 -0.21964423098E+02  0.40260945588E+02  0.00000000000E+00 0. -1.
</event>
<event>
 7    1  0.2522928E-009  0.1122966E+03  0.7561462E-02  0.1256375E+00
         -1   -1    0    0    0  501 -0.00000000000E+00  0.00000000000E+00  0.63345764079E+02  0.63345764079E+02  0.00000000000E+00 0.  1.
          1   -1    0    0  501    0  0.00000000000E+00 -0.00000000000E+00 -0.28714382281E+03  0.28714382281E+03  0.00000000000E+00 0. -1.
         25    2    1    2    0    0 -0.11854257244E+02  0.77988748075E+02 -0.11295688091E+03  0.18608877451E+03  0.12508799627E+03 0.  0.
          5    1    3    3  502    0 -0.40979695941E+02  0.34145023240E+02 -0.12135217004E+03  0.13262367686E+03  0.41800000000E+01 0.  1.
         -5    1    3    3    0  502  0.29125438696E+02  0.43843724836E+02  0.83952891283E+01  0.53465097646E+02  0.41800000000E+01 0.  1.
        -11    1    1    2    0    0 -0.34704612554E+02 -0.58062224814E+02 -0.81338231462E+02  0.10579007506E+03  0.00000000000E+00 0. -1.
         11    1    1    2    0    0  0.46558869799E+02 -0.19926523261E+02 -0.29502946361E+02  0.58610737328E+02  0.00000000000E+00 0.  1.
</event>
<event>
 7    1  0.2522928E-009  0.1536780E+03  0.7561462E-02  0.1196025E+00
          1   -1    0    0  501    0  0.00000000000E+00  0.00000000000E+00  0.52733799691E+03  0.52733799691E+03  0.00000000000E+00 0. -1.
         -1   -1    0    0    0  501 -0.00000000000E+00 -0.00000000000E+00 -0.53558717295E+02  0.53558717295E+02  0.00000000000E+00 0.  1.
         25    2    1    2    0    0  0.10771418508E+03  0.47893238244E+02  0.33427017196E+03  0.37587381702E+03  0.12509384686E+03 0.  0.
          5    1    3    3  502    0 -0.19905582856E+02  0.21774184651E+02  0.20655999677E+02  0.36255897020E+02  0.41800000000E+01 0. -1.
         -5    1    3    3    0  502  0.12761976793E+03  0.26119053592E+02  0.31361417228E+03  0.33961792000E+03  0.41800000000E+01 0. -1.
        -11    1    1    2    0    0 -0.69966143497E+02 -0.73606437342E+02  0.11413478191E+03  0.15277407272E+03  0.00000000000E+00 0.  1.
         11    1    1    2    0    0 -0.37748041579E+02  0.25713199098E+02  0.25374325742E+02  0.52248824463E+02  0.00000000000E+00 0. -1.
</event>
<event>
 7    1  0.2522928E-009  0.1350038E+03  0.7561462E-02  0.1220214E+00
         -2   -1    0    0    0  501 -0.00000000000E+00  0.00000000000E+00  0.64196173552E+02  0.64196173552E+02  0.00000000000E+00 0.  1.
          2   -1    0    0  501    0  0.00000000000E+00 -0.00000000000E+00 -0.33490970130E+03  0.33490970130E+03  0.00000000000E+00 0. -1.
         25    2    1    2    0    0  0.35560640334E+02 -0.93537792094E+02 -0.14529448276E+03  0.21624663766E+03  0.12505296434E+03 0.  0.
          5    1    3    3  502    0 -0.10939678567E+02 -0.10772708433E+03 -0.11850811439E+03  0.16058158936E+03  0.41800000000E+01 0. -1.
         -5    1    3    3    0  502  0.46500318902E+02  0.14189292237E+02 -0.26786368367E+02  0.55665048302E+02  0.41800000000E+01 0. -1.
        -11    1    1    2    0    0 -0.33309748497E+02  0.19139242792E+02 -0.16738166380E+01  0.38453239417E+02  0.00000000000E+00 0.  1.
         11    1    1    2    0    0 -0.22508918376E+01  0.74398549302E+02 -0.12374522835E+03  0.14440599777E+03  0.00000000000E+00 0. -1.
</event>
<event>
 7    1  0.2688300E-009  0.1234762E+03  0.7561462E-02  0.1237470E+00
          1   -1    0    0  501    0  0.00000000000E+00  0.00000000000E+00  0.36602012615E+03  0.36602012615E+03  0.00000000000E+00 0. -1.
         -1   -1    0    0    0  501 -0.00000000000E+00 -0.00000000000E+00 -0.58073101786E+02  0.58073101786E+02  0.00000000000E+00 0.  1.
         25    2    1    2    0    0 -0.14370109307E+02  0.81682165605E+02  0.23866099167E+03  0.28191212871E+03  0.12504760353E+03 0.  0.
          5    1    3    3  502    0  0.25105156670E+02  0.90940193271E+02  0.10068446698E+03  0.13804065319E+03  0.41800000000E+01 0. -1.
         -5    1    3    3    0  502 -0.39475265977E+02 -0.92580276656E+01  0.13797652469E+03  0.14387147551E+03  0.41800000000E+01 0. -1.
        -11    1    1    2    0    0 -0.30372037232E+02 -0.23733660886E+02  0.55674013007E+02  0.67715160998E+02  0.00000000000E+00 0. -1.
         11    1    1    2    0    0  0.44742146539E+02 -0.57948504719E+02  0.13612019681E+02  0.74465938226E+02  0.00000000000E+00 0.  1.
</event>
<event>
 7    1  0.2522928E-009  0.1051800E+03  0.7561462E-02  0.1269765E+00
          1   -1    0    0  501    0  0.00000000000E+00  0.00000000000E+00  0.51579800135E+03  0.51579800135E+03  0.00000000000E+00 0. -1.
         -1   -1    0    0    0  501 -0.00000000000E+00 -0.00000000000E+00 -0.28186721772E+02  0.28186721772E+02  0.00000000000E+00 0.  1.
         25    2    1    2    0    0 -0.21201916246E+02  0.44828785385E+02  0.29664513397E+03  0.32573952188E+03  0.12509500133E+03 0.  0.
          5    1    3    3  502    0  0.49542222172E+02  0.37804328682E+02  0.12005044976E+03  0.13532620564E+03  0.41800000000E+01 0. -1.
         -5    1    3    3    0  502 -0.70744138418E+02  0.70244567029E+01  0.17659468421E+03  0.19041331624E+03  0.41800000000E+01 0. -1.
        -11    1    1    2    0    0 -0.76000528174E+01  0.11289226521E+02 -0.32929044957E+01  0.14001809107E+02  0.00000000000E+00 0.  1.
         11    1    1    2    0    0  0.28801969064E+02 -0.56118011906E+02  0.19425905011E+03  0.20424339213E+03  0.00000000000E+00 0. -1.
</event>
<event>
 7    1  0.2522928E-009  0.1130575E+03  0.7561462E-02  0.1255010E+00
          4   -1    0    0  501    0  0.00000000000E+00  0.00000000000E+00  0.29765922884E+02  0.29765922884E+02  0.00000000000E+00 0. -1.
         -4   -1    0    0    0  501 -0.00000000000E+00 -0.00000000000E+00 -0.58381484133E+03  0.58381484133E+03  0.00000000000E+00 0.  1.
         25    2    1    2    0    0 -0.73459032596E+02 -0.14299050789E+02 -0.27669892425E+03  0.31274658985E+03  0.12508973763E+03 0.  0.
          5    1    3    3  502    0 -0.40349412208E+02  0.49980990005E+02 -0.18509792163E+03  0.19597164952E+03  0.41800000000E+01 0.  1.
         -5    1    3    3    0  502 -0.33109620388E+02 -0.64280040793E+02 -0.91601002624E+02  0.11677494033E+03  0.41800000000E+01 0.  1.
        -11    1    1    2    0    0  0.41637204189E+02 -0.16728689253E+02 -0.42461205562E+02  0.61777502334E+02  0.00000000000E+00 0. -1.
         11    1    1    2    0    0  0.31821828407E+02  0.31027740041E+02 -0.23488878863E+03  0.23905667203E+03  0.00000000000E+00 0.  1.
</event>
<event>
 7    1  0.2522928E-009  0.9533029E+02  0.7561462E-02  0.1290434E+00
          3   -1    0    0  501    0  0.00000000000E+00  0.00000000000E+00  0.90346065099E+03  0.90346065099E+03  0.00000000000E+00 0. -1.
         -3   -1    0    0    0  501 -0.00000000000E+00 -0.00000000000E+00 -0.18034063262E+02  0.18034063262E+02  0.00000000000E+00 0.  1.
         25    2    1    2    0    0  0.44235957083E+02 -0.20146376473E+02  0.65310312036E+03  0.66674944588E+03  0.12509373037E+03 0.  0.
          5    1    3    3  502    0  0.65617104964E+02 -0.71049271596E+01  0.16184025558E+03  0.17483084734E+03  0.41800000000E+01 0. -1.
         -5    1    3    3    0  502 -0.21381147882E+02 -0.13041449313E+02  0.49126286478E+03  0.49191859854E+03  0.41800000000E+01 0. -1.
        -11    1    1    2    0    0 -0.48744554674E+02  0.49480810236E+02  0.19536758248E+03  0.20734723166E+03  0.00000000000E+00 0. -1.
         11    1    1    2    0    0  0.45085975913E+01 -0.29334433763E+02  0.36955884893E+02  0.47398036717E+02  0.00000000000E+00 0.  1.
</event>
<event>
 7    1  0.2522928E-009  0.1015994E+03  0.7561462E-02  0.1276968E+00
          2   -1    0    0  501    0  0.00000000000E+00  0.00000000000E+00  0.47322434850E+03  0.47322434850E+03  0.00000000000E+00 0. -1.
         -2   -1    0    0    0  501 -0.00000000000E+00 -0.00000000000E+00 -0.42146700642E+02  0.42146700642E+02  0.00000000000E+00 0.  1.
         25    2    1    2    0    0  0.45522251217E+02  0.12967100915E+02  0.37409609167E+03  0.39728551784E+03  0.12508987097E+03 0.  0.
          5    1    3    3  502    0  0.71749084613E+02 -0.17434885394E+02  0.32698834143E+03  0.33524730305E+03  0.41800000000E+01 0.  1.
         -5    1    3    3    0  502 -0.26226833395E+02  0.30401986309E+02  0.47107750241E+02  0.62038214789E+02  0.41800000000E+01 0.  1.
        -11    1    1    2    0    0 -0.48879785209E+02 -0.39058748187E+02  0.65356182970E+02  0.90477897104E+02  0.00000000000E+00 0. -1.
         11    1    1    2    0    0  0.33575339921E+01  0.26091647272E+02 -0.83746267888E+01  0.27607634193E+02  0.00000000000E+00 0.  1.
</event>
<event>
 7    1  0.2522928E-009  0.1793957E+03  0.7561462E-02  0.1168389E+00
         -2   -1    0    0    0  501 -0.00000000000E+00  0.00000000000E+00  0.60912028418E+03  0.60912028418E+03  0.00000000000E+00 0.  1.
          2   -1    0    0  501    0  0.00000000000E+00 -0.00000000000E+00 -0.68132237166E+02  0.68132237166E+02  0.00000000000E+00 0. -1.
         25    2    1    2    0    0  0.16536397126E+03 -0.16982428229E+02  0.20999132513E+03  0.29560246494E+03  0.12510321653E+03 0.  0.
          5    1    3    3  502    0  0.53281605820E+01 -0.55235201716E+01  0.10149717849E+03  0.10187270592E+03  0.41800000000E+01 0. -1.
         -5    1    3    3    0  502  0.16003581068E+03 -0.11458908057E+02  0.10849414665E+03  0.19372975902E+03  0.41800000000E+01 0. -1.
        -11    1    1    2    0    0 -0.11150450624E+03  0.54304786110E+02  0.22871553224E+03  0.26017889883E+03  0.00000000000E+00 0.  1.
         11    1    1    2    0    0 -0.53859465021E+02 -0.37322357881E+02  0.10228118964E+03  0.12147115758E+03  0.00000000000E+00 0. -1.
</event>
<event>
 7    1  0.2522928E-009  0.1162432E+03  0.7561462E-02  0.1249427E+00
          2   -1    0    0  501    0  0.00000000000E+00  0.00000000000E+00  0.16503162273E+03  0.16503162273E+03  0.00000000000E+00 0. -1.
         -2   -1    0    0    0  501 -0.00000000000E+00 -0.00000000000E+00 -0.11107179896E+03  0.11107179896E+03  0.00000000000E+00 0.  1.
         25    2    1    2    0    0  0.23147723924E+02 -0.77026802128E+02  0.36867165144E+02  0.15321785187E+03  0.12509027499E+03 0.  0.
          5    1    3    3  502    0  0.65899882083E+02 -0.18698697237E+02 -0.62585549263E+01  0.68913551982E+02  0.41800000000E+01 0.  1.
         -5    1    3    3    0  502 -0.42752158159E+02 -0.58328104891E+02  0.43125720070E+02  0.84304299885E+02  0.41800000000E+01 0.  1.
        -11    1    1    2    0    0  0.65887179245E+01  0.52388982189E+02 -0.30983128108E+02  0.61220673682E+02  0.00000000000E+00 0.  1.
         11    1    1    2    0    0 -0.29736441848E+02  0.24637819939E+02  0.48075786738E+02  0.61664896137E+02  0.00000000000E+00 0. -1.
</event>
<event>
 7    1  0.2522928E-009  0.2128675E+03  0.7561462E-02  0.1139315E+00
         -2   -1    0    0    0  501 -0.00000000000E+00  0.00000000000E+00  0.96577627190E+02  0.96577627190E+02  0.00000000000E+00 0.  1.
          2   -1    0    0  501    0  0.00000000000E+00 -0.00000000000E+00 -0.60316626390E+03  0.60316626390E+03  0.00000000000E+00 0. -1.
         25    2    1    2    0    0  0.16883350491E+03 -0.12262097194E+03 -0.18500609897E+03  0.30564018735E+03  0.12509201545E+03 0.  0.
          5    1    3    3  502    0  0.14644956851E+03 -0.12349906048E+03 -0.20107585129E+03  0.27775612402E+03  0.41800000000E+01 0. -1.
         -5    1    3    3    0  502  0.22383936398E+02  0.87808854255E+00  0.16069752325E+02  0.27884063333E+02  0.41800000000E+01 0. -1.
        -11    1    1    2    0    0 -0.10978106225E+03  0.59404004158E+02 -0.11331850297E+03  0.16858766400E+03  0.00000000000E+00 0.  1.
         11    1    1    2    0    0 -0.59052442660E+02  0.63216967781E+02 -0.20826403477E+03  0.22551603974E+03  0.00000000000E+00 0. -1.
</event>
<event>
 7    1  0.2522928E-009  0.1460091E+03  0.7561462E-02  0.1205464E+00
          1   -1    0    0  501    0  0.00000000000E+00  0.00000000000E+00  0.36348050825E+03  0.36348050825E+03  0.00000000000E+00 0. -1.
         -1   -1    0    0    0  501 -0.00000000000E+00 -0.00000000000E+00 -0.85402457707E+02  0.85402457707E+02  0.00000000000E+00 0.  1.
         25    2    1    2    0    0  0.90403707123E+02  0.10394607029E+03  0.16814663928E+03  0.25079755400E+03  0.12509398469E+03 0.  0.
          5    1    3    3  502    0  0.94143653032E+02  0.10978265337E+03  0.18335851558E+03  0.23356599928E+03  0.41800000000E+01 0.  1.
         -5    1    3    3    0  502 -0.37399459089E+01 -0.58365830826E+01 -0.15211876301E+02  0.17231554720E+02  0.41800000000E+01 0.  1.
        -11    1    1    2    0    0 -0.52561492801E+02 -0.44994226583E+02  0.10768478948E+03  0.12799689385E+03  0.00000000000E+00 0. -1.
         11    1    1    2    0    0 -0.37842214322E+02 -0.58951843702E+02  0.22466217941E+01  0.70088518105E+02  0.00000000000E+00 0.  1.
</event>
<event>
 7    1  0.2522928E-009  0.7284916E+02  0.7561462E-02  0.1350664E+00
         -2   -1    0    0    0  501 -0.00000000000E+00  0.00000000000E+00  0.19997446781E+02  0.19997446781E+02  0.00000000000E+00 0. -1.
          2   -1    0    0  501    0  0.00000000000E+00 -0.00000000000E+00 -0.73723280847E+03  0.73723280847E+03  0.00000000000E+00 0.  1.
         25    2    1    2    0    0  0.16891477538E+02 -0.37518973761E+02 -0.49944790277E+03  0.51651669739E+03  0.12509314809E+03 0.  0.
          5    1    3    3  502    0 -0.89145074816E+01 -0.12187825558E+02  0.76088084899E-01  0.15668111720E+02  0.41800000000E+01 0. -1.
         -5    1    3    3    0  502  0.25805985020E+02 -0.25331148204E+02 -0.49952399085E+03  0.50084858567E+03  0.41800000000E+01 0. -1.
        -11    1    1    2    0    0 -0.41046550651E+02  0.51392881910E+02 -0.19123587936E+03  0.20223058420E+03  0.00000000000E+00 0.  1.
         11    1    1    2    0    0  0.24155073113E+02 -0.13873908149E+02 -0.26551579562E+02  0.38482973659E+02  0.00000000000E+00 0. -1.
</event>
<event>
 7    1  0.2522928E-009  0.1641994E+03  0.7561462E-02  0.1184036E+00
         -3   -1    0    0    0  501 -0.00000000000E+00  0.00000000000E+00  0.23033712371E+03  0.23033712371E+03  0.00000000000E+00 0.  1.
          3   -1    0    0  501    0  0.00000000000E+00 -0.00000000000E+00 -0.22364827480E+03  0.22364827480E+03  0.00000000000E+00 0. -1.
         25    2    1    2    0    0 -0.15129447161E+03 -0.55069896096E+01 -0.11979625269E+03  0.23004206392E+03  0.12509142632E+03 0.  0.
          5    1    3    3  502    0 -0.16293104861E+03 -0.83041122796E+01 -0.13388608980E+03  0.21108870724E+03  0.41800000000E+01 0. -1.
         -5    1    3    3    0  502  0.11636577002E+02  0.27971226700E+01  0.14089837112E+02  0.18953356679E+02  0.41800000000E+01 0. -1.
        -11    1    1    2    0    0  0.12109857933E+02  0.55976592125E+01  0.73997980642E+02  0.75190980755E+02  0.00000000000E+00 0.  1.
         11    1    1    2    0    0  0.13918461367E+03 -0.90669602955E-01  0.52487120952E+02  0.14875235383E+03  0.00000000000E+00 0. -1.
</event>
<event>
 7    1  0.2522928E-009  0.1273377E+03  0.7561462E-02  0.1231460E+00
          1   -1    0    0  501    0  0.00000000000E+00  0.00000000000E+00  0.34003104786E+02  0.34003104786E+02  0.00000000000E+00 0. -1.
         -1   -1    0    0    0  501 -0.00000000000E+00 -0.00000000000E+00 -0.79664177288E+03  0.79664177288E+03  0.00000000000E+00 0.  1.
         25    2    1    2    0    0  0.77367652412E+02  0.80170945154E+02 -0.26523619313E+03  0.31370621806E+03  0.12509284157E+03 0.  0.
          5    1    3    3  502    0  0.87491645463E+01  0.22656228026E+02  0.81855755034E+01  0.25967837702E+02  0.41800000000E+01 0. -1.
         -5    1    3    3    0  502  0.68618487865E+02  0.57514717128E+02 -0.27342176864E+03  0.28773838035E+03  0.41800000000E+01 0. -1.
        -11    1    1    2    0    0 -0.89158584708E+02 -0.88763144117E+02 -0.43317993788E+03  0.45107982393E+03  0.00000000000E+00 0. -1.
         11    1    1    2    0    0  0.11790932296E+02  0.85921989627E+01 -0.64222537079E+02  0.65858835674E+02  0.00000000000E+00 0.  1.
</event>
<event>
 7    1  0.2522928E-009  0.1730287E+03  0.7561462E-02  0.1174726E+00
         -1   -1    0    0    0  501 -0.00000000000E+00  0.00000000000E+00  0.23294730553E+03  0.23294730553E+03  0.00000000000E+00 0.  1.
          1   -1    0    0  501    0  0.00000000000E+00 -0.00000000000E+00 -0.14344397104E+03  0.14344397104E+03  0.00000000000E+00 0. -1.
         25    2    1    2    0    0 -0.13094042444E+03  0.52219620319E+02  0.88301712207E+02  0.20812758850E+03  0.12509043615E+03 0.  0.
          5    1    3    3  502    0 -0.12026590456E+03 -0.13870922445E+02  0.51618110697E+02  0.13167456869E+03  0.41800000000E+01 0.  1.
         -5    1    3    3    0  502 -0.10674519883E+02  0.66090542764E+02  0.36683601509E+02  0.76453019805E+02  0.41800000000E+01 0.  1.
        -11    1    1    2    0    0  0.64646376931E+02  0.11766313030E+02  0.29290053264E+02  0.71940999387E+02  0.00000000000E+00 0.  1.
         11    1    1    2    0    0  0.66294047508E+02 -0.63985933349E+02 -0.28088430984E+02  0.96322688691E+02  0.00000000000E+00 0. -1.
</event>
<event>
 7    1  0.2522928E-009  0.1991937E+03  0.7561462E-02  0.1150421E+00
         -1   -1    0    0    0  501 -0.00000000000E+00  0.00000000000E+00  0.70405840437E+02  0.70405840437E+02  0.00000000000E+00 0.  1.
          1   -1    0    0  501    0  0.00000000000E+00 -0.00000000000E+00 -0.59293409408E+03  0.59293409408E+03  0.00000000000E+00 0. -1.
         25    2    1    2    0    0  0.28496069763E+02  0.16605591446E+03 -0.21223141158E+03  0.29845915115E+03  0.12509636336E+03 0.  0.
          5    1    3    3  502    0 -0.23756396248E+02 -0.98439118553E+01 -0.31380200589E+02  0.40785516453E+02  0.41800000000E+01 0. -1.
         -5    1    3    3    0  502  0.52252466010E+02  0.17589982631E+03 -0.18085121099E+03  0.25767363470E+03  0.41800000000E+01 0. -1.
        -11    1    1    2    0    0  0.29717605417E+02 -0.75491011446E+02 -0.16683006593E+03  0.18551091552E+03  0.00000000000E+00 0.  1.
         11    1    1    2    0    0 -0.58213675180E+02 -0.90564903012E+02 -0.14346677613E+03  0.17936986784E+03  0.00000000000E+00 0. -1.
</event>
<event>
 7    1  0.2522928E-009  0.1355113E+03  0.7561462E-02  0.1219500E+00
         -2   -1    0    0    0  501 -0.00000000000E+00  0.00000000000E+00  0.22238043998E+03  0.22238043998E+03  0.00000000000E+00 0. -1.
          2   -1    0    0  501    0  0.00000000000E+00 -0.00000000000E+00 -0.10744034940E+03  0.10744034940E+03  0.00000000000E+00 0.  1.
         25    2    1    2    0    0  0.66096261868E+02  0.86214990913E+02  0.42112743101E+02  0.17094593618E+03  0.12508912613E+03 0.  0.
          5    1    3    3  502    0  0.98169718018E+02  0.70826951224E+02  0.54802916277E+02  0.13294578815E+03  0.41800000000E+01 0.  1.
         -5    1    3    3    0  502 -0.32073456151E+02  0.15388039690E+02 -0.12690173177E+02  0.38000148029E+02  0.41800000000E+01 0.  1.
        -11    1    1    2    0    0 -0.46447301917E+02 -0.81603725102E+02  0.91698071299E+02  0.13124426115E+03  0.00000000000E+00 0. -1.
         11    1    1    2    0    0 -0.19648959950E+02 -0.46112658111E+01 -0.18870723810E+02  0.27630592043E+02  0.00000000000E+00 0.  1.
</event>
<event>
 7    1  0.2522928E-009  0.1103304E+03  0.7561462E-02  0.1259959E+00
         -2   -1    0    0    0  501 -0.00000000000E+00  0.00000000000E+00  0.33975632241E+02  0.33975632241E+02  0.00000000000E+00 0. -1.
          2   -1    0    0  501    0  0.00000000000E+00 -0.00000000000E+00 -0.36306656994E+03  0.36306656994E+03  0.00000000000E+00 0.  1.
         25    2    1    2    0    0 -0.26247567452E+02  0.24872466598E+02 -0.19244687579E+03  0.23235988148E+03  0.12509092744E+03 0.  0.
          5    1    3    3  502    0 -0.30455322210E+02  0.73886833140E+02 -0.13134078572E+03  0.15380073197E+03  0.41800000000E+01 0.  1.
         -5    1    3    3    0  502  0.42077547575E+01 -0.49014366542E+02 -0.61106090067E+02  0.78559149504E+02  0.41800000000E+01 0.  1.
        -11    1    1    2    0    0  0.57021066603E+02 -0.16898295067E+02 -0.98105113298E+02  0.11472387575E+03  0.00000000000E+00 0.  1.
         11    1    1    2    0    0 -0.30773499150E+02 -0.79741715314E+01 -0.38538948617E+02  0.49958444952E+02  0.00000000000E+00 0. -1.
</event>
<event>
 7    1  0.2522928E-009  0.2407080E+03  0.7561462E-02  0.1119322E+00
          1   -1    0    0  501    0  0.00000000000E+00  0.00000000000E+00  0.96844002175E+03  0.96844002175E+03  0.00000000000E+00 0. -1.
         -1   -1    0    0    0  501 -0.00000000000E+00 -0.00000000000E+00 -0.62370696708E+02  0.62370696708E+02  0.00000000000E+00 0.  1.
         25    2    1    2    0    0 -0.14079257355E+03  0.16319602124E+03  0.37484167462E+03  0.45012146697E+03  0.12509022297E+03 0.  0.
          5    1    3    3  502    0 -0.15666257286E+02  0.10949785856E+03  0.13813356490E+03  0.17701290009E+03  0.41800000000E+01 0.  1.
         -5    1    3    3    0  502 -0.12512631626E+03  0.53698162676E+02  0.23670810973E+03  0.27310856688E+03  0.41800000000E+01 0.  1.
        -11    1    1    2    0    0  0.12081629489E+03 -0.70939569957E+02  0.32079503386E+03  0.35005492919E+03  0.00000000000E+00 0.  1.
         11    1    1    2    0    0  0.19976278655E+02 -0.92256451279E+02  0.21043261656E+03  0.23063432230E+03  0.00000000000E+00 0. -1.
</event>
<event>
 7    1  0.2522928E-009  0.8556716E+02  0.7561462E-02  0.1313956E+00
         -1   -1    0    0    0  501 -0.00000000000E+00  0.00000000000E+00  0.65424339769E+03  0.65424339769E+03  0.00000000000E+00 0.  1.
          1   -1    0    0  501    0  0.00000000000E+00 -0.00000000000E+00 -0.23020265943E+02  0.23020265943E+02  0.00000000000E+00 0. -1.
         25    2    1    2    0    0  0.79613676933E+02 -0.81811236283E+01  0.49547168309E+03  0.51724794470E+03  0.12509188311E+03 0.  0.
          5    1    3    3  502    0  0.36881547993E+02 -0.19788389866E+02  0.35245509529E+02  0.54877566435E+02  0.41800000000E+01 0.  1.
         -5    1    3    3    0  502  0.42732128940E+02  0.11607266238E+02  0.46022617356E+03  0.46237037827E+03  0.41800000000E+01 0.  1.
        -11    1    1    2    0    0 -0.30233343081E+02 -0.10193794642E+02  0.47107764898E+02  0.56895606129E+02  0.00000000000E+00 0. -1.
         11    1    1    2    0    0 -0.49380333853E+02  0.18374918270E+02  0.88643683760E+02  0.10312011280E+03  0.00000000000E+00 0.  1.
</event>
<event>
 7    1  0.2522928E-009  0.1553831E+03  0.7561462E-02  0.1194010E+00
          1   -1    0    0  501    0  0.00000000000E+00  0.00000000000E+00  0.21956090270E+04  0.21956090270E+04  0.00000000000E+00 0. -1.
         -1   -1    0    0    0  501 -0.00000000000E+00 -0.00000000000E+00 -0.14582473789E+02  0.14582473789E+02  0.00000000000E+00 0.  1.
         25    2    1    2    0    0  0.57441670580E+02 -0.10860859317E+03  0.16143755640E+04  0.16238689901E+04  0.12508662400E+03 0.  0.
          5    1    3    3  502    0 -0.24877411121E+02 -0.17235424180E+01  0.88671277883E+02  0.92205878901E+02  0.41800000000E+01 0.  1.
         -5    1    3    3    0  502  0.82319081701E+02 -0.10688505076E+03  0.15257042861E+04  0.15316631112E+04  0.41800000000E+01 0.  1.
        -11    1    1    2    0    0  0.12903669980E+02  0.68139432055E+02  0.25073641868E+03  0.26015041525E+03  0.00000000000E+00 0.  1.
         11    1    1    2    0    0 -0.70345340560E+02  0.40469161119E+02  0.31591457058E+03  0.32617209544E+03  0.00000000000E+00 0. -1.
</event>
<event>
 7    1  0.2522928E-009  0.3304492E+03  0.7561462E-02  0.1070938E+00
         -2   -1    0    0    0  501 -0.00000000000E+00  0.00000000000E+00  0.10396587723E+04  0.10396587723E+04  0.00000000000E+00 0.  1.
          2   -1    0    0  501    0  0.00000000000E+00 -0.00000000000E+00 -0.11208310979E+03  0.11208310979E+03  0.00000000000E+00 0. -1.
         25    2    1    2    0    0  0.44060022374E+01 -0.32342629478E+03  0.45620726621E+03  0.57305867860E+03  0.12508876192E+03 0.  0.
          5    1    3    3  502    0 -0.42284008743E+02 -0.20447981977E+03  0.21306783161E+03  0.29835433189E+03  0.41800000000E+01 0. -1.
         -5    1    3    3    0  502  0.46690010981E+02 -0.11894647501E+03  0.24313943460E+03  0.27470434671E+03  0.41800000000E+01 0. -1.
        -11    1    1    2    0    0  0.39237188798E+01  0.11281480340E+02  0.65584773649E+02  0.66663557534E+02  0.00000000000E+00 0.  1.
         11    1    1    2    0    0 -0.83297211171E+01  0.31214481444E+03  0.40578362260E+03  0.51201964592E+03  0.00000000000E+00 0. -1.
</event>
<event>
 7    1  0.2522928E-009  0.1657232E+03  0.7561462E-02  0.1182383E+00
         -2   -1    0    0    0  501 -0.00000000000E+00  0.00000000000E+00  0.10558353118E+03  0.10558353118E+03  0.00000000000E+00 0.  1.
          2   -1    0    0  501    0  0.00000000000E+00 -0.00000000000E+00 -0.93702721653E+03  0.93702721653E+03  0.00000000000E+00 0. -1.
         25    2    1    2    0    0  0.12250196165E+03 -0.74685233562E+02 -0.84842842932E+03  0.86951890538E+03  0.12509081665E+03 0.  0.
          5    1    3    3  502    0 -0.18294087087E+02  0.91304009216E+01 -0.18364579580E+03  0.18482772671E+03  0.41800000000E+01 0.  1.
         -5    1    3    3    0  502  0.14079604874E+03 -0.83815634483E+02 -0.66478263352E+03  0.68469117867E+03  0.41800000000E+01 0.  1.
        -11    1    1    2    0    0 -0.63341163509E+02  0.56222481767E+02  0.54436567715E+02  0.10067974153E+03  0.00000000000E+00 0. -1.
         11    1    1    2    0    0 -0.59160798143E+02  0.18462751795E+02 -0.37451823745E+02  0.72412100802E+02  0.00000000000E+00 0.  1.
</event>
<event>
 7    1  0.2522928E-009  0.9902555E+02  0.7561462E-02  0.1282359E+00
          1   -1    0    0  501    0  0.00000000000E+00  0.00000000000E+00  0.34085785055E+02  0.34085785055E+02  0.00000000000E+00 0. -1.
         -1   -1    0    0    0  501 -0.00000000000E+00 -0.00000000000E+00 -0.34806035594E+03  0.34806035594E+03  0.00000000000E+00 0.  1.
         25    2    1    2    0    0  0.12322167708E+02 -0.39576514101E+01 -0.15658275774E+03  0.20082244278E+03  0.12507595564E+03 0.  0.
          5    1    3    3  502    0  0.47278421927E+02  0.39524376703E+02 -0.46409219201E+02  0.77257449871E+02  0.41800000000E+01 0. -1.
         -5    1    3    3    0  502 -0.34956254219E+02 -0.43482028113E+02 -0.11017353854E+03  0.12356499291E+03  0.41800000000E+01 0. -1.
        -11    1    1    2    0    0 -0.12109778201E+02  0.41278169225E+02 -0.12398227737E+03  0.13123314781E+03  0.00000000000E+00 0.  1.
         11    1    1    2    0    0 -0.21238950771E+00 -0.37320517815E+02 -0.33409535773E+02  0.50090550404E+02  0.00000000000E+00 0. -1.
</event>
<event>
 7    1  0.2522928E-009  0.1217452E+03  0.7561462E-02  0.1240246E+00
         -2   -1    0    0    0  501 -0.00000000000E+00  0.00000000000E+00  0.36512286599E+02  0.36512286599E+02  0.00000000000E+00 0.  1.
          2   -1    0    0  501    0  0.00000000000E+00 -0.00000000000E+00 -0.64827187105E+03  0.64827187105E+03  0.00000000000E+00 0. -1.
         25    2    1    2    0    0  0.88887169260E+02 -0.24518847068E+02 -0.46065978893E+03  0.48616331524E+03  0.12508087475E+03 0.  0.
          5    1    3    3  502    0  0.16812120096E+01  0.33922620255E+02 -0.23215330396E+03  0.23466188352E+03  0.41800000000E+01 0.  1.
         -5    1    3    3    0  502  0.87205957250E+02 -0.58441467322E+02 -0.22850648497E+03  0.25150143172E+03  0.41800000000E+01 0.  1.
        -11    1    1    2    0    0 -0.38251632760E+02 -0.13846619070E+02 -0.71881175026E+01  0.41310837581E+02  0.00000000000E+00 0.  1.
         11    1    1    2    0    0 -0.50635536500E+02  0.38365466137E+02 -0.14391167802E+03  0.15731000482E+03  0.00000000000E+00 0. -1.
</event>
<event>
 7    1  0.2522928E-009  0.1406373E+03  0.7561462E-02  0.1212474E+00
         -2   -1    0    0    0  501 -0.00000000000E+00  0.00000000000E+00  0.89564350368E+02  0.89564350368E+02  0.00000000000E+00 0.  1.
          2   -1    0    0  501    0  0.00000000000E+00 -0.00000000000E+00 -0.25359723456E+03  0.25359723456E+03  0.00000000000E+00 0. -1.
         25    2    1    2    0    0  0.49645798442E+02 -0.80918776507E+02 -0.39479687055E+02  0.16191918158E+03  0.12508645802E+03 0.  0.
          5    1    3    3  502    0 -0.44081616212E+01  0.27644195570E+02 -0.28353282121E+02  0.40062631524E+02  0.41800000000E+01 0.  1.
         -5    1    3    3    0  502  0.54053960063E+02 -0.10856297208E+03 -0.11126404933E+02  0.12185655006E+03  0.41800000000E+01 0.  1.
        -11    1    1    2    0    0 -0.33270413264E+02  0.10063581629E+03 -0.98497980925E+02  0.14469395345E+03  0.00000000000E+00 0.  1.
         11    1    1    2    0    0 -0.16375385178E+02 -0.19717039788E+02 -0.26055216208E+02  0.36548449890E+02  0.00000000000E+00 0. -1.
</event>
<event>
 7    1  0.2522928E-009  0.1717672E+03  0.7561462E-02  0.1176017E+00
         -2   -1    0    0    0  501 -0.00000000000E+00  0.00000000000E+00  0.81519347795E+02  0.81519347795E+02  0.00000000000E+00 0.  1.
          2   -1    0    0  501    0  0.00000000000E+00 -0.00000000000E+00 -0.56011867573E+03  0.56011867573E+03  0.00000000000E+00 0. -1.
         25    2    1    2    0    0  0.14131334861E+03  0.34306043734E+02 -0.42743450864E+03  0.46850029323E+03  0.12508356586E+03 0.  0.
          5    1    3    3  502    0  0.32654132647E+02  0.68639493444E+02 -0.14173738618E+03  0.16088701464E+03  0.41800000000E+01 0. -1.
         -5    1    3    3    0  502  0.10865921596E+03 -0.34333449710E+02 -0.28569712246E+03  0.30761327859E+03  0.41800000000E+01 0. -1.
        -11    1    1    2    0    0 -0.68873291995E+02  0.82444963066E+01 -0.55762046238E+02  0.88999482416E+02  0.00000000000E+00 0.  1.
         11    1    1    2    0    0 -0.72440056614E+02 -0.42550540040E+02  0.45972269445E+01  0.84138247876E+02  0.00000000000E+00 0. -1.
</event>
<event>
 7    1  0.2522928E-009  0.7934151E+02  0.7561462E-02  0.1330931E+00
          3   -1    0    0  501    0  0.00000000000E+00  0.00000000000E+00  0.95089781328E+02  0.95089781328E+02  0.00000000000E+00 0. -1.
         -3   -1    0    0    0  501 -0.00000000000E+00 -0.00000000000E+00 -0.14194476813E+03  0.14194476813E+03  0.00000000000E+00 0.  1.
         25    2    1    2    0    0  0.21614855550E+02  0.39886512099E+02 -0.31727418613E+02  0.13679163208E+03  0.12508871127E+03 0.  0.
          5    1    3    3  502    0  0.30336451480E+02  0.62392765773E+02  0.25901681974E+02  0.74172279446E+02  0.41800000000E+01 0.  1.
         -5    1    3    3    0  502 -0.87215959301E+01 -0.22506253674E+02 -0.57629100587E+02  0.62619352636E+02  0.41800000000E+01 0.  1.
        -11    1    1    2    0    0  0.14645708335E+02 -0.12215285755E+02 -0.42824854895E+02  0.46879400332E+02  0.00000000000E+00 0.  1.
         11    1    1    2    0    0 -0.36260563885E+02 -0.27671226344E+02  0.27697286704E+02  0.53363517045E+02  0.00000000000E+00 0. -1.
</event>
<event>
 7    1  0.6887344E-009  0.2573154E+03  0.7561462E-02  0.1108767E+00
         -2   -1    0    0    0  501 -0.00000000000E+00  0.00000000000E+00  0.92999214915E+02  0.92999214915E+02  0.00000000000E+00 0. -1.
          2   -1    0    0  501    0  0.00000000000E+00 -0.00000000000E+00 -0.80034886028E+03  0.80034886028E+03  0.00000000000E+00 0.  1.
         25    2    1    2    0    0 -0.15690222030E+03 -0.19456019321E+03 -0.36889577291E+03  0.46282146645E+03  0.12509053930E+03 0.  0.
          5    1    3    3  502    0 -0.13154130124E+03 -0.11755213190E+03 -0.15808102946E+03  0.23691496770E+03  0.41800000000E+01 0. -1.
         -5    1    3    3    0  502 -0.25360919057E+02 -0.77008061310E+02 -0.21081474345E+03  0.22590649875E+03  0.41800000000E+01 0. -1.
        -11    1    1    2    0    0  0.11473022886E+03  0.95341490410E+02 -0.24977971133E+03  0.29093457925E+03  0.00000000000E+00 0.  1.
         11    1    1    2    0    0  0.42171991441E+02  0.99218702803E+02 -0.88674161124E+02  0.13959202950E+03  0.00000000000E+00 0. -1.
</event>
<event>
 7    1  0.2522928E-009  0.3003082E+03  0.7561462E-02  0.1085087E+00
          2   -1    0    0  501    0  0.00000000000E+00  0.00000000000E+00  0.88926606426E+03  0.88926606426E+03  0.00000000000E+00 0.  1.
         -2   -1    0    0    0  501 -0.00000000000E+00 -0.00000000000E+00 -0.11159939338E+03  0.11159939338E+03  0.00000000000E+00 0. -1.
         25    2    1    2    0    0 -0.27662934404E+03  0.61382721041E+02  0.52892889426E+03  0.61294949573E+03  0.12509866788E+03 0.  0.
          5    1    3    3  502    0 -0.22603514251E+03 -0.40043514633E+01  0.36634706799E+03  0.43050617546E+03  0.41800000000E+01 0.  1.
         -5    1    3    3    0  502 -0.50594201530E+02  0.65387072505E+02  0.16258182627E+03  0.18244332027E+03  0.41800000000E+01 0.  1.
        -11    1    1    2    0    0  0.17278410335E+03 -0.72315484025E+02  0.19535414003E+03  0.27064204334E+03  0.00000000000E+00 0. -1.
         11    1    1    2    0    0  0.10384524069E+03  0.10932762984E+02  0.53383636595E+02  0.11727391857E+03  0.00000000000E+00 0.  1.
</event>
<event>
 7    1  0.2522928E-009  0.1608631E+03  0.7561462E-02  0.1187726E+00
         -1   -1    0    0    0  501 -0.00000000000E+00  0.00000000000E+00  0.56890581236E+03  0.56890581236E+03  0.00000000000E+00 0.  1.
          1   -1    0    0  501    0  0.00000000000E+00 -0.00000000000E+00 -0.59164713177E+02  0.59164713177E+02  0.00000000000E+00 0. -1.
         25    2    1    2    0    0 -0.82524591412E+02  0.99240663926E+02  0.13879314017E+03  0.22709039535E+03  0.12508994499E+03 0.  0.
          5    1    3    3  502    0  0.80585819393E+01  0.85462411595E+02  0.49990981145E+02  0.99425022677E+02  0.41800000000E+01 0. -1.
         -5    1    3    3    0  502 -0.90583173351E+02  0.13778252331E+02  0.88802159023E+02  0.12766537267E+03  0.41800000000E+01 0. -1.
        -11    1    1    2    0    0  0.90381820463E+02 -0.71538065841E+02  0.33855100805E+03  0.35763578315E+03  0.00000000000E+00 0.  1.
         11    1    1    2    0    0 -0.78572290515E+01 -0.27702598085E+02  0.32396950967E+02  0.43344347047E+02  0.00000000000E+00 0. -1.
</event>
<event>
 7    1  0.2522928E-009  0.1159311E+03  0.7561462E-02  0.1249964E+00
          1   -1    0    0  501    0  0.00000000000E+00  0.00000000000E+00  0.89060647441E+02  0.89060647441E+02  0.00000000000E+00 0. -1.
         -1   -1    0    0    0  501 -0.00000000000E+00 -0.00000000000E+00 -0.15304332269E+03  0.15304332269E+03  0.00000000000E+00 0.  1.
         25    2    1    2    0    0  0.25122609709E+02 -0.34101766409E+02 -0.44777836691E+02  0.13945913630E+03  0.12509884111E+03 0.  0.
          5    1    3    3  502    0  0.73560625038E+02 -0.30486329565E+01 -0.18271923752E+02  0.75972332572E+02  0.41800000000E+01 0.  1.
         -5    1    3    3    0  502 -0.48438015329E+02 -0.31053133452E+02 -0.26505912939E+02  0.63486803723E+02  0.41800000000E+01 0.  1.
        -11    1    1    2    0    0  0.34587005128E+02  0.96439125215E+01 -0.11273884642E+02  0.37634644244E+02  0.00000000000E+00 0.  1.
         11    1    1    2    0    0 -0.59709614836E+02  0.24457853887E+02 -0.79309539143E+01  0.65010189591E+02  0.00000000000E+00 0. -1.
</event>
<event>
 7    1  0.2522928E-009  0.7531047E+02  0.7561462E-02  0.1342912E+00
          1   -1    0    0  501    0  0.00000000000E+00  0.00000000000E+00  0.49283336809E+03  0.49283336809E+03  0.00000000000E+00 0. -1.
         -1   -1    0    0    0  501 -0.00000000000E+00 -0.00000000000E+00 -0.28562832562E+02  0.28562832562E+02  0.00000000000E+00 0.  1.
         25    2    1    2    0    0 -0.36027112772E+02 -0.56728774100E+01  0.19143864932E+03  0.23157780300E+03  0.12509751394E+03 0.  0.
          5    1    3    3  502    0 -0.60364150299E+01  0.24698485754E+02  0.18665419920E+03  0.18842429776E+03  0.41800000000E+01 0.  1.
         -5    1    3    3    0  502 -0.29990697743E+02 -0.30371363164E+02  0.47844501156E+01  0.43153505239E+02  0.41800000000E+01 0.  1.
        -11    1    1    2    0    0  0.58821980200E+02  0.18317293491E+01  0.25173464051E+03  0.25852216504E+03  0.00000000000E+00 0. -1.
         11    1    1    2    0    0 -0.22794867427E+02  0.38411480609E+01  0.21097245697E+02  0.31296232608E+02  0.00000000000E+00 0.  1.
</event>
<event>
 7    1  0.2522928E-009  0.1575017E+03  0.7561462E-02  0.1191547E+00
         -2   -1    0    0    0  501 -0.00000000000E+00  0.00000000000E+00  0.42690154917E+02  0.42690154917E+02  0.00000000000E+00 0. -1.
          2   -1    0    0  501    0  0.00000000000E+00 -0.00000000000E+00 -0.75170522134E+03  0.75170522134E+03  0.00000000000E+00 0.  1.
         25    2    1    2    0    0  0.76223810217E+02 -0.94542343498E+02 -0.21185215458E+03  0.27436686092E+03  0.12509002763E+03 0.  0.
          5    1    3    3  502    0  0.71748045433E+02 -0.41293628975E+01 -0.14456481448E+03  0.16149703294E+03  0.41800000000E+01 0.  1.
         -5    1    3    3    0  502  0.44757647841E+01 -0.90412980600E+02 -0.67287340092E+02  0.11286982798E+03  0.41800000000E+01 0.  1.
        -11    1    1    2    0    0 -0.68878009952E+02  0.11310758673E+03 -0.42499479950E+03  0.44514950976E+03  0.00000000000E+00 0. -1.
         11    1    1    2    0    0 -0.73458002643E+01 -0.18565243233E+02 -0.72168112346E+02  0.74879005585E+02  0.00000000000E+00 0.  1.
</event>
<event>
 7    1  0.2522928E-009  0.1232220E+03  0.7561462E-02  0.1237874E+00
          2   -1    0    0  501    0  0.00000000000E+00  0.00000000000E+00  0.39564963478E+03  0.39564963478E+03  0.00000000000E+00 0. -1.
         -2   -1    0    0    0  501 -0.00000000000E+00 -0.00000000000E+00 -0.65664385953E+02  0.65664385953E+02  0.00000000000E+00 0.  1.
         25    2    1    2    0    0  0.81509869621E+01  0.64019312614E+02  0.31844357715E+03  0.34816329061E+03  0.12508578704E+03 0.  0.
          5    1    3    3  502    0  0.34843289138E+02 -0.26419765124E+02  0.73011559069E+02  0.85206918410E+02  0.41800000000E+01 0. -1.
         -5    1    3    3    0  502 -0.26692302176E+02  0.90439077739E+02  0.24543201809E+03  0.26295637220E+03  0.41800000000E+01 0. -1.
        -11    1    1    2    0    0  0.39149767293E+02 -0.22280000276E+02  0.20397620222E+02  0.49448615775E+02  0.00000000000E+00 0.  1.
         11    1    1    2    0    0 -0.47300754255E+02 -0.41739312338E+02 -0.88559485523E+01  0.63702114347E+02  0.00000000000E+00 0. -1.
</event>
<event>
 7    1  0.2522928E-009  0.1300883E+03  0.7561462E-02  0.1227325E+00
          1   -1    0    0  501    0  0.00000000000E+00  0.00000000000E+00  0.14544381326E+04  0.14544381326E+04  0.00000000000E+00 0. -1.
         -1   -1    0    0    0  501 -0.00000000000E+00 -0.00000000000E+00 -0.30447196590E+02  0.30447196590E+02  0.00000000000E+00 0.  1.
         25    2    1    2    0    0  0.64544489532E+02 -0.93879373155E+02  0.12299812977E+04  0.12415636302E+04  0.12508767783E+03 0.  0.
          5    1    3    3  502    0  0.38636838429E+02  0.65789275590E+01  0.11127784739E+03  0.11805218885E+03  0.41800000000E+01 0. -1.
         -5    1    3    3    0  502  0.25907651104E+02 -0.10045830071E+03  0.11187034503E+04  0.11235114413E+04  0.41800000000E+01 0. -1.
        -11    1    1    2    0    0 -0.46461714006E+02  0.84808780747E+02  0.74392757817E+02  0.12200615794E+03  0.00000000000E+00 0.  1.
         11    1    1    2    0    0 -0.18082775526E+02  0.90705924084E+01  0.11961688050E+03  0.12131554113E+03  0.00000000000E+00 0. -1.
</event>
<event>
 7    1  0.2522928E-009  0.1118563E+03  0.7561462E-02  0.1257170E+00
          1   -1    0    0  501    0  0.00000000000E+00  0.00000000000E+00  0.62636533150E+02  0.62636533150E+02  0.00000000000E+00 0. -1.
         -1   -1    0    0    0  501 -0.00000000000E+00 -0.00000000000E+00 -0.25992893180E+03  0.25992893180E+03  0.00000000000E+00 0.  1.
         25    2    1    2    0    0  0.35088767222E+02 -0.77076702057E+01 -0.18066561058E+03  0.22265927245E+03  0.12508580654E+03 0.  0.
          5    1    3    3  502    0  0.80460532680E+02 -0.74904544815E+01 -0.88943708930E+02  0.12024333655E+03  0.41800000000E+01 0. -1.
         -5    1    3    3    0  502 -0.45371765458E+02 -0.21721572421E+00 -0.91721901647E+02  0.10241593589E+03  0.41800000000E+01 0. -1.
        -11    1    1    2    0    0  0.89829877686E+01 -0.34836113720E+02 -0.13969272617E+02  0.38592608954E+02  0.00000000000E+00 0.  1.
         11    1    1    2    0    0 -0.44071754990E+02  0.42543783926E+02 -0.26575154537E+01  0.61313583545E+02  0.00000000000E+00 0. -1.
</event>
<event>
 7    1  0.2522928E-009  0.1333042E+03  0.7561462E-02  0.1222634E+00
         -1   -1    0    0    0  501 -0.00000000000E+00  0.00000000000E+00  0.17180798035E+02  0.17180798035E+02  0.00000000000E+00 0.  1.
          1   -1    0    0  501    0  0.00000000000E+00 -0.00000000000E+00 -0.11286706968E+04  0.11286706968E+04  0.00000000000E+00 0. -1.
         25    2    1    2    0    0  0.75970206229E+02  0.27291282162E+02 -0.73932546462E+03  0.75416586099E+03  0.12509083475E+03 0.  0.
          5    1    3    3  502    0  0.86617243979E+02 -0.26437349463E+02 -0.37994217953E+03  0.39060851576E+03  0.41800000000E+01 0.  1.
         -5    1    3    3    0  502 -0.10647037750E+02  0.53728631625E+02 -0.35938328509E+03  0.36355734523E+03  0.41800000000E+01 0.  1.
        -11    1    1    2    0    0 -0.53485864988E+02 -0.60601541519E+02 -0.27212761834E+03  0.28387801121E+03  0.00000000000E+00 0.  1.
         11    1    1    2    0    0 -0.22484341241E+02  0.33310259356E+02 -0.10003681579E+03  0.10780762261E+03  0.00000000000E+00 0. -1.
</event>
<event>
 7    1  0.2522928E-009  0.1143510E+03  0.7561462E-02  0.1252718E+00
          2   -1    0    0  501    0  0.00000000000E+00  0.00000000000E+00  0.36808775885E+03  0.36808775885E+03  0.00000000000E+00 0. -1.
         -2   -1    0    0    0  501 -0.00000000000E+00 -0.00000000000E+00 -0.61457741222E+02  0.61457741222E+02  0.00000000000E+00 0.  1.
         25    2    1    2    0    0 -0.70025141132E+02 -0.32535910838E+02  0.26547422207E+03  0.30347149224E+03  0.12512504999E+03 0.  0.
          5    1    3    3  502    0 -0.66839104474E+02 -0.75642036791E+02  0.20985852600E+03  0.23291040542E+03  0.41800000000E+01 0.  1.
         -5    1    3    3    0  502 -0.31860366576E+01  0.43106125952E+02  0.55615696066E+02  0.70561086819E+02  0.41800000000E+01 0.  1.
        -11    1    1    2    0    0  0.48312540898E+02  0.41213457943E+01 -0.22195354464E+02  0.53326549288E+02  0.00000000000E+00 0.  1.
         11    1    1    2    0    0  0.21712600234E+02  0.28414565044E+02  0.63351150030E+02  0.72747458551E+02  0.00000000000E+00 0. -1.
</event>
<event>
 7    1  0.2522928E-009  0.1973060E+03  0.7561462E-02  0.1152032E+00
          1   -1    0    0  501    0  0.00000000000E+00  0.00000000000E+00  0.34340804723E+03  0.34340804723E+03  0.00000000000E+00 0. -1.
         -1   -1    0    0    0  501 -0.00000000000E+00 -0.00000000000E+00 -0.12229310185E+03  0.12229310185E+03  0.00000000000E+00 0.  1.
         25    2    1    2    0    0  0.10811101119E+03  0.13535193831E+03  0.11331748228E+03  0.24185705469E+03  0.12508335289E+03 0.  0.
          5    1    3    3  502    0  0.77526827215E+02  0.34097955237E+01  0.48907408513E+02  0.91822887403E+02  0.41800000000E+01 0.  1.
         -5    1    3    3    0  502  0.30584183971E+02  0.13194214279E+03  0.64410073767E+02  0.15003416729E+03  0.41800000000E+01 0.  1.
        -11    1    1    2    0    0 -0.68979378541E+02 -0.43493312591E+02  0.68091221684E+01  0.81830233097E+02  0.00000000000E+00 0.  1.
         11    1    1    2    0    0 -0.39131632646E+02 -0.91858625718E+02  0.10098834094E+03  0.14201386129E+03  0.00000000000E+00 0. -1.
</event>
<event>
 7    1  0.2522928E-009  0.1177753E+03  0.7561462E-02  0.1246813E+00
         -4   -1    0    0    0  501 -0.00000000000E+00  0.00000000000E+00  0.26307145798E+03  0.26307145798E+03  0.00000000000E+00 0.  1.
          4   -1    0    0  501    0  0.00000000000E+00 -0.00000000000E+00 -0.63743666480E+02  0.63743666480E+02  0.00000000000E+00 0. -1.
         25    2    1    2    0    0  0.68838753747E+02  0.14341497759E+02  0.10374916112E+03  0.17707327649E+03  0.12508638710E+03 0.  0.
          5    1    3    3  502    0  0.95286169493E+02  0.38781370101E+02  0.56262516064E+02  0.11733026838E+03  0.41800000000E+01 0. -1.
         -5    1    3    3    0  502 -0.26447415746E+02 -0.24439872342E+02  0.47486645052E+02  0.59743008110E+02  0.41800000000E+01 0. -1.
        -11    1    1    2    0    0 -0.81866119745E+02 -0.93994300943E+01  0.10458725534E+03  0.13314993364E+03  0.00000000000E+00 0.  1.
         11    1    1    2    0    0  0.13027365998E+02 -0.49420676650E+01 -0.90086249561E+01  0.16591914334E+02  0.00000000000E+00 0. -1.
</event>
<event>
 7    1  0.2522928E-009  0.2983741E+03  0.7561462E-02  0.1086056E+00
         -2   -1    0    0    0  501 -0.00000000000E+00  0.00000000000E+00  0.79215688589E+03  0.79215688589E+03  0.00000000000E+00 0.  1.
          2   -1    0    0  501    0  0.00000000000E+00 -0.00000000000E+00 -0.12467952869E+03  0.12467952869E+03  0.00000000000E+00 0. -1.
         25    2    1    2    0    0 -0.10909839973E+03 -0.27393584130E+03  0.32957478837E+03  0.45957627872E+03  0.12509000304E+03 0.  0.
          5    1    3    3  502    0 -0.50645071737E+02 -0.53488979900E+02  0.22664615551E+02  0.77182585212E+02  0.41800000000E+01 0. -1.
         -5    1    3    3    0  502 -0.58453327995E+02 -0.22044686140E+03  0.30691017282E+03  0.38239369351E+03  0.41800000000E+01 0. -1.
        -11    1    1    2    0    0  0.49196278265E+02  0.12551948465E+03  0.22170931829E+03  0.25948109110E+03  0.00000000000E+00 0.  1.
         11    1    1    2    0    0  0.59902121466E+02  0.14841635665E+03  0.11619325053E+03  0.19777904476E+03  0.00000000000E+00 0. -1.
</event>
<event>
 7    1  0.2522928E-009  0.1312695E+03  0.7561462E-02  0.1225584E+00
         -2   -1    0    0    0  501 -0.00000000000E+00  0.00000000000E+00  0.92518118532E+02  0.92518118532E+02  0.00000000000E+00 0.  1.
          2   -1    0    0  501    0  0.00000000000E+00 -0.00000000000E+00 -0.21036748530E+03  0.21036748530E+03  0.00000000000E+00 0. -1.
         25    2    1    2    0    0 -0.86159885425E+02  0.18059532511E+02 -0.63317468744E+02  0.16554892746E+03  0.12509065898E+03 0.  0.
          5    1    3    3  502    0 -0.94395877599E+02 -0.26359424524E+02 -0.68846076415E+02  0.11984429735E+03  0.41800000000E+01 0. -1.
         -5    1    3    3    0  502  0.82359921742E+01  0.44418957035E+02  0.55286076710E+01  0.45704630115E+02  0.41800000000E+01 0. -1.
        -11    1    1    2    0    0  0.92209511545E+02 -0.36875193140E+02 -0.60991836263E+02  0.11654345962E+03  0.00000000000E+00 0. -1.
         11    1    1    2    0    0 -0.60496261198E+01  0.18815660629E+02  0.64599382366E+01  0.20793216757E+02  0.00000000000E+00 0.  1.
</event>
<event>
 7    1  0.2522928E-009  0.1258724E+03  0.7561462E-02  0.1233712E+00
         -1   -1    0    0    0  501 -0.00000000000E+00  0.00000000000E+00  0.10099944492E+04  0.10099944492E+04  0.00000000000E+00 0.  1.
          1   -1    0    0  501    0  0.00000000000E+00 -0.00000000000E+00 -0.18942708581E+02  0.18942708581E+02  0.00000000000E+00 0. -1.
         25    2    1    2    0    0 -0.82856923135E+02  0.18370261532E+02  0.56578088517E+03  0.58562571064E+03  0.12508687668E+03 0.  0.
          5    1    3    3  502    0  0.10624448039E+02  0.43258285913E+02  0.28795830215E+03  0.29141313350E+03  0.41800000000E+01 0.  1.
         -5    1    3    3    0  502 -0.93481371174E+02 -0.24888024381E+02  0.27782258302E+03  0.29421257714E+03  0.41800000000E+01 0.  1.
        -11    1    1    2    0    0  0.45353572745E+02 -0.45226342012E+02  0.34356195601E+03  0.34948131021E+03  0.00000000000E+00 0.  1.
         11    1    1    2    0    0  0.37503350390E+02  0.26856080480E+02  0.81708899487E+02  0.93830136974E+02  0.00000000000E+00 0. -1.
</event>
<event>
 7    1  0.2522928E-009  0.1236000E+03  0.7561462E-02  0.1237274E+00
          1   -1    0    0  501    0  0.00000000000E+00  0.00000000000E+00  0.11920791492E+03  0.11920791492E+03  0.00000000000E+00 0. -1.
         -1   -1    0    0    0  501 -0.00000000000E+00 -0.00000000000E+00 -0.18155746952E+03  0.18155746952E+03  0.00000000000E+00 0.  1.
         25    2    1    2    0    0  0.64978248241E+02 -0.65221298837E+02 -0.75173211363E+02  0.17254669952E+03  0.12508141845E+03 0.  0.
          5    1    3    3  502    0 -0.35651462881E+02 -0.76817656343E+01 -0.51828742603E+01  0.37072508877E+02  0.41800000000E+01 0.  1.
         -5    1    3    3    0  502  0.10062971112E+03 -0.57539533202E+02 -0.69990337103E+02  0.13547419064E+03  0.41800000000E+01 0.  1.
        -11    1    1    2    0    0 -0.49465037844E+02  0.35219860542E+02 -0.34682982052E+02  0.69929520158E+02  0.00000000000E+00 0.  1.
         11    1    1    2    0    0 -0.15513210397E+02  0.30001438294E+02  0.47506638816E+02  0.58289164757E+02  0.00000000000E+00 0. -1.
</event>
<event>
 7    1  0.2522928E-009  0.3097940E+03  0.7561462E-02  0.1080445E+00
         -2   -1    0    0    0  501 -0.00000000000E+00  0.00000000000E+00  0.48565685621E+03  0.48565685621E+03  0.00000000000E+00 0.  1.
          2   -1    0    0  501    0  0.00000000000E+00 -0.00000000000E+00 -0.37844404274E+03  0.37844404274E+03  0.00000000000E+00 0. -1.
         25    2    1    2    0    0 -0.20615158204E+03  0.21157629417E+03  0.34729687001E+03  0.47278529045E+03  0.12509121438E+03 0.  0.
          5    1    3    3  502    0 -0.48798918553E+02  0.11611057999E+01  0.10270235327E+03  0.11378896425E+03  0.41800000000E+01 0. -1.
         -5    1    3    3    0  502 -0.15735266349E+03  0.21041518837E+03  0.24459451674E+03  0.35899632620E+03  0.41800000000E+01 0. -1.
        -11    1    1    2    0    0  0.79204577752E+02 -0.26758373272E+02 -0.50344265936E+02  0.97590577361E+02  0.00000000000E+00 0.  1.
         11    1    1    2    0    0  0.12694700429E+03 -0.18481792089E+03 -0.18973979060E+03  0.29372503114E+03  0.00000000000E+00 0. -1.
</event>
<event>
 7    1  0.2522928E-009  0.2466064E+03  0.7561462E-02  0.1115468E+00
         -2   -1    0    0    0  501 -0.00000000000E+00  0.00000000000E+00  0.10065391381E+03  0.10065391381E+03  0.00000000000E+00 0. -1.
          2   -1    0    0  501    0  0.00000000000E+00 -0.00000000000E+00 -0.62388483746E+03  0.62388483746E+03  0.00000000000E+00 0.  1.
         25    2    1    2    0    0  0.18411702828E+03  0.12896115641E+03 -0.24573373001E+03  0.35575684269E+03  0.12509118712E+03 0.  0.
          5    1    3    3  502    0  0.49573123736E+02  0.10451869365E+03 -0.14667708969E+03  0.18685099132E+03  0.41800000000E+01 0. -1.
         -5    1    3    3    0  502  0.13454390454E+03  0.24442462760E+02 -0.99056640320E+02  0.16890585137E+03  0.41800000000E+01 0. -1.
        -11    1    1    2    0    0 -0.16794355070E+03 -0.74301221556E+02 -0.18909781100E+03  0.26359759079E+03  0.00000000000E+00 0.  1.
         11    1    1    2    0    0 -0.16173477577E+02 -0.54659934853E+02 -0.88399382650E+02  0.10518431779E+03  0.00000000000E+00 0. -1.
</event>
<event>
 7    1  0.2522928E-009  0.8502241E+02  0.7561462E-02  0.1315374E+00
          2   -1    0    0  501    0  0.00000000000E+00  0.00000000000E+00  0.31440191731E+03  0.31440191731E+03  0.00000000000E+00 0. -1.
         -2   -1    0    0    0  501 -0.00000000000E+00 -0.00000000000E+00 -0.46469275183E+02  0.46469275183E+02  0.00000000000E+00 0.  1.
         25    2    1    2    0    0  0.11593051509E+02  0.41456578397E+02  0.10319750736E+03  0.16777961258E+03  0.12508887296E+03 0.  0.
          5    1    3    3  502    0  0.51826638836E+02  0.45797687300E+02  0.10639939866E+03  0.12697138690E+03  0.41800000000E+01 0. -1.
         -5    1    3    3    0  502 -0.40233587327E+02 -0.43411089035E+01 -0.32018913024E+01  0.40808225686E+02  0.41800000000E+01 0. -1.
        -11    1    1    2    0    0 -0.21661676841E+01 -0.48348084880E+02  0.17243915791E+03  0.17910190612E+03  0.00000000000E+00 0. -1.
         11    1    1    2    0    0 -0.94268838247E+01  0.68915064837E+01 -0.77040231418E+01  0.13989673793E+02  0.00000000000E+00 0.  1.
</event>
<event>
 7    1  0.2522928E-009  0.1439873E+03  0.7561462E-02  0.1208062E+00
         -2   -1    0    0    0  501 -0.00000000000E+00  0.00000000000E+00  0.63684569549E+03  0.63684569549E+03  0.00000000000E+00 0.  1.
          2   -1    0    0  501    0  0.00000000000E+00 -0.00000000000E+00 -0.44611834996E+02  0.44611834996E+02  0.00000000000E+00 0. -1.
         25    2    1    2    0    0  0.12125101463E+03 -0.30409940304E+02  0.25232519078E+03  0.30813784357E+03  0.12511736776E+03 0.  0.
          5    1    3    3  502    0  0.56682503687E+02  0.26216231771E+02  0.29295485025E+02  0.69107849593E+02  0.41800000000E+01 0.  1.
         -5    1    3    3    0  502  0.64568510946E+02 -0.56626172075E+02  0.22302970575E+03  0.23902999397E+03  0.41800000000E+01 0.  1.
        -11    1    1    2    0    0 -0.32349336325E+02  0.38318421434E+02  0.53508227620E+02  0.73334244422E+02  0.00000000000E+00 0. -1.
         11    1    1    2    0    0 -0.88901678308E+02 -0.79084811303E+01  0.28640044210E+03  0.29998544250E+03  0.00000000000E+00 0.  1.
</event>
<event>
 7    1  0.2522928E-009  0.1243706E+03  0.7561462E-02  0.1236056E+00
         -1   -1    0    0    0  501 -0.00000000000E+00  0.00000000000E+00  0.46769525589E+02  0.46769525589E+02  0.00000000000E+00 0.  1.
          1   -1    0    0  501    0  0.00000000000E+00 -0.00000000000E+00 -0.56620523579E+03  0.56620523579E+03  0.00000000000E+00 0. -1.
         25    2    1    2    0    0 -0.47622755236E+02  0.98411492337E+02 -0.37725095717E+03  0.41221231460E+03  0.12509180219E+03 0.  0.
          5    1    3    3  502    0  0.22354858264E+00  0.48487162454E+01  0.94771180165E+01  0.11438889330E+02  0.41800000000E+01 0.  1.
         -5    1    3    3    0  502 -0.47846303819E+02  0.93562776092E+02 -0.38672807519E+03  0.40077342527E+03  0.41800000000E+01 0.  1.
        -11    1    1    2    0    0  0.24654914170E+02  0.98090135687E+01 -0.99172269455E+01  0.28327247135E+02  0.00000000000E+00 0.  1.
         11    1    1    2    0    0  0.22967841066E+02 -0.10822050591E+03 -0.13226752608E+03  0.17243519965E+03  0.00000000000E+00 0. -1.
</event>
<event>
 7    1  0.2903586E-009  0.1048214E+03  0.7561462E-02  0.1270472E+00
         -1   -1    0    0    0  501 -0.00000000000E+00  0.00000000000E+00  0.16681887775E+03  0.16681887775E+03  0.00000000000E+00 0.  1.
          1   -1    0    0  501    0  0.00000000000E+00 -0.00000000000E+00 -0.13006633338E+03  0.13006633338E+03  0.00000000000E+00 0. -1.
         25    2    1    2    0    0 -0.68739144611E+02  0.63557095160E+02 -0.13574994811E+02  0.15683332678E+03  0.12509131687E+03 0.  0.
          5    1    3    3  502    0  0.24031260916E+01  0.38134255037E+02  0.46421345129E+02  0.60269479057E+02  0.41800000000E+01 0.  1.
         -5    1    3    3    0  502 -0.71142270703E+02  0.25422840123E+02 -0.59996339939E+02  0.96563847721E+02  0.41800000000E+01 0.  1.
        -11    1    1    2    0    0  0.31263410731E+02 -0.41831393418E+02 -0.21254939556E+02  0.56382965347E+02  0.00000000000E+00 0. -1.
         11    1    1    2    0    0  0.37475733881E+02 -0.21725701742E+02  0.71582478730E+02  0.83668919003E+02  0.00000000000E+00 0.  1.
</event>
<event>
 7    1  0.2522928E-009  0.4653408E+02  0.7561462E-02  0.1464986E+00
         -2   -1    0    0    0  501 -0.00000000000E+00  0.00000000000E+00  0.11880294021E+03  0.11880294021E+03  0.00000000000E+00 0.  1.
          2   -1    0    0  501    0  0.00000000000E+00 -0.00000000000E+00 -0.13459962830E+03  0.13459962830E+03  0.00000000000E+00 0. -1.
         25    2    1    2    0    0 -0.37668405627E+01 -0.19644251612E+02  0.52575076138E+02  0.13715720509E+03  0.12509146481E+03 0.  0.
          5    1    3    3  502    0  0.14694683566E+02 -0.73052866343E+01 -0.39168275664E+02  0.42672323072E+02  0.41800000000E+01 0. -1.
         -5    1    3    3    0  502 -0.18461524128E+02 -0.12338964977E+02  0.91743351802E+02  0.94484882016E+02  0.41800000000E+01 0. -1.
        -11    1    1    2    0    0  0.23152236199E+02  0.24339816842E+02  0.10259128966E+02  0.35124100730E+02  0.00000000000E+00 0.  1.
         11    1    1    2    0    0 -0.19385395637E+02 -0.46955652305E+01 -0.78630893189E+02  0.81121262691E+02  0.00000000000E+00 0. -1.
</event>
<event>
 7    1  0.2522928E-009  0.1056725E+03  0.7561462E-02  0.1268800E+00
          1   -1    0    0  501    0  0.00000000000E+00  0.00000000000E+00  0.89011514983E+03  0.89011514983E+03  0.00000000000E+00 0. -1.
         -1   -1    0    0    0  501 -0.00000000000E+00 -0.00000000000E+00 -0.15377714917E+02  0.15377714917E+02  0.00000000000E+00 0.  1.
         25    2    1    2    0    0 -0.15612613847E+02  0.35044630553E+00  0.66422392881E+03  0.67608024729E+03  0.12508875508E+03 0.  0.
          5    1    3    3  502    0 -0.77404623702E+01 -0.60532184298E+02  0.25365188434E+03  0.26092299807E+03  0.41800000000E+01 0. -1.
         -5    1    3    3    0  502 -0.78721514771E+01  0.60882630603E+02  0.41057204447E+03  0.41515724921E+03  0.41800000000E+01 0. -1.
        -11    1    1    2    0    0  0.51632172234E+02  0.63061099839E+01  0.14900837249E+03  0.15782630739E+03  0.00000000000E+00 0. -1.
         11    1    1    2    0    0 -0.36019558386E+02 -0.66565562895E+01  0.61505133611E+02  0.71586310064E+02  0.00000000000E+00 0.  1.
</event>
<event>
 7    1  0.2522928E-009  0.3120911E+03  0.7561462E-02  0.1079348E+00
         -1   -1    0    0    0  501 -0.00000000000E+00  0.00000000000E+00  0.59780740521E+03  0.59780740521E+03  0.00000000000E+00 0.  1.
          1   -1    0    0  501    0  0.00000000000E+00 -0.00000000000E+00 -0.17993838116E+03  0.17993838116E+03  0.00000000000E+00 0. -1.
         25    2    1    2    0    0 -0.40913577731E+02 -0.30593635346E+03  0.24078713376E+03  0.41097102690E+03  0.12509103866E+03 0.  0.
          5    1    3    3  502    0 -0.25108899928E+02 -0.11348043969E+03  0.20664045833E+02  0.11812172636E+03  0.41800000000E+01 0.  1.
         -5    1    3    3    0  502 -0.15804677803E+02 -0.19245591377E+03  0.22012308793E+03  0.29284930054E+03  0.41800000000E+01 0.  1.
        -11    1    1    2    0    0  0.49981157425E+02  0.14188112213E+03  0.48227671076E+02  0.15796922856E+03  0.00000000000E+00 0.  1.
         11    1    1    2    0    0 -0.90675796941E+01  0.16405523134E+03  0.12885421922E+03  0.20880553091E+03  0.00000000000E+00 0. -1.
</event>
<event>
 7    1  0.2522928E-009  0.1177330E+03  0.7561462E-02  0.1246885E+00
          2   -1    0    0  501    0  0.00000000000E+00  0.00000000000E+00  0.87280477307E+02  0.87280477307E+02  0.00000000000E+00 0. -1.
         -2   -1    0    0    0  501 -0.00000000000E+00 -0.00000000000E+00 -0.17278743590E+03  0.17278743590E+03  0.00000000000E+00 0.  1.
         25    2    1    2    0    0 -0.10990967878E+02 -0.45175113980E+02 -0.43634517450E+02  0.14040251074E+03  0.12508917464E+03 0.  0.
          5    1    3    3  502    0 -0.15651958101E+02  0.37440021650E+02 -0.40510151500E+02  0.57491597544E+02  0.41800000000E+01 0.  1.
         -5    1    3    3    0  502  0.46609902229E+01 -0.82615135630E+02 -0.31243659500E+01  0.82910913200E+02  0.41800000000E+01 0.  1.
        -11    1    1    2    0    0  0.53050915940E+02  0.43905702210E+01 -0.15707477504E+02  0.55501366095E+02  0.00000000000E+00 0. -1.
         11    1    1    2    0    0 -0.42059948062E+02  0.40784543759E+02 -0.26164963634E+02  0.64164036364E+02  0.00000000000E+00 0.  1.
</event>
<event>
 7    1  0.2522928E-009  0.7614691E+02  0.7561462E-02  0.1340356E+00
         -3   -1    0    0    0  501 -0.00000000000E+00  0.00000000000E+00  0.58078229901E+02  0.58078229901E+02  0.00000000000E+00 0.  1.
          3   -1    0    0  501    0  0.00000000000E+00 -0.00000000000E+00 -0.20781592592E+03  0.20781592592E+03  0.00000000000E+00 0. -1.
         25    2    1    2    0    0 -0.77230420044E+01 -0.15163146344E+02 -0.10003342010E+03  0.16106967617E+03  0.12508872475E+03 0.  0.
          5    1    3    3  502    0  0.35361752551E+02  0.30416136619E+02 -0.84041634344E+02  0.96208438370E+02  0.41800000000E+01 0.  1.
         -5    1    3    3    0  502 -0.43084794556E+02 -0.45579282963E+02 -0.15991785756E+02  0.64861237801E+02  0.41800000000E+01 0.  1.
        -11    1    1    2    0    0 -0.10742207548E+01 -0.13028308568E+02  0.22941918829E+02  0.26404969493E+02  0.00000000000E+00 0.  1.
         11    1    1    2    0    0  0.87972627592E+01  0.28191454912E+02 -0.72646194748E+02  0.78419510158E+02  0.00000000000E+00 0. -1.
</event>
<event>
 7    1  0.2522928E-009  0.1251953E+03  0.7561462E-02  0.1234764E+00
          2   -1    0    0  501    0  0.00000000000E+00  0.00000000000E+00  0.50186670263E+03  0.50186670263E+03  0.00000000000E+00 0. -1.
         -2   -1    0    0    0  501 -0.00000000000E+00 -0.00000000000E+00 -0.46311540535E+02  0.46311540535E+02  0.00000000000E+00 0.  1.
         25    2    1    2    0    0  0.59526830081E+02  0.29006918309E+02  0.95554051064E+02  0.17076201835E+03  0.12507695802E+03 0.  0.
          5    1    3    3  502    0 -0.12787670216E+02  0.60748228835E+02  0.37373381604E+02  0.72581773667E+02  0.41800000000E+01 0. -1.
         -5    1    3    3    0  502  0.72314500297E+02 -0.31741310526E+02  0.58180669460E+02  0.98180244683E+02  0.41800000000E+01 0. -1.
        -11    1    1    2    0    0 -0.77817966644E+02 -0.40254719101E+02  0.23961736736E+03  0.25513243832E+03  0.00000000000E+00 0.  1.
         11    1    1    2    0    0  0.18291136563E+02  0.11247800792E+02  0.12038374367E+03  0.12228378649E+03  0.00000000000E+00 0. -1.
</event>
<event>
 7    1  0.2522928E-009  0.1114528E+03  0.7561462E-02  0.1257903E+00
         -2   -1    0    0    0  501 -0.00000000000E+00  0.00000000000E+00  0.14784738195E+02  0.14784738195E+02  0.00000000000E+00 0.  1.
          2   -1    0    0  501    0  0.00000000000E+00 -0.00000000000E+00 -0.96634912292E+03  0.96634912292E+03  0.00000000000E+00 0. -1.
         25    2    1    2    0    0  0.86386352236E+01  0.45452404685E+02 -0.61562258519E+03  0.62990423025E+03  0.12509046638E+03 0.  0.
          5    1    3    3  502    0 -0.53603098690E+02  0.11543250056E+02 -0.37546327417E+03  0.37946894663E+03  0.41800000000E+01 0.  1.
         -5    1    3    3    0  502  0.62241733914E+02  0.33909154630E+02 -0.24015931102E+03  0.25043528361E+03  0.41800000000E+01 0.  1.
        -11    1    1    2    0    0 -0.15945948596E+02 -0.69744890102E+02 -0.18848340457E+03  0.20160510105E+03  0.00000000000E+00 0.  1.
         11    1    1    2    0    0  0.73073133722E+01  0.24292485417E+02 -0.14745839496E+03  0.14962452981E+03  0.00000000000E+00 0. -1.
</event>
<event>
 7    1  0.2522928E-009  0.1049568E+03  0.7561462E-02  0.1270205E+00
         -2   -1    0    0    0  501 -0.00000000000E+00  0.00000000000E+00  0.40637224685E+02  0.40637224685E+02  0.00000000000E+00 0.  1.
          2   -1    0    0  501    0  0.00000000000E+00 -0.00000000000E+00 -0.44662786985E+03  0.44662786985E+03  0.00000000000E+00 0. -1.
         25    2    1    2    0    0  0.42866357471E+02 -0.61043137321E+02 -0.17401496667E+03  0.22691889596E+03  0.12508871853E+03 0.  0.
          5    1    3    3  502    0 -0.71358436131E+00 -0.44872613424E+02 -0.17451887927E+03  0.18024531134E+03  0.41800000000E+01 0. -1.
         -5    1    3    3    0  502  0.43579941833E+02 -0.16170523897E+02  0.50391260546E+00  0.46673584618E+02  0.41800000000E+01 0. -1.
        -11    1    1    2    0    0  0.21746779187E+02  0.47374008108E+02 -0.10036109367E+03  0.11309097299E+03  0.00000000000E+00 0.  1.
         11    1    1    2    0    0 -0.64613136659E+02  0.13669129213E+02 -0.13161458483E+03  0.14725522558E+03  0.00000000000E+00 0. -1.
</event>
<event>
 7    1  0.2522928E-009  0.1858634E+03  0.7561462E-02  0.1162246E+00
         -2   -1    0    0    0  501 -0.00000000000E+00  0.00000000000E+00  0.70411711319E+03  0.70411711319E+03  0.00000000000E+00 0.  1.
          2   -1    0    0  501    0  0.00000000000E+00 -0.00000000000E+00 -0.59122404625E+02  0.59122404625E+02  0.00000000000E+00 0. -1.
         25    2    1    2    0    0 -0.16268896778E+03 -0.18342593839E+02  0.23789213452E+03  0.31471250808E+03  0.12508854499E+03 0.  0.
          5    1    3    3  502    0 -0.59332637834E+02 -0.68355868240E+02  0.11615229703E+03  0.14731502008E+03  0.41800000000E+01 0.  1.
         -5    1    3    3    0  502 -0.10335632995E+03  0.50013274401E+02  0.12173983750E+03  0.16739748800E+03  0.41800000000E+01 0.  1.
        -11    1    1    2    0    0  0.36203352227E+02  0.16333231268E+02  0.21416060676E+03  0.21781235650E+03  0.00000000000E+00 0.  1.
         11    1    1    2    0    0  0.12648561555E+03  0.20093625713E+01  0.19294196728E+03  0.23071465323E+03  0.00000000000E+00 0. -1.
</event>
<event>
 7    1  0.2522928E-009  0.1277062E+03  0.7561462E-02  0.1230900E+00
          1   -1    0    0  501    0  0.00000000000E+00  0.00000000000E+00  0.52635269894E+02  0.52635269894E+02  0.00000000000E+00 0. -1.
         -1   -1    0    0    0  501 -0.00000000000E+00 -0.00000000000E+00 -0.50080668392E+03  0.50080668392E+03  0.00000000000E+00 0.  1.
         25    2    1    2    0    0  0.10567100790E+02 -0.97634067228E+02 -0.11759251949E+03  0.19778942676E+03  0.12509429242E+03 0.  0.
          5    1    3    3  502    0  0.13600355933E+02 -0.11836421740E+03 -0.12722689339E+03  0.17435369926E+03  0.41800000000E+01 0.  1.
         -5    1    3    3    0  502 -0.30332551430E+01  0.20730150175E+02  0.96343739048E+01  0.23435727503E+02  0.41800000000E+01 0.  1.
        -11    1    1    2    0    0 -0.35270031035E+02  0.64361979233E+02 -0.28389997782E+03  0.29323307601E+03  0.00000000000E+00 0.  1.
         11    1    1    2    0    0  0.24702930245E+02  0.33272087995E+02 -0.46678916716E+02  0.62419451039E+02  0.00000000000E+00 0. -1.
</event>
<event>
 7    1  0.2805596E-009  0.1210283E+03  0.7561462E-02  0.1241410E+00
          1   -1    0    0  501    0  0.00000000000E+00  0.00000000000E+00  0.35495445090E+03  0.35495445090E+03  0.00000000000E+00 0. -1.
         -1   -1    0    0    0  501 -0.00000000000E+00 -0.00000000000E+00 -0.74248717786E+02  0.74248717786E+02  0.00000000000E+00 0.  1.
         25    2    1    2    0    0 -0.93586202048E+02  0.37890511273E+02  0.23641987918E+03  0.28589639287E+03  0.12509324573E+03 0.  0.
          5    1    3    3  502    0  0.92960985194E+01  0.30730249927E+02  0.14320395661E+03  0.14681829347E+03  0.41800000000E+01 0. -1.
         -5    1    3    3    0  502 -0.10288230057E+03  0.71602613460E+01  0.93215922569E+02  0.13907809940E+03  0.41800000000E+01 0. -1.
        -11    1    1    2    0    0  0.41208000704E+02 -0.34899645257E+02 -0.22395739697E+02  0.58460702337E+02  0.00000000000E+00 0.  1.
         11    1    1    2    0    0  0.52378201344E+02 -0.29908660159E+01  0.66681593628E+02  0.84846073476E+02  0.00000000000E+00 0. -1.
</event>
<event>
 7    1  0.2522928E-009  0.1042636E+03  0.7561462E-02  0.1271577E+00
          2   -1    0    0  501    0  0.00000000000E+00  0.00000000000E+00  0.16285712250E+03  0.16285712250E+03  0.00000000000E+00 0. -1.
         -2   -1    0    0    0  501 -0.00000000000E+00 -0.00000000000E+00 -0.12128897983E+03  0.12128897983E+03  0.00000000000E+00 0.  1.
         25    2    1    2    0    0 -0.66187747329E+02 -0.58121116441E+02  0.83811651887E+01  0.15322006606E+03  0.12508901887E+03 0.  0.
          5    1    3    3  502    0 -0.74759718472E+02 -0.59990895336E+02  0.51587508597E+02  0.10893423003E+03  0.41800000000E+01 0.  1.
         -5    1    3    3    0  502  0.85719711430E+01  0.18697788953E+01 -0.43206343408E+02  0.44285836033E+02  0.41800000000E+01 0.  1.
        -11    1    1    2    0    0  0.21011883996E+02  0.53468763276E+02  0.55891948902E+02  0.80151842570E+02  0.00000000000E+00 0. -1.
         11    1    1    2    0    0  0.45175863333E+02  0.46523531647E+01 -0.22704971422E+02  0.50774193692E+02  0.00000000000E+00 0.  1.
</event>
<event>
 7    1  0.2522928E-009  0.7075852E+02  0.7561462E-02  0.1357532E+00
         -1   -1    0    0    0  501 -0.00000000000E+00  0.00000000000E+00  0.71085719046E+02  0.71085719046E+02  0.00000000000E+00 0.  1.
          1   -1    0    0  501    0  0.00000000000E+00 -0.00000000000E+00 -0.19889493155E+03  0.19889493155E+03  0.00000000000E+00 0. -1.
         25    2    1    2    0    0 -0.57850345452E+01 -0.43459104171E+02 -0.46706908163E+02  0.14053706507E+03  0.12508785324E+03 0.  0.
          5    1    3    3  502    0 -0.38600284311E+01  0.22922612734E+02  0.30523903419E+02  0.38594391743E+02  0.41800000000E+01 0. -1.
         -5    1    3    3    0  502 -0.19250061141E+01 -0.66381716905E+02 -0.77230811582E+02  0.10194267333E+03  0.41800000000E+01 0. -1.
        -11    1    1    2    0    0  0.16511484693E+02  0.28732528723E+02  0.11491198351E+02  0.35074705602E+02  0.00000000000E+00 0.  1.
         11    1    1    2    0    0 -0.10726450148E+02  0.14726575448E+02 -0.92593502690E+02  0.94368879921E+02  0.00000000000E+00 0. -1.
</event>
<event>
 7    1  0.2522928E-009  0.3967792E+03  0.7561462E-02  0.1044901E+00
          1   -1    0    0  501    0  0.00000000000E+00  0.00000000000E+00  0.33401515026E+03  0.33401515026E+03  0.00000000000E+00 0. -1.
         -1   -1    0    0    0  501 -0.00000000000E+00 -0.00000000000E+00 -0.49704600184E+03  0.49704600184E+03  0.00000000000E+00 0.  1.
         25    2    1    2    0    0 -0.38146219971E+03 -0.84031430127E+02 -0.41921270394E+02  0.41228633478E+03  0.12509171787E+03 0.  0.
          5    1    3    3  502    0 -0.46926803781E+02 -0.26650689511E+02  0.34705026338E+02  0.64298486900E+02  0.41800000000E+01 0.  1.
         -5    1    3    3    0  502 -0.33453539592E+03 -0.57380740617E+02 -0.76626296732E+02  0.34798784788E+03  0.41800000000E+01 0.  1.
        -11    1    1    2    0    0  0.16265213164E+03 -0.74434125983E+01 -0.63102504178E+02  0.17462258259E+03  0.00000000000E+00 0.  1.
         11    1    1    2    0    0  0.21881006806E+03  0.91474842726E+02 -0.58007077004E+02  0.24415223472E+03  0.00000000000E+00 0. -1.
</event>
<event>
 7    1  0.2522928E-009  0.1028973E+03  0.7561462E-02  0.1274319E+00
          2   -1    0    0  501    0  0.00000000000E+00  0.00000000000E+00  0.14189952682E+04  0.14189952682E+04  0.00000000000E+00 0. -1.
         -2   -1    0    0    0  501 -0.00000000000E+00 -0.00000000000E+00 -0.19859260153E+02  0.19859260153E+02  0.00000000000E+00 0.  1.
         25    2    1    2    0    0 -0.57493018866E+02 -0.53938919643E+01  0.12534282247E+04  0.12609774590E+04  0.12508915375E+03 0.  0.
          5    1    3    3  502    0  0.23535872988E+02 -0.13401180142E+02  0.78701032021E+03  0.78748729861E+03  0.41800000000E+01 0.  1.
         -5    1    3    3    0  502 -0.81028891853E+02  0.80072881774E+01  0.46641790452E+03  0.47349016044E+03  0.41800000000E+01 0.  1.
        -11    1    1    2    0    0  0.58415414636E+02  0.34431100177E+02  0.12497762057E+03  0.14218743605E+03  0.00000000000E+00 0.  1.
         11    1    1    2    0    0 -0.92239576994E+00 -0.29037208213E+02  0.20730162751E+02  0.35689633263E+02  0.00000000000E+00 0. -1.
</event>
<event>
 7    1  0.2522928E-009  0.9743994E+02  0.7561462E-02  0.1285773E+00
          3   -1    0    0  501    0  0.00000000000E+00  0.00000000000E+00  0.35024980139E+03  0.35024980139E+03  0.00000000000E+00 0.  1.
         -3   -1    0    0    0  501 -0.00000000000E+00 -0.00000000000E+00 -0.78798727649E+02  0.78798727649E+02  0.00000000000E+00 0. -1.
         25    2    1    2    0    0 -0.46382746265E+02 -0.24661630814E+02  0.29097655335E+03  0.32105042654E+03  0.12508583692E+03 0.  0.
          5    1    3    3  502    0  0.16770577672E+02  0.13205629865E+02  0.21153276250E+03  0.21264812001E+03  0.41800000000E+01 0.  1.
         -5    1    3    3    0  502 -0.63153323937E+02 -0.37867260679E+02  0.79443790855E+02  0.10840230653E+03  0.41800000000E+01 0.  1.
        -11    1    1    2    0    0 -0.11922602707E+01  0.46859915450E+02  0.97642868366E+01  0.47881253721E+02  0.00000000000E+00 0.  1.
         11    1    1    2    0    0  0.47575006536E+02 -0.22198284636E+02 -0.29289766450E+02  0.60116848773E+02  0.00000000000E+00 0. -1.
</event>
<event>
 7    1  0.2522928E-009  0.7852193E+02  0.7561462E-02  0.1333299E+00
         -2   -1    0    0    0  501 -0.00000000000E+00  0.00000000000E+00  0.13824654882E+03  0.13824654882E+03  0.00000000000E+00 0.  1.
          2   -1    0    0  501    0  0.00000000000E+00 -0.00000000000E+00 -0.14576118353E+03  0.14576118353E+03  0.00000000000E+00 0. -1.
         25    2    1    2    0    0  0.13140830783E+01 -0.49242788613E+02 -0.81241764554E+02  0.15708035128E+03  0.12508970144E+03 0.  0.
          5    1    3    3  502    0  0.11493477894E+02 -0.58264932455E+02  0.13689682008E+02  0.61088314607E+02  0.41800000000E+01 0.  1.
         -5    1    3    3    0  502 -0.10179394815E+02  0.90221438423E+01 -0.94931446561E+02  0.95992036672E+02  0.41800000000E+01 0.  1.
        -11    1    1    2    0    0 -0.89213757820E+01  0.65091146840E+02  0.17463093935E+02  0.67980938451E+02  0.00000000000E+00 0. -1.
         11    1    1    2    0    0  0.76072927037E+01 -0.15848358228E+02  0.56264035908E+02  0.58946442620E+02  0.00000000000E+00 0.  1.
</event>
<event>
 7    1  0.2522928E-009  0.1084564E+03  0.7561462E-02  0.1263455E+00
         -1   -1    0    0    0  501 -0.00000000000E+00  0.00000000000E+00  0.14904792176E+03  0.14904792176E+03  0.00000000000E+00 0.  1.
          1   -1    0    0  501    0  0.00000000000E+00 -0.00000000000E+00 -0.94892478253E+02  0.94892478253E+02  0.00000000000E+00 0. -1.
         25    2    1    2    0    0  0.16000777095E+02 -0.33568726941E+02 -0.20309890586E+01  0.13051418513E+03  0.12508774244E+03 0.  0.
          5    1    3    3  502    0  0.69702693209E+02 -0.31402797036E+02  0.98990468695E-01  0.76564242969E+02  0.41800000000E+01 0.  1.
         -5    1    3    3    0  502 -0.53701916114E+02 -0.21659299045E+01 -0.21299795272E+01  0.53949942163E+02  0.41800000000E+01 0.  1.
        -11    1    1    2    0    0 -0.17361836243E+02  0.58730105260E+02  0.11775091465E+02  0.62364343985E+02  0.00000000000E+00 0. -1.
         11    1    1    2    0    0  0.13610591480E+01 -0.25161378320E+02  0.44411341098E+02  0.51061870893E+02  0.00000000000E+00 0.  1.
</event>
<event>
 7    1  0.2522928E-009  0.1301207E+03  0.7561462E-02  0.1227277E+00
         -2   -1    0    0    0  501 -0.00000000000E+00  0.00000000000E+00  0.23295324301E+02  0.23295324301E+02  0.00000000000E+00 0.  1.
          2   -1    0    0  501    0  0.00000000000E+00 -0.00000000000E+00 -0.81173164322E+03  0.81173164322E+03  0.00000000000E+00 0. -1.
         25    2    1    2    0    0  0.50221289165E+01 -0.73240637361E+02 -0.55987797789E+03  0.57836002531E+03  0.12509019151E+03 0.  0.
          5    1    3    3  502    0  0.69077277660E+01  0.34885798856E+02 -0.17065825628E+03  0.17437444911E+03  0.41800000000E+01 0.  1.
         -5    1    3    3    0  502 -0.18855988495E+01 -0.10812643622E+03 -0.38921972161E+03  0.40398557620E+03  0.41800000000E+01 0.  1.
        -11    1    1    2    0    0 -0.47089541870E+02  0.47534671753E+02 -0.14401384704E+03  0.15879848271E+03  0.00000000000E+00 0. -1.
         11    1    1    2    0    0  0.42067412954E+02  0.25705965608E+02 -0.84544493990E+02  0.97868459498E+02  0.00000000000E+00 0.  1.
</event>
<event>
 7    1  0.2522928E-009  0.9719532E+02  0.7561462E-02  0.1286307E+00
         -2   -1    0    0    0  501 -0.00000000000E+00  0.00000000000E+00  0.11854106372E+03  0.11854106372E+03  0.00000000000E+00 0.  1.
          2   -1    0    0  501    0  0.00000000000E+00 -0.00000000000E+00 -0.13706696107E+03  0.13706696107E+03  0.00000000000E+00 0. -1.
         25    2    1    2    0    0  0.63789315741E+02  0.11052810290E+02 -0.26247835559E+02  0.14326950605E+03  0.12508381620E+03 0.  0.
          5    1    3    3  502    0 -0.17736453306E+02  0.36671711276E+02 -0.39257498035E+02  0.56727592367E+02  0.41800000000E+01 0. -1.
         -5    1    3    3    0  502  0.81525769047E+02 -0.25618900986E+02  0.13009662476E+02  0.86541913684E+02  0.41800000000E+01 0. -1.
        -11    1    1    2    0    0 -0.15358032445E+02 -0.11923888928E+02  0.46427661050E+02  0.50334640143E+02  0.00000000000E+00 0.  1.
         11    1    1    2    0    0 -0.48431283296E+02  0.87107863843E+00 -0.38705722845E+02  0.62003878593E+02  0.00000000000E+00 0. -1.
</event>
<event>
 7    1  0.2522928E-009  0.1609899E+03  0.7561462E-02  0.1187584E+00
          1   -1    0    0  501    0  0.00000000000E+00  0.00000000000E+00  0.20463922484E+03  0.20463922484E+03  0.00000000000E+00 0. -1.
         -1   -1    0    0    0  501 -0.00000000000E+00 -0.00000000000E+00 -0.14401201766E+03  0.14401201766E+03  0.00000000000E+00 0.  1.
         25    2    1    2    0    0 -0.89110269974E+02  0.96711153264E+02  0.33707232754E+02  0.18460146874E+03  0.12509131600E+03 0.  0.
          5    1    3    3  502    0 -0.80611047519E+02 -0.14895181762E+01  0.29168490996E+02  0.85840741571E+02  0.41800000000E+01 0.  1.
         -5    1    3    3    0  502 -0.84992224549E+01  0.98200671441E+02  0.45387417578E+01  0.98760727167E+02  0.41800000000E+01 0.  1.
        -11    1    1    2    0    0  0.62030097076E+02 -0.26714758829E+02 -0.25835657455E+02  0.72311081299E+02  0.00000000000E+00 0.  1.
         11    1    1    2    0    0  0.27080172899E+02 -0.69996394435E+02  0.52755631880E+02  0.91738692454E+02  0.00000000000E+00 0. -1.
</event>
<event>
 7    1  0.2522928E-009  0.1101831E+03  0.7561462E-02  0.1260231E+00
         -4   -1    0    0    0  501 -0.00000000000E+00  0.00000000000E+00  0.26169417968E+03  0.26169417968E+03  0.00000000000E+00 0.  1.
          4   -1    0    0  501    0  0.00000000000E+00 -0.00000000000E+00 -0.50099013809E+02  0.50099013809E+02  0.00000000000E+00 0. -1.
         25    2    1    2    0    0  0.96120401440E+01  0.32986042043E+02  0.15285308317E+03  0.20047903672E+03  0.12508920356E+03 0.  0.
          5    1    3    3  502    0 -0.17825738441E+02 -0.43422104690E+02  0.42817731109E+02  0.63671552706E+02  0.41800000000E+01 0. -1.
         -5    1    3    3    0  502  0.27437778585E+02  0.76408146733E+02  0.11003535206E+03  0.13680748402E+03  0.41800000000E+01 0. -1.
        -11    1    1    2    0    0  0.34444903190E+02 -0.33273399955E+02  0.17568718499E+02  0.51012061026E+02  0.00000000000E+00 0. -1.
         11    1    1    2    0    0 -0.44056943334E+02  0.28735791246E+00  0.41173364206E+02  0.60302095740E+02  0.00000000000E+00 0.  1.
</event>
<event>
 7    1  0.2522928E-009  0.1093348E+03  0.7561462E-02  0.1261807E+00
         -1   -1    0    0    0  501 -0.00000000000E+00  0.00000000000E+00  0.68733069052E+02  0.68733069052E+02  0.00000000000E+00 0.  1.
          1   -1    0    0  501    0  0.00000000000E+00 -0.00000000000E+00 -0.35296241262E+03  0.35296241262E+03  0.00000000000E+00 0. -1.
         25    2    1    2    0    0 -0.35076225275E+02  0.51535633501E+02 -0.28001264693E+03  0.31295555732E+03  0.12509130792E+03 0.  0.
          5    1    3    3  502    0  0.43666059890E+02  0.31290667137E+02 -0.15180784911E+03  0.16108670363E+03  0.41800000000E+01 0.  1.
         -5    1    3    3    0  502 -0.78742285166E+02  0.20244966365E+02 -0.12820479783E+03  0.15186885369E+03  0.41800000000E+01 0.  1.
        -11    1    1    2    0    0 -0.14598485896E+02 -0.53489264001E+01  0.29233807641E+02  0.33111060286E+02  0.00000000000E+00 0.  1.
         11    1    1    2    0    0  0.49674711172E+02 -0.46186707101E+02 -0.33450504274E+02  0.75628864060E+02  0.00000000000E+00 0. -1.
</event>
<event>
 7    1  0.2522928E-009  0.1229291E+03  0.7561462E-02  0.1238342E+00
          1   -1    0    0  501    0  0.00000000000E+00  0.00000000000E+00  0.38824163367E+03  0.38824163367E+03  0.00000000000E+00 0. -1.
         -1   -1    0    0    0  501 -0.00000000000E+00 -0.00000000000E+00 -0.42808210317E+02  0.42808210317E+02  0.00000000000E+00 0.  1.
         25    2    1    2    0    0  0.57870612805E+02  0.30494584074E+02  0.22618550272E+03  0.26661946820E+03  0.12508849548E+03 0.  0.
          5    1    3    3  502    0  0.66698651643E+02  0.72161373491E+02  0.15903411343E+03  0.18699009490E+03  0.41800000000E+01 0.  1.
         -5    1    3    3    0  502 -0.88280388384E+01 -0.41666789417E+02  0.67151389287E+02  0.79629373307E+02  0.41800000000E+01 0.  1.
        -11    1    1    2    0    0  0.18012610810E+02  0.78949295572E+01  0.53306200253E+02  0.56818439316E+02  0.00000000000E+00 0. -1.
         11    1    1    2    0    0 -0.75883223614E+02 -0.38389513631E+02  0.65941720384E+02  0.10761193647E+03  0.00000000000E+00 0.  1.
</event>
<event>
 7    1  0.2522928E-009  0.8556592E+02  0.7561462E-02  0.1313959E+00
          1   -1    0    0  501    0  0.00000000000E+00  0.00000000000E+00  0.27012813360E+03  0.27012813360E+03  0.00000000000E+00 0. -1.
         -1   -1    0    0    0  501 -0.00000000000E+00 -0.00000000000E+00 -0.62209750163E+02  0.62209750163E+02  0.00000000000E+00 0.  1.
         25    2    1    2    0    0  0.10274638307E+02  0.10405583830E+01  0.20519408214E+03  0.24054096697E+03  0.12509474206E+03 0.  0.
          5    1    3    3  502    0  0.23948963740E+02 -0.55272282950E+02  0.64658099553E+02  0.88468753605E+02  0.41800000000E+01 0.  1.
         -5    1    3    3    0  502 -0.13674325433E+02  0.56312841333E+02  0.14053598259E+03  0.15207221336E+03  0.41800000000E+01 0.  1.
        -11    1    1    2    0    0  0.72761228450E+00 -0.25666843401E+02 -0.36235921063E+02  0.44411240076E+02  0.00000000000E+00 0.  1.
         11    1    1    2    0    0 -0.11002250592E+02  0.24626285018E+02  0.38960222363E+02  0.47385676722E+02  0.00000000000E+00 0. -1.
</event>
<event>
 7    1  0.2522928E-009  0.7350216E+02  0.7561462E-02  0.1348573E+00
         -2   -1    0    0    0  501 -0.00000000000E+00  0.00000000000E+00  0.12973481619E+03  0.12973481619E+03  0.00000000000E+00 0.  1.
          2   -1    0    0  501    0  0.00000000000E+00 -0.00000000000E+00 -0.11005062922E+03  0.11005062922E+03  0.00000000000E+00 0. -1.
         25    2    1    2    0    0 -0.58691622866E+01  0.49309643519E+02  0.18008647611E+02  0.13578424509E+03  0.12508861585E+03 0.  0.
          5    1    3    3  502    0 -0.10796293963E+01  0.24305463257E+01 -0.51481387181E+02  0.51719230284E+02  0.41800000000E+01 0.  1.
         -5    1    3    3    0  502 -0.47895328903E+01  0.46879097193E+02  0.69490034792E+02  0.84065014806E+02  0.41800000000E+01 0.  1.
        -11    1    1    2    0    0 -0.29786280131E+02  0.45679437027E+01  0.20808016911E+02  0.36620515582E+02  0.00000000000E+00 0.  1.
         11    1    1    2    0    0  0.35655442418E+02 -0.53877587222E+02 -0.19132477546E+02  0.67380684739E+02  0.00000000000E+00 0. -1.
</event>
<event>
 7    1  0.2522928E-009  0.1262285E+03  0.7561462E-02  0.1233162E+00
          1   -1    0    0  501    0  0.00000000000E+00  0.00000000000E+00  0.21555102671E+03  0.21555102671E+03  0.00000000000E+00 0. -1.
         -1   -1    0    0    0  501 -0.00000000000E+00 -0.00000000000E+00 -0.10984970987E+03  0.10984970987E+03  0.00000000000E+00 0.  1.
         25    2    1    2    0    0 -0.99261086635E+02  0.88724380183E+01  0.10184695247E+03  0.18960937746E+03  0.12508969109E+03 0.  0.
          5    1    3    3  502    0 -0.12049061121E+03  0.20268470419E+01  0.45526333877E+02  0.12888838185E+03  0.41800000000E+01 0. -1.
         -5    1    3    3    0  502  0.21229524577E+02  0.68455909763E+01  0.56320618594E+02  0.60720995614E+02  0.41800000000E+01 0. -1.
        -11    1    1    2    0    0  0.40095393192E+02 -0.25755938154E+02 -0.38358723899E+02  0.61175163299E+02  0.00000000000E+00 0.  1.
         11    1    1    2    0    0  0.59165693443E+02  0.16883500135E+02  0.42213088268E+02  0.74616195819E+02  0.00000000000E+00 0. -1.
</event>
<event>
 7    1  0.2522928E-009  0.1827365E+03  0.7561462E-02  0.1165181E+00
         -2   -1    0    0    0  501 -0.00000000000E+00  0.00000000000E+00  0.18656790567E+03  0.18656790567E+03  0.00000000000E+00 0.  1.
          2   -1    0    0  501    0  0.00000000000E+00 -0.00000000000E+00 -0.21960964669E+03  0.21960964669E+03  0.00000000000E+00 0. -1.
         25    2    1    2    0    0 -0.26391742261E+02 -0.15459034964E+03  0.49476004975E+02  0.20661770035E+03  0.12509316036E+03 0.  0.
          5    1    3    3  502    0  0.47019487311E+02 -0.89835842892E+02  0.36187778053E+02  0.10774199987E+03  0.41800000000E+01 0.  1.
         -5    1    3    3    0  502 -0.73411229572E+02 -0.64754506748E+02  0.13288226922E+02  0.98875700484E+02  0.41800000000E+01 0.  1.
        -11    1    1    2    0    0  0.43408594479E+02  0.11493283388E+03 -0.21345288058E+02  0.12469756894E+03  0.00000000000E+00 0.  1.
         11    1    1    2    0    0 -0.17016852218E+02  0.39657515760E+02 -0.61172457941E+02  0.74862283069E+02  0.00000000000E+00 0. -1.
</event>
<event>
 7    1  0.2522928E-009  0.9838223E+02  0.7561462E-02  0.1283735E+00
          1   -1    0    0  501    0  0.00000000000E+00  0.00000000000E+00  0.63304825050E+02  0.63304825050E+02  0.00000000000E+00 0. -1.
         -1   -1    0    0    0  501 -0.00000000000E+00 -0.00000000000E+00 -0.48636259207E+03  0.48636259207E+03  0.00000000000E+00 0.  1.
         25    2    1    2    0    0 -0.14318576255E+02 -0.63515802941E+02 -0.41331600518E+03  0.43671462760E+03  0.12510102703E+03 0.  0.
          5    1    3    3  502    0 -0.60299669678E+02 -0.60184119620E+02 -0.18449990789E+03  0.20326304836E+03  0.41800000000E+01 0.  1.
         -5    1    3    3    0  502  0.45981093422E+02 -0.33316833219E+01 -0.22881609729E+03  0.23345157923E+03  0.41800000000E+01 0.  1.
        -11    1    1    2    0    0  0.11482388096E+02  0.44864193644E+02 -0.50208273822E+02  0.68304552322E+02  0.00000000000E+00 0.  1.
         11    1    1    2    0    0  0.28361881598E+01  0.18651609298E+02  0.40466511988E+02  0.44648237201E+02  0.00000000000E+00 0. -1.
</event>
<event>
 7    1  0.2522928E-009  0.8144968E+02  0.7561462E-02  0.1324987E+00
         -1   -1    0    0    0  501 -0.00000000000E+00  0.00000000000E+00  0.39080550383E+03  0.39080550383E+03  0.00000000000E+00 0.  1.
          1   -1    0    0  501    0  0.00000000000E+00 -0.00000000000E+00 -0.33226513682E+02  0.33226513682E+02  0.00000000000E+00 0. -1.
         25    2    1    2    0    0 -0.13222506050E+02  0.26484009256E+02  0.23815960019E+03  0.27063365789E+03  0.12508534770E+03 0.  0.
          5    1    3    3  502    0  0.14283445473E+02  0.35689725618E+02  0.23821031827E+03  0.24132840998E+03  0.41800000000E+01 0. -1.
         -5    1    3    3    0  502 -0.27505951523E+02 -0.92057163621E+01 -0.50718088511E-01  0.29305247913E+02  0.41800000000E+01 0. -1.
        -11    1    1    2    0    0 -0.38481487504E+02 -0.18177558571E+02  0.40954856679E+02  0.59063938251E+02  0.00000000000E+00 0.  1.
         11    1    1    2    0    0  0.51703993553E+02 -0.83064506852E+01  0.78464533281E+02  0.94334421371E+02  0.00000000000E+00 0. -1.
</event>
<event>
 7    1  0.2522928E-009  0.1277077E+03  0.7561462E-02  0.1230897E+00
          1   -1    0    0  501    0  0.00000000000E+00  0.00000000000E+00  0.42672784218E+02  0.42672784218E+02  0.00000000000E+00 0. -1.
         -1   -1    0    0    0  501 -0.00000000000E+00 -0.00000000000E+00 -0.51197344366E+03  0.51197344366E+03  0.00000000000E+00 0.  1.
         25    2    1    2    0    0  0.64362855302E+02 -0.69912545379E+02 -0.30260254773E+03  0.34094907332E+03  0.12509047750E+03 0.  0.
          5    1    3    3  502    0  0.26968183030E+01 -0.63660733580E+02 -0.25447620778E+03  0.26236534557E+03  0.41800000000E+01 0. -1.
         -5    1    3    3    0  502  0.61666036999E+02 -0.62518117991E+01 -0.48126339943E+02  0.78583727744E+02  0.41800000000E+01 0. -1.
        -11    1    1    2    0    0 -0.79657650744E+02  0.78550070641E+02 -0.15925102391E+03  0.19461845631E+03  0.00000000000E+00 0.  1.
         11    1    1    2    0    0  0.15294795442E+02 -0.86375252611E+01 -0.74470878073E+01  0.19078698254E+02  0.00000000000E+00 0. -1.
</event>
<event>
 7    1  0.2522928E-009  0.1039731E+03  0.7561462E-02  0.1272156E+00
          2   -1    0    0  501    0  0.00000000000E+00  0.00000000000E+00  0.94830796356E+02  0.94830796356E+02  0.00000000000E+00 0. -1.
         -2   -1    0    0    0  501 -0.00000000000E+00 -0.00000000000E+00 -0.15961115475E+03  0.15961115475E+03  0.00000000000E+00 0.  1.
         25    2    1    2    0    0 -0.25983175821E+02 -0.48464354368E+02 -0.16635976531E+02  0.13765137089E+03  0.12508886890E+03 0.  0.
          5    1    3    3  502    0 -0.44654728106E+02  0.48473251606E+01  0.37977979339E+02  0.58968980135E+02  0.41800000000E+01 0.  1.
         -5    1    3    3    0  502  0.18671552285E+02 -0.53311679529E+02 -0.54613955870E+02  0.78682390754E+02  0.41800000000E+01 0.  1.
        -11    1    1    2    0    0  0.59385297728E+02  0.21128696274E+02 -0.32176534372E+02  0.70769801163E+02  0.00000000000E+00 0.  1.
         11    1    1    2    0    0 -0.33402121907E+02  0.27335658094E+02 -0.15967847492E+02  0.46020779056E+02  0.00000000000E+00 0. -1.
</event>
<event>
 7    1  0.2522928E-009  0.1017348E+03  0.7561462E-02  0.1276690E+00
          1   -1    0    0  501    0  0.00000000000E+00  0.00000000000E+00  0.29807614254E+03  0.29807614254E+03  0.00000000000E+00 0. -1.
         -1   -1    0    0    0  501 -0.00000000000E+00 -0.00000000000E+00 -0.71393838673E+02  0.71393838673E+02  0.00000000000E+00 0.  1.
         25    2    1    2    0    0 -0.74956460752E+01 -0.71620099676E+02  0.39068446217E+02  0.14953471584E+03  0.12509462164E+03 0.  0.
          5    1    3    3  502    0 -0.84722814754E+01  0.61422670369E+01  0.66132363682E+02  0.67085534387E+02  0.41800000000E+01 0.  1.
         -5    1    3    3    0  502  0.97663540016E+00 -0.77762366713E+02 -0.27063917465E+02  0.82449181452E+02  0.41800000000E+01 0.  1.
        -11    1    1    2    0    0 -0.40736985901E+02  0.35940856909E+02  0.79459194501E+02  0.96254926141E+02  0.00000000000E+00 0.  1.
         11    1    1    2    0    0  0.48232631976E+02  0.35679242767E+02  0.10815466314E+03  0.12368033923E+03  0.00000000000E+00 0. -1.
</event>
<event>
 7    1  0.2581136E-009  0.1230805E+03  0.7561462E-02  0.1238100E+00
         -1   -1    0    0    0  501 -0.00000000000E+00  0.00000000000E+00  0.29418107335E+03  0.29418107335E+03  0.00000000000E+00 0.  1.
          1   -1    0    0  501    0  0.00000000000E+00 -0.00000000000E+00 -0.84394388006E+02  0.84394388006E+02  0.00000000000E+00 0. -1.
         25    2    1    2    0    0  0.45573667952E+02 -0.78098421879E+02  0.29627331574E+02  0.15715659656E+03  0.12507635410E+03 0.  0.
          5    1    3    3  502    0  0.42343912560E+01  0.32233443165E+02  0.21036381745E+02  0.38947742997E+02  0.41800000000E+01 0. -1.
         -5    1    3    3    0  502  0.41339276696E+02 -0.11033186504E+03  0.85909498285E+01  0.11820885356E+03  0.41800000000E+01 0. -1.
        -11    1    1    2    0    0 -0.45345279510E+02  0.50435168559E+02  0.18146366976E+03  0.19372393772E+03  0.00000000000E+00 0.  1.
         11    1    1    2    0    0 -0.22838844202E+00  0.27663253320E+02 -0.13043159942E+01  0.27694927076E+02  0.00000000000E+00 0. -1.
</event>
<event>
 7    1  0.2522928E-009  0.1047349E+03  0.7561462E-02  0.1270643E+00
          2   -1    0    0  501    0  0.00000000000E+00  0.00000000000E+00  0.14315402895E+03  0.14315402895E+03  0.00000000000E+00 0. -1.
         -2   -1    0    0    0  501 -0.00000000000E+00 -0.00000000000E+00 -0.92252196416E+02  0.92252196416E+02  0.00000000000E+00 0.  1.
         25    2    1    2    0    0 -0.18265213648E+02  0.10461938799E+02  0.24324070974E+02  0.12916051439E+03  0.12509079845E+03 0.  0.
          5    1    3    3  502    0  0.52192830469E+02 -0.94117659998E+01  0.14790456511E+02  0.55216871474E+02  0.41800000000E+01 0.  1.
         -5    1    3    3    0  502 -0.70458044117E+02  0.19873704798E+02  0.95336144622E+01  0.73943642917E+02  0.41800000000E+01 0.  1.
        -11    1    1    2    0    0  0.37333520865E+02  0.23415531722E+02 -0.17551171176E+02  0.47435456313E+02  0.00000000000E+00 0.  1.
         11    1    1    2    0    0 -0.19068307217E+02 -0.33877470520E+02  0.44128932735E+02  0.58810254661E+02  0.00000000000E+00 0. -1.
</event>
<event>
 7    1  0.2522928E-009  0.1126082E+03  0.7561462E-02  0.1255815E+00
          1   -1    0    0  501    0  0.00000000000E+00  0.00000000000E+00  0.12079904801E+03  0.12079904801E+03  0.00000000000E+00 0. -1.
         -1   -1    0    0    0  501 -0.00000000000E+00 -0.00000000000E+00 -0.11377479276E+03  0.11377479276E+03  0.00000000000E+00 0.  1.
         25    2    1    2    0    0  0.39797046447E+02  0.21098138843E+02 -0.61107476226E+01  0.13309404949E+03  0.12509096052E+03 0.  0.
          5    1    3    3  502    0  0.42783110405E+02  0.68879257217E+02 -0.18903420617E+02  0.83364010950E+02  0.41800000000E+01 0.  1.
         -5    1    3    3    0  502 -0.29860639581E+01 -0.47781118373E+02  0.12792672994E+02  0.49730038541E+02  0.41800000000E+01 0.  1.
        -11    1    1    2    0    0 -0.55241334397E+02  0.14543294993E+02 -0.73008332661E+01  0.57588320184E+02  0.00000000000E+00 0.  1.
         11    1    1    2    0    0  0.15444287950E+02 -0.35641433836E+02  0.20435836138E+02  0.43891471094E+02  0.00000000000E+00 0. -1.
</event>
<event>
 7    1  0.2522928E-009  0.1281434E+03  0.7561462E-02  0.1230237E+00
          1   -1    0    0  501    0  0.00000000000E+00  0.00000000000E+00  0.37791934813E+03  0.37791934813E+03  0.00000000000E+00 0. -1.
         -1   -1    0    0    0  501 -0.00000000000E+00 -0.00000000000E+00 -0.66291911416E+02  0.66291911416E+02  0.00000000000E+00 0.  1.
         25    2    1    2    0    0  0.86528160133E+02 -0.69413617648E+02  0.20788182594E+03  0.26676697364E+03  0.12507754338E+03 0.  0.
          5    1    3    3  502    0  0.62262525354E+02 -0.58856854651E+02  0.22090755379E+03  0.23697757515E+03  0.41800000000E+01 0.  1.
         -5    1    3    3    0  502  0.24265634779E+02 -0.10556762998E+02 -0.13025727853E+02  0.29789398488E+02  0.41800000000E+01 0.  1.
        -11    1    1    2    0    0 -0.10097572261E+03  0.35808676947E+02  0.72792737562E+02  0.12952660168E+03  0.00000000000E+00 0.  1.
         11    1    1    2    0    0  0.14447562480E+02  0.33604940701E+02  0.30952873216E+02  0.47917684225E+02  0.00000000000E+00 0. -1.
</event>
<event>
 7    1  0.2522928E-009  0.1072863E+03  0.7561462E-02  0.1265679E+00
         -2   -1    0    0    0  501 -0.00000000000E+00  0.00000000000E+00  0.67302161182E+03  0.67302161182E+03  0.00000000000E+00 0.  1.
          2   -1    0    0  501    0  0.00000000000E+00 -0.00000000000E+00 -0.23538836872E+02  0.23538836872E+02  0.00000000000E+00 0. -1.
         25    2    1    2    0    0  0.43229760942E+02 -0.21206423939E+02  0.25291170648E+03  0.28623484289E+03  0.12509008497E+03 0.  0.
          5    1    3    3  502    0  0.73784373875E+02  0.28832898768E+01  0.22835992592E+03  0.24003786234E+03  0.41800000000E+01 0. -1.
         -5    1    3    3    0  502 -0.30554612933E+02 -0.24089713816E+02  0.24551780562E+02  0.46196980550E+02  0.41800000000E+01 0. -1.
        -11    1    1    2    0    0 -0.15272307036E+02  0.55311589506E+02  0.27701203953E+03  0.28289270995E+03  0.00000000000E+00 0.  1.
         11    1    1    2    0    0 -0.27957453906E+02 -0.34105165567E+02  0.11955902894E+03  0.12743289586E+03  0.00000000000E+00 0. -1.
</event>
<event>
 7    1  0.2522928E-009  0.1152381E+03  0.7561462E-02  0.1251166E+00
          2   -1    0    0  501    0  0.00000000000E+00  0.00000000000E+00  0.43803167239E+03  0.43803167239E+03  0.00000000000E+00 0. -1.
         -2   -1    0    0    0  501 -0.00000000000E+00 -0.00000000000E+00 -0.53942998006E+02  0.53942998006E+02  0.00000000000E+00 0.  1.
         25    2    1    2    0    0  0.49813292868E+02  0.25426626959E+02  0.58837185334E+02  0.14911732028E+03  0.12508510432E+03 0.  0.
          5    1    3    3  502    0 -0.27931120788E+02  0.40938674524E+02 -0.93536857854E+00  0.49744043811E+02  0.41800000000E+01 0. -1.
         -5    1    3    3    0  502  0.77744413656E+02 -0.15512047565E+02  0.59772553912E+02  0.99373276466E+02  0.41800000000E+01 0. -1.
        -11    1    1    2    0    0  0.42714564450E+01 -0.43971325533E+02  0.83839347754E+02  0.94766866789E+02  0.00000000000E+00 0.  1.
         11    1    1    2    0    0 -0.54084749313E+02  0.18544698574E+02  0.24141214130E+03  0.24809048333E+03  0.00000000000E+00 0. -1.
</event>
<event>
 7    1  0.2522928E-009  0.1081797E+03  0.7561462E-02  0.1263978E+00
          2   -1    0    0  501    0  0.00000000000E+00  0.00000000000E+00  0.35582971448E+03  0.35582971448E+03  0.00000000000E+00 0. -1.
         -2   -1    0    0    0  501 -0.00000000000E+00 -0.00000000000E+00 -0.87700493048E+02  0.87700493048E+02  0.00000000000E+00 0.  1.
         25    2    1    2    0    0  0.64665007750E+02 -0.53851634570E+02  0.28861568345E+03  0.32561834852E+03  0.12508690733E+03 0.  0.
          5    1    3    3  502    0  0.25982672903E+02 -0.59947849123E+02  0.27689397973E+03  0.28452871967E+03  0.41800000000E+01 0. -1.
         -5    1    3    3    0  502  0.38682334847E+02  0.60962145526E+01  0.11721703721E+02  0.41089628852E+02  0.41800000000E+01 0. -1.
        -11    1    1    2    0    0  0.36376307133E+01  0.42032301086E+02  0.80490851761E+01  0.42950372105E+02  0.00000000000E+00 0.  1.
         11    1    1    2    0    0 -0.68302638463E+02  0.11819333484E+02 -0.28535547194E+02  0.74961486903E+02  0.00000000000E+00 0. -1.
</event>
<event>
 7    1  0.2522928E-009  0.1033180E+03  0.7561462E-02  0.1273470E+00
         -2   -1    0    0    0  501 -0.00000000000E+00  0.00000000000E+00  0.49803742966E+02  0.49803742966E+02  0.00000000000E+00 0.  1.
          2   -1    0    0  501    0  0.00000000000E+00 -0.00000000000E+00 -0.29524431934E+03  0.29524431934E+03  0.00000000000E+00 0. -1.
         25    2    1    2    0    0  0.45978899747E+02  0.38826946512E+02 -0.14643659572E+03  0.20177251388E+03  0.12508748856E+03 0.  0.
          5    1    3    3  502    0 -0.22939933267E+02  0.59973289127E+02 -0.87211254807E+02  0.10838040096E+03  0.41800000000E+01 0. -1.
         -5    1    3    3    0  502  0.68918833014E+02 -0.21146342615E+02 -0.59225340911E+02  0.93392112922E+02  0.41800000000E+01 0. -1.
        -11    1    1    2    0    0 -0.42342963866E+02 -0.13429457558E+02 -0.36964605569E+01  0.44575113460E+02  0.00000000000E+00 0.  1.
         11    1    1    2    0    0 -0.36359358805E+01 -0.25397488954E+02 -0.95307520096E+02  0.98700434962E+02  0.00000000000E+00 0. -1.
</event>
<event>
 7    1  0.2522928E-009  0.1397538E+03  0.7561462E-02  0.1213661E+00
         -2   -1    0    0    0  501 -0.00000000000E+00  0.00000000000E+00  0.71852585268E+02  0.71852585268E+02  0.00000000000E+00 0.  1.
          2   -1    0    0  501    0  0.00000000000E+00 -0.00000000000E+00 -0.27885744392E+03  0.27885744392E+03  0.00000000000E+00 0. -1.
         25    2    1    2    0    0  0.75964946741E+02  0.48656418597E+02 -0.90873257030E+02  0.17900820779E+03  0.12509144419E+03 0.  0.
          5    1    3    3  502    0 -0.28160300171E+02 -0.13717181252E+02 -0.28135948360E+02  0.42311553474E+02  0.41800000000E+01 0.  1.
         -5    1    3    3    0  502  0.10412524691E+03  0.62373599849E+02 -0.62737308670E+02  0.13669665432E+03  0.41800000000E+01 0.  1.
        -11    1    1    2    0    0  0.77110458999E+01  0.17931548789E+02 -0.18873109244E+02  0.27151333731E+02  0.00000000000E+00 0.  1.
         11    1    1    2    0    0 -0.83675992641E+02 -0.66587967386E+02 -0.97258492379E+02  0.14455048767E+03  0.00000000000E+00 0. -1.
</event>
<event>
 7    1  0.2522928E-009  0.1903505E+03  0.7561462E-02  0.1158146E+00
          2   -1    0    0  501    0  0.00000000000E+00  0.00000000000E+00  0.92059289623E+03  0.92059289623E+03  0.00000000000E+00 0.  1.
         -2   -1    0    0    0  501 -0.00000000000E+00 -0.00000000000E+00 -0.54929600309E+02  0.54929600309E+02  0.00000000000E+00 0. -1.
         25    2    1    2    0    0  0.17421891608E+03  0.80600627031E+01  0.64979889051E+03  0.68432703487E+03  0.12509075593E+03 0.  0.
          5    1    3    3  502    0  0.24986676363E+01 -0.15361735252E+02  0.22414836162E+03  0.22472691576E+03  0.41800000000E+01 0.  1.
         -5    1    3    3    0  502  0.17172024844E+03  0.23421797955E+02  0.42565052889E+03  0.45960011911E+03  0.41800000000E+01 0.  1.
        -11    1    1    2    0    0 -0.16116211678E+03 -0.31671019839E+02  0.16068870493E+03  0.22977628528E+03  0.00000000000E+00 0. -1.
         11    1    1    2    0    0 -0.13056799297E+02  0.23610957136E+02  0.55175700475E+02  0.61419176384E+02  0.00000000000E+00 0.  1.
</event>
<event>
 7    1  0.2522928E-009  0.1157612E+03  0.7561462E-02  0.1250258E+00
         -2   -1    0    0    0  501 -0.00000000000E+00  0.00000000000E+00  0.21616033690E+02  0.21616033690E+02  0.00000000000E+00 0.  1.
          2   -1    0    0  501    0  0.00000000000E+00 -0.00000000000E+00 -0.64284653130E+03  0.64284653130E+03  0.00000000000E+00 0. -1.
         25    2    1    2    0    0  0.41942389565E+02 -0.16735929887E+02 -0.30960851010E+03  0.33695090421E+03  0.12505689477E+03 0.  0.
          5    1    3    3  502    0  0.79754162673E+02 -0.38136744959E+02 -0.22418670664E+03  0.24102342130E+03  0.41800000000E+01 0. -1.
         -5    1    3    3    0  502 -0.37811773108E+02  0.21400815071E+02 -0.85421803462E+02  0.95927482913E+02  0.41800000000E+01 0. -1.
        -11    1    1    2    0    0 -0.69055380150E+02  0.33554636352E+01 -0.24024294088E+03  0.24999315051E+03  0.00000000000E+00 0.  1.
         11    1    1    2    0    0  0.27112990585E+02  0.13380466252E+02 -0.71379046633E+02  0.77518510266E+02  0.00000000000E+00 0. -1.
</event>
<event>
 7    1  0.2522928E-009  0.1591270E+03  0.7561462E-02  0.1189686E+00
          2   -1    0    0  501    0  0.00000000000E+00  0.00000000000E+00  0.14657832131E+04  0.14657832131E+04  0.00000000000E+00 0. -1.
         -2   -1    0    0    0  501 -0.00000000000E+00 -0.00000000000E+00 -0.22533996277E+02  0.22533996277E+02  0.00000000000E+00 0.  1.
         25    2    1    2    0    0  0.10849630923E+03  0.65586446036E+02  0.10545289684E+04  0.10694633706E+04  0.12509006715E+03 0.  0.
          5    1    3    3  502    0  0.90777937449E+02  0.96604730983E+02  0.65338056861E+03  0.66670589304E+03  0.41800000000E+01 0.  1.
         -5    1    3    3    0  502  0.17718371778E+02 -0.31018284947E+02  0.40114839975E+03  0.40275747755E+03  0.41800000000E+01 0.  1.
        -11    1    1    2    0    0  0.10741953906E+02 -0.18635234278E+02  0.11002280758E+03  0.11210566318E+03  0.00000000000E+00 0. -1.
         11    1    1    2    0    0 -0.11923826313E+03 -0.46951211758E+02  0.27869744086E+03  0.30674817558E+03  0.00000000000E+00 0.  1.
</event>
<event>
 7    1  0.2522928E-009  0.8781785E+02  0.7561462E-02  0.1308224E+00
         -1   -1    0    0    0  501 -0.00000000000E+00  0.00000000000E+00  0.52896427482E+03  0.52896427482E+03  0.00000000000E+00 0.  1.
          1   -1    0    0  501    0  0.00000000000E+00 -0.00000000000E+00 -0.27845965184E+02  0.27845965184E+02  0.00000000000E+00 0. -1.
         25    2    1    2    0    0 -0.66417008474E+01  0.33803576852E+02  0.36422874040E+03  0.38664711379E+03  0.12508645518E+03 0.  0.
          5    1    3    3  502    0 -0.23916196950E+02  0.69511544491E+02  0.31395028695E+03  0.32246874944E+03  0.41800000000E+01 0. -1.
         -5    1    3    3    0  502  0.17274496102E+02 -0.35707967639E+02  0.50278453457E+02  0.64178364349E+02  0.41800000000E+01 0. -1.
        -11    1    1    2    0    0 -0.20246292384E+02 -0.28098620530E+02  0.13836840987E+03  0.14263681741E+03  0.00000000000E+00 0.  1.
         11    1    1    2    0    0  0.26887993231E+02 -0.57049563220E+01 -0.14788406352E+01  0.27526308802E+02  0.00000000000E+00 0. -1.
</event>
<event>
 7    1  0.2522928E-009  0.1371325E+03  0.7561462E-02  0.1217240E+00
          2   -1    0    0  501    0  0.00000000000E+00  0.00000000000E+00  0.10868697788E+04  0.10868697788E+04  0.00000000000E+00 0. -1.
         -2   -1    0    0    0  501 -0.00000000000E+00 -0.00000000000E+00 -0.19817016049E+02  0.19817016049E+02  0.00000000000E+00 0.  1.
         25    2    1    2    0    0  0.83100685796E+02  0.50763987023E+02  0.51516746877E+03  0.53900601031E+03  0.12508897598E+03 0.  0.
          5    1    3    3  502    0  0.26093748421E+02  0.74778778547E+02  0.16125203166E+03  0.17970097257E+03  0.41800000000E+01 0.  1.
         -5    1    3    3    0  502  0.57006937375E+02 -0.24014791524E+02  0.35391543711E+03  0.35930503774E+03  0.41800000000E+01 0.  1.
        -11    1    1    2    0    0 -0.26856992758E+02 -0.68826874301E+02  0.30094728753E+03  0.30988337574E+03  0.00000000000E+00 0.  1.
         11    1    1    2    0    0 -0.56243693039E+02  0.18062887278E+02  0.25093800641E+03  0.25779740876E+03  0.00000000000E+00 0. -1.
</event>
<event>
 7    1  0.2522928E-009  0.1157355E+03  0.7561462E-02  0.1250303E+00
         -2   -1    0    0    0  501 -0.00000000000E+00  0.00000000000E+00  0.51949087355E+02  0.51949087355E+02  0.00000000000E+00 0.  1.
          2   -1    0    0  501    0  0.00000000000E+00 -0.00000000000E+00 -0.27678710471E+03  0.27678710471E+03  0.00000000000E+00 0. -1.
         25    2    1    2    0    0  0.25794403967E+02 -0.42319848244E+02 -0.12403312379E+03  0.18300336330E+03  0.12509873841E+03 0.  0.
          5    1    3    3  502    0 -0.37705408991E+02 -0.49485558106E+02 -0.92674050060E+02  0.11169812121E+03  0.41800000000E+01 0.  1.
         -5    1    3    3    0  502  0.63499812958E+02  0.71657098627E+01 -0.31359073726E+02  0.71305242083E+02  0.41800000000E+01 0.  1.
        -11    1    1    2    0    0 -0.46245989695E+02  0.61561869103E+02 -0.70160131147E+02  0.10416812993E+03  0.00000000000E+00 0. -1.
         11    1    1    2    0    0  0.20451585728E+02 -0.19242020860E+02 -0.30644762418E+02  0.41564698835E+02  0.00000000000E+00 0.  1.
</event>
<event>
 7    1  0.2522928E-009  0.1006282E+03  0.7561462E-02  0.1278980E+00
         -2   -1    0    0    0  501 -0.00000000000E+00  0.00000000000E+00  0.31275957330E+02  0.31275957330E+02  0.00000000000E+00 0. -1.
          2   -1    0    0  501    0  0.00000000000E+00 -0.00000000000E+00 -0.45048908858E+03  0.45048908858E+03  0.00000000000E+00 0.  1.
         25    2    1    2    0    0  0.10322248864E+01  0.16858229667E+02 -0.14436537323E+03  0.19175676291E+03  0.12507609579E+03 0.  0.
          5    1    3    3  502    0 -0.38484881806E+02 -0.40568611484E+02 -0.57745801406E+02  0.80491914783E+02  0.41800000000E+01 0. -1.
         -5    1    3    3    0  502  0.39517106692E+02  0.57426841151E+02 -0.86619571821E+02  0.11126484813E+03  0.41800000000E+01 0. -1.
        -11    1    1    2    0    0 -0.22766593741E+02  0.21464680114E+02 -0.38607458665E+02  0.49694930803E+02  0.00000000000E+00 0. -1.
         11    1    1    2    0    0  0.21734368855E+02 -0.38322909782E+02 -0.23624029935E+03  0.24031335219E+03  0.00000000000E+00 0.  1.
</event>
<event>
 7    1  0.2522928E-009  0.2498404E+03  0.7561462E-02  0.1113406E+00
         -1   -1    0    0    0  501 -0.00000000000E+00  0.00000000000E+00  0.20332046588E+03  0.20332046588E+03  0.00000000000E+00 0.  1.
          1   -1    0    0  501    0  0.00000000000E+00 -0.00000000000E+00 -0.34322122618E+03  0.34322122618E+03  0.00000000000E+00 0. -1.
         25    2    1    2    0    0  0.18647423756E+03 -0.15055046100E+03 -0.75510551686E+02  0.28069088054E+03  0.12508974546E+03 0.  0.
          5    1    3    3  502    0  0.56911282097E+02 -0.22890099227E+02 -0.77267464862E+02  0.98745046451E+02  0.41800000000E+01 0. -1.
         -5    1    3    3    0  502  0.12956295546E+03 -0.12766036177E+03  0.17569131764E+01  0.18194583408E+03  0.41800000000E+01 0. -1.
        -11    1    1    2    0    0 -0.11331059634E+03  0.33385138638E+02 -0.44797481617E+02  0.12633555748E+03  0.00000000000E+00 0. -1.
         11    1    1    2    0    0 -0.73163641218E+02  0.11716532236E+03 -0.19592726997E+02  0.13951525405E+03  0.00000000000E+00 0.  1.
</event>
<event>
 7    1  0.2522928E-009  0.1191522E+03  0.7561462E-02  0.1244502E+00
         -2   -1    0    0    0  501 -0.00000000000E+00  0.00000000000E+00  0.88449444396E+02  0.88449444396E+02  0.00000000000E+00 0.  1.
          2   -1    0    0  501    0  0.00000000000E+00 -0.00000000000E+00 -0.20034292796E+03  0.20034292796E+03  0.00000000000E+00 0. -1.
         25    2    1    2    0    0  0.20160296727E+02 -0.78409371388E+02 -0.75483912040E+02  0.16703207399E+03  0.12508967055E+03 0.  0.
          5    1    3    3  502    0 -0.12284791737E+01  0.26490372106E+02 -0.50233360396E+02  0.56957105545E+02  0.41800000000E+01 0.  1.
         -5    1    3    3    0  502  0.21388775901E+02 -0.10489974349E+03 -0.25250551644E+02  0.11007496844E+03  0.41800000000E+01 0.  1.
        -11    1    1    2    0    0 -0.43691516183E+02  0.39789402291E+02  0.64599910197E+01  0.59446417933E+02  0.00000000000E+00 0.  1.
         11    1    1    2    0    0  0.23531219456E+02  0.38619969096E+02 -0.42869562546E+02  0.62313880436E+02  0.00000000000E+00 0. -1.
</event>
<event>
 6    1  0.2522928E-009  0.1027275E+03  0.7561462E-02  0.1274663E+00
          1   -1    0    0  501    0  0.00000000000E+00  0.00000000000E+00  0.65895471360E+02  0.65895471360E+02  0.00000000000E+00 0. -1.
         -1   -1    0    0    0  501 -0.00000000000E+00 -0.00000000000E+00 -0.22429733461E+03  0.22429733461E+03  0.00000000000E+00 0.  1.
          5    1    1    2  502    0 -0.56513930709E+02  0.32969644503E+02 -0.13057734795E+03  0.14611207349E+03  0.41800000000E+01 0. -1.
         -5    1    1    2    0  502  0.39947729678E+02 -0.10088723993E+02 -0.69442076747E+01  0.41991640579E+02  0.41800000000E+01 0. -1.
        -11    1    1    2    0    0  0.11430895337E+02  0.36822692738E+02  0.22559419501E+00  0.38556801753E+02  0.00000000000E+00 0. -1.
         11    1    1    2    0    0  0.51353056945E+01 -0.59703613247E+02 -0.21105901820E+02  0.63532290145E+02  0.00000000000E+00 0.  1.
</event>
<event>
 7    1  0.2522928E-009  0.1091490E+03  0.7561462E-02  0.1262154E+00
          1   -1    0    0  501    0  0.00000000000E+00  0.00000000000E+00  0.56091148381E+03  0.56091148381E+03  0.00000000000E+00 0. -1.
         -1   -1    0    0    0  501 -0.00000000000E+00 -0.00000000000E+00 -0.30950603624E+02  0.30950603624E+02  0.00000000000E+00 0.  1.
         25    2    1    2    0    0 -0.22375086650E+02 -0.37954332009E+02  0.42767869186E+03  0.44777006161E+03  0.12509112193E+03 0.  0.
          5    1    3    3  502    0 -0.49165350248E+02 -0.69248832425E+02  0.21707477840E+03  0.23313421944E+03  0.41800000000E+01 0. -1.
         -5    1    3    3    0  502  0.26790263598E+02  0.31294500416E+02  0.21060391346E+03  0.21463584217E+03  0.41800000000E+01 0. -1.
        -11    1    1    2    0    0 -0.34452682698E+01 -0.24258992514E+02  0.59365242748E+02  0.64223053787E+02  0.00000000000E+00 0. -1.
         11    1    1    2    0    0  0.25820354920E+02  0.62213324523E+02  0.42916945583E+02  0.79868972039E+02  0.00000000000E+00 0.  1.
</event>
<event>
 7    1  0.2522928E-009  0.9856899E+02  0.7561462E-02  0.1283334E+00
         -2   -1    0    0    0  501 -0.00000000000E+00  0.00000000000E+00  0.27516399245E+03  0.27516399245E+03  0.00000000000E+00 0.  1.
          2   -1    0    0  501    0  0.00000000000E+00 -0.00000000000E+00 -0.19732763950E+03  0.19732763950E+03  0.00000000000E+00 0. -1.
         25    2    1    2    0    0  0.22727393654E+02 -0.66147828471E+02 -0.15655480550E+03  0.21224793626E+03  0.12509080577E+03 0.  0.
          5    1    3    3  502    0 -0.13384712217E+02 -0.69034454969E+02 -0.16078115629E+03  0.17553620457E+03  0.41800000000E+01 0. -1.
         -5    1    3    3    0  502  0.36112105872E+02  0.28866264981E+01  0.42263507921E+01  0.36711731695E+02  0.41800000000E+01 0. -1.
        -11    1    1    2    0    0  0.12343715252E+01  0.66252689751E+02  0.22491964688E+03  0.23447769643E+03  0.00000000000E+00 0.  1.
         11    1    1    2    0    0 -0.23961765180E+02 -0.10486128011E+00  0.94715115698E+01  0.25765999259E+02  0.00000000000E+00 0. -1.
</event>
<event>
 7    1  0.2522928E-009  0.8907140E+02  0.7561462E-02  0.1305116E+00
         -1   -1    0    0    0  501 -0.00000000000E+00  0.00000000000E+00  0.22163640152E+03  0.22163640152E+03  0.00000000000E+00 0.  1.
          1   -1    0    0  501    0  0.00000000000E+00 -0.00000000000E+00 -0.58809328639E+02  0.58809328639E+02  0.00000000000E+00 0. -1.
         25    2    1    2    0    0  0.12174050059E+02  0.29992865868E+02  0.12164494857E+03  0.17746188764E+03  0.12508976199E+03 0.  0.
          5    1    3    3  502    0  0.52679787035E+02  0.23035506713E+01  0.78572915832E+01  0.53475936072E+02  0.41800000000E+01 0. -1.
         -5    1    3    3    0  502 -0.40505736976E+02  0.27689315196E+02  0.11378765699E+03  0.12398595157E+03  0.41800000000E+01 0. -1.
        -11    1    1    2    0    0  0.23389311436E+02  0.72710529064E+01 -0.13411711881E+02  0.27924937160E+02  0.00000000000E+00 0. -1.
         11    1    1    2    0    0 -0.35563361494E+02 -0.37263918774E+02  0.54593836186E+02  0.75058905352E+02  0.00000000000E+00 0.  1.
</event>
<event>
 7    1  0.2522928E-009  0.7010378E+02  0.7561462E-02  0.1359740E+00
          1   -1    0    0  501    0  0.00000000000E+00  0.00000000000E+00  0.17920469964E+02  0.17920469964E+02  0.00000000000E+00 0. -1.
         -1   -1    0    0    0  501 -0.00000000000E+00 -0.00000000000E+00 -0.76339528895E+03  0.76339528895E+03  0.00000000000E+00 0.  1.
         25    2    1    2    0    0 -0.13712529406E+02 -0.54720782250E+01 -0.55021801011E+03  0.56445079394E+03  0.12508742154E+03 0.  0.
          5    1    3    3  502    0 -0.30633480056E+02 -0.63711847563E+00 -0.54464746290E+03  0.54552465321E+03  0.41800000000E+01 0. -1.
         -5    1    3    3    0  502  0.16920950650E+02 -0.48349597494E+01 -0.55705472134E+01  0.18926140730E+02  0.41800000000E+01 0. -1.
        -11    1    1    2    0    0 -0.14480599817E+02  0.42360599813E+02 -0.12383794576E+03  0.13168122492E+03  0.00000000000E+00 0.  1.
         11    1    1    2    0    0  0.28193129223E+02 -0.36888521588E+02 -0.71418863124E+02  0.85183740058E+02  0.00000000000E+00 0. -1.
</event>
<event>
 7    1  0.2522928E-009  0.1027172E+03  0.7561462E-02  0.1274684E+00
         -1   -1    0    0    0  501 -0.00000000000E+00  0.00000000000E+00  0.10981204961E+02  0.10981204961E+02  0.00000000000E+00 0.  1.
          1   -1    0    0  501    0  0.00000000000E+00 -0.00000000000E+00 -0.22466610419E+04  0.22466610419E+04  0.00000000000E+00 0. -1.
         25    2    1    2    0    0  0.25248406717E+02 -0.12991548857E+02 -0.19840872510E+04  0.19882294735E+04  0.12509179477E+03 0.  0.
          5    1    3    3  502    0 -0.44340972917E+02 -0.23884456870E+02 -0.11696660599E+04  0.11707573418E+04  0.41800000000E+01 0. -1.
         -5    1    3    3    0  502  0.69589379634E+02  0.10892908013E+02 -0.81442119109E+03  0.81747213169E+03  0.41800000000E+01 0. -1.
        -11    1    1    2    0    0 -0.54168397929E+02  0.11511910475E+02 -0.93331571971E+02  0.10852429103E+03  0.00000000000E+00 0.  1.
         11    1    1    2    0    0  0.28919991211E+02  0.14796383822E+01 -0.15826101394E+03  0.16088848235E+03  0.00000000000E+00 0. -1.
</event>
<event>
 7    1  0.2522928E-009  0.1377080E+03  0.7561462E-02  0.1216447E+00
          2   -1    0    0  501    0  0.00000000000E+00  0.00000000000E+00  0.23331324032E+04  0.23331324032E+04  0.00000000000E+00 0. -1.
         -2   -1    0    0    0  501 -0.00000000000E+00 -0.00000000000E+00 -0.24692826911E+02  0.24692826911E+02  0.00000000000E+00 0.  1.
         25    2    1    2    0    0  0.13226089547E+03 -0.81007324623E+01  0.20356019288E+04  0.20437418415E+04  0.12508771166E+03 0.  0.
          5    1    3    3  502    0  0.51079256058E+02  0.22587160837E+02  0.15074750746E+04  0.15085151120E+04  0.41800000000E+01 0.  1.
         -5    1    3    3    0  502  0.81181639408E+02 -0.30687893299E+02  0.52812685426E+03  0.53522672949E+03  0.41800000000E+01 0.  1.
        -11    1    1    2    0    0 -0.78229762745E+02  0.39219582668E+01  0.73153070528E+02  0.10717578674E+03  0.00000000000E+00 0.  1.
         11    1    1    2    0    0 -0.54031132721E+02  0.41787741955E+01  0.19968457689E+03  0.20690760185E+03  0.00000000000E+00 0. -1.
</event>
<event>
 7    1  0.2522928E-009  0.1180648E+03  0.7561462E-02  0.1246324E+00
         -1   -1    0    0    0  501 -0.00000000000E+00  0.00000000000E+00  0.80894027220E+03  0.80894027220E+03  0.00000000000E+00 0.  1.
          1   -1    0    0  501    0  0.00000000000E+00 -0.00000000000E+00 -0.18791905269E+02  0.18791905269E+02  0.00000000000E+00 0. -1.
         25    2    1    2    0    0 -0.36059367981E+02 -0.45711500651E+02  0.47971857593E+03  0.49917390993E+03  0.12511938681E+03 0.  0.
          5    1    3    3  502    0 -0.62596150142E+02  0.20895159842E+02  0.22269646278E+03  0.23230598927E+03  0.41800000000E+01 0.  1.
         -5    1    3    3    0  502  0.26536782161E+02 -0.66606660493E+02  0.25702211315E+03  0.26686792066E+03  0.41800000000E+01 0.  1.
        -11    1    1    2    0    0  0.59567832281E+02  0.45020601901E+02  0.28171097033E+03  0.29143824739E+03  0.00000000000E+00 0.  1.
         11    1    1    2    0    0 -0.23508464300E+02  0.69089874969E+00  0.28718820674E+02  0.37120020147E+02  0.00000000000E+00 0. -1.
</event>
<event>
 7    1  0.2522928E-009  0.1233472E+03  0.7561462E-02  0.1237675E+00
          1   -1    0    0  501    0  0.00000000000E+00  0.00000000000E+00  0.33844480836E+03  0.33844480836E+03  0.00000000000E+00 0. -1.
         -1   -1    0    0    0  501 -0.00000000000E+00 -0.00000000000E+00 -0.65082540874E+02  0.65082540874E+02  0.00000000000E+00 0.  1.
         25    2    1    2    0    0 -0.68276867301E+02 -0.75684486409E+02  0.13623763940E+03  0.21118069615E+03  0.12508684961E+03 0.  0.
          5    1    3    3  502    0 -0.72102678855E+02 -0.88057764433E+02  0.15227143003E+03  0.19015001178E+03  0.41800000000E+01 0.  1.
         -5    1    3    3    0  502  0.38258115543E+01  0.12373278024E+02 -0.16033790634E+02  0.21030684373E+02  0.41800000000E+01 0.  1.
        -11    1    1    2    0    0  0.88187259071E+01  0.55814866275E+02  0.20817104446E+02  0.60219773010E+02  0.00000000000E+00 0.  1.
         11    1    1    2    0    0  0.59458141394E+02  0.19869620134E+02  0.11630752364E+03  0.13212688007E+03  0.00000000000E+00 0. -1.
</event>
<event>
 7    1  0.2522928E-009  0.1034888E+03  0.7561462E-02  0.1273126E+00
          1   -1    0    0  501    0  0.00000000000E+00  0.00000000000E+00  0.12180151682E+03  0.12180151682E+03  0.00000000000E+00 0. -1.
         -1   -1    0    0    0  501 -0.00000000000E+00 -0.00000000000E+00 -0.22359932546E+03  0.22359932546E+03  0.00000000000E+00 0.  1.
         25    2    1    2    0    0 -0.11467622850E+02 -0.54185066120E+02 -0.17284194889E+03  0.22042944958E+03  0.12508906900E+03 0.  0.
          5    1    3    3  502    0 -0.19246930707E+01 -0.94640261532E+02 -0.12625839403E+03  0.15785796783E+03  0.41800000000E+01 0.  1.
         -5    1    3    3    0  502 -0.95429297795E+01  0.40455195412E+02 -0.46583554865E+02  0.62571481750E+02  0.41800000000E+01 0.  1.
        -11    1    1    2    0    0 -0.16660395547E+02  0.16743250292E+02 -0.14308287115E+02  0.27615797840E+02  0.00000000000E+00 0.  1.
         11    1    1    2    0    0  0.28128018397E+02  0.37441815828E+02  0.85352427368E+02  0.97355594852E+02  0.00000000000E+00 0. -1.
</event>
<event>
 7    1  0.2522928E-009  0.9502505E+02  0.7561462E-02  0.1291120E+00
         -2   -1    0    0    0  501 -0.00000000000E+00  0.00000000000E+00  0.33830918560E+02  0.33830918560E+02  0.00000000000E+00 0.  1.
          2   -1    0    0  501    0  0.00000000000E+00 -0.00000000000E+00 -0.56215563962E+03  0.56215563962E+03  0.00000000000E+00 0. -1.
         25    2    1    2    0    0 -0.58792502544E+02 -0.71859518585E+02 -0.27004454724E+03  0.31173641965E+03  0.12504074966E+03 0.  0.
          5    1    3    3  502    0 -0.28175133977E+02 -0.55140844224E+02 -0.26954596200E+03  0.27659871458E+03  0.41800000000E+01 0. -1.
         -5    1    3    3    0  502 -0.30617368567E+02 -0.16718674361E+02 -0.49858524079E+00  0.35137705070E+02  0.41800000000E+01 0. -1.
        -11    1    1    2    0    0  0.25511720930E+02  0.32078993289E+02 -0.31715451880E+02  0.51824507747E+02  0.00000000000E+00 0.  1.
         11    1    1    2    0    0  0.33280781614E+02  0.39780525295E+02 -0.22656472194E+03  0.23242563079E+03  0.00000000000E+00 0. -1.
</event>
<event>
 7    1  0.2522928E-009  0.9834072E+02  0.7561462E-02  0.1283824E+00
          2   -1    0    0  501    0  0.00000000000E+00  0.00000000000E+00  0.22029673771E+03  0.22029673771E+03  0.00000000000E+00 0. -1.
         -2   -1    0    0    0  501 -0.00000000000E+00 -0.00000000000E+00 -0.70560124306E+02  0.70560124306E+02  0.00000000000E+00 0.  1.
         25    2    1    2    0    0 -0.54760570719E+02 -0.52369838839E+01  0.11756393915E+03  0.18026824618E+03  0.12509682124E+03 0.  0.
          5    1    3    3  502    0 -0.32749138973E+02 -0.64835117678E+02  0.67905678373E+02  0.99522621264E+02  0.41800000000E+01 0. -1.
         -5    1    3    3    0  502 -0.22011431746E+02  0.59598133794E+02  0.49658260778E+02  0.80745624914E+02  0.41800000000E+01 0. -1.
        -11    1    1    2    0    0  0.52806940588E+01  0.92084593229E+01 -0.29540125857E+02  0.31389496468E+02  0.00000000000E+00 0.  1.
         11    1    1    2    0    0  0.49479876660E+02 -0.39714754390E+01  0.61712800105E+02  0.79199119366E+02  0.00000000000E+00 0. -1.
</event>
<event>
 7    1  0.2522928E-009  0.8259568E+02  0.7561462E-02  0.1321843E+00
         -1   -1    0    0    0  501 -0.00000000000E+00  0.00000000000E+00  0.58543523225E+03  0.58543523225E+03  0.00000000000E+00 0.  1.
          1   -1    0    0  501    0  0.00000000000E+00 -0.00000000000E+00 -0.30906011046E+02  0.30906011046E+02  0.00000000000E+00 0. -1.
         25    2    1    2    0    0  0.34177726652E+02  0.60175876229E+02  0.21633578011E+03  0.25930295345E+03  0.12509036265E+03 0.  0.
          5    1    3    3  502    0  0.27809381228E+02  0.62044755976E+02  0.23199493740E+03  0.24178924048E+03  0.41800000000E+01 0.  1.
         -5    1    3    3    0  502  0.63683454233E+01 -0.18688797473E+01 -0.15659157290E+02  0.17513712969E+02  0.41800000000E+01 0.  1.
        -11    1    1    2    0    0  0.12362965827E+02 -0.33215774513E+02  0.37600692510E+02  0.51671488054E+02  0.00000000000E+00 0. -1.
         11    1    1    2    0    0 -0.46540692479E+02 -0.26960101717E+02  0.30059274858E+03  0.30536680179E+03  0.00000000000E+00 0.  1.
</event>
<event>
 7    1  0.2522928E-009  0.2293878E+03  0.7561462E-02  0.1127071E+00
          2   -1    0    0  501    0  0.00000000000E+00  0.00000000000E+00  0.11383146189E+04  0.11383146189E+04  0.00000000000E+00 0. -1.
         -2   -1    0    0    0  501 -0.00000000000E+00 -0.00000000000E+00 -0.53141676902E+02  0.53141676902E+02  0.00000000000E+00 0.  1.
         25    2    1    2    0    0  0.18673123223E+03 -0.11243936876E+03  0.47973917028E+03  0.54157999582E+03  0.12509218854E+03 0.  0.
          5    1    3    3  502    0  0.60487357347E+02 -0.95684841469E+02  0.14918536560E+03  0.18731805838E+03  0.41800000000E+01 0. -1.
         -5    1    3    3    0  502  0.12624387489E+03 -0.16754527292E+02  0.33055380469E+03  0.35426193745E+03  0.41800000000E+01 0. -1.
        -11    1    1    2    0    0 -0.11697308554E+03  0.74293598165E+02  0.25176608786E+03  0.28738198355E+03  0.00000000000E+00 0.  1.
         11    1    1    2    0    0 -0.69758146692E+02  0.38145770596E+02  0.35366768388E+03  0.36249431646E+03  0.00000000000E+00 0. -1.
</event>
<event>
 7    1  0.2522928E-009  0.1016118E+03  0.7561462E-02  0.1276943E+00
         -2   -1    0    0    0  501 -0.00000000000E+00  0.00000000000E+00  0.48019119335E+02  0.48019119335E+02  0.00000000000E+00 0.  1.
          2   -1    0    0  501    0  0.00000000000E+00 -0.00000000000E+00 -0.24562756368E+03  0.24562756368E+03  0.00000000000E+00 0. -1.
         25    2    1    2    0    0 -0.24478944561E+01 -0.12736076393E+02 -0.91754002053E+02  0.15567454200E+03  0.12509023265E+03 0.  0.
          5    1    3    3  502    0 -0.40672698667E+02 -0.54769685797E+02 -0.43505576323E+02  0.81019716553E+02  0.41800000000E+01 0.  1.
         -5    1    3    3    0  502  0.38224804211E+02  0.42033609404E+02 -0.48248425729E+02  0.74654825442E+02  0.41800000000E+01 0.  1.
        -11    1    1    2    0    0 -0.35545743509E+01  0.44974319170E+02 -0.27014291149E+02  0.52584183078E+02  0.00000000000E+00 0.  1.
         11    1    1    2    0    0  0.60024688070E+01 -0.32238242777E+02 -0.78840151147E+02  0.85387957945E+02  0.00000000000E+00 0. -1.
</event>
<event>
 7    1  0.2522928E-009  0.1687955E+03  0.7561462E-02  0.1179110E+00
          2   -1    0    0  501    0  0.00000000000E+00  0.00000000000E+00  0.10216447909E+04  0.10216447909E+04  0.00000000000E+00 0. -1.
         -2   -1    0    0    0  501 -0.00000000000E+00 -0.00000000000E+00 -0.28440826714E+02  0.28440826714E+02  0.00000000000E+00 0.  1.
         25    2    1    2    0    0 -0.10443300012E+02  0.12927239963E+03  0.57803136361E+03  0.60546598226E+03  0.12509349515E+03 0.  0.
          5    1    3    3  502    0 -0.63002119402E+02  0.10354999456E+03  0.37453868809E+03  0.39368587693E+03  0.41800000000E+01 0.  1.
         -5    1    3    3    0  502  0.52558819390E+02  0.25722405071E+02  0.20349267553E+03  0.21178010532E+03  0.41800000000E+01 0.  1.
        -11    1    1    2    0    0 -0.37967879063E+02 -0.34861854535E+02  0.10872211583E+03  0.12032209777E+03  0.00000000000E+00 0.  1.
         11    1    1    2    0    0  0.48411179074E+02 -0.94410545095E+02  0.30645048475E+03  0.32429753759E+03  0.00000000000E+00 0. -1.
</event>
<event>
 7    1  0.2522928E-009  0.1182939E+03  0.7561462E-02  0.1245938E+00
          1   -1    0    0  501    0  0.00000000000E+00  0.00000000000E+00  0.13429714326E+03  0.13429714326E+03  0.00000000000E+00 0. -1.
         -1   -1    0    0    0  501 -0.00000000000E+00 -0.00000000000E+00 -0.16699785608E+03  0.16699785608E+03  0.00000000000E+00 0.  1.
         25    2    1    2    0    0 -0.67140807171E+02  0.60391878727E+02  0.23641807712E+02  0.15607709931E+03  0.12508420704E+03 0.  0.
          5    1    3    3  502    0 -0.46404478614E+02 -0.20730098929E+02  0.46679869349E+02  0.69134616796E+02  0.41800000000E+01 0. -1.
         -5    1    3    3    0  502 -0.20736328557E+02  0.81121977656E+02 -0.23038061637E+02  0.86942482509E+02  0.41800000000E+01 0. -1.
        -11    1    1    2    0    0  0.13436753902E+02 -0.43395063601E+02  0.20583239871E+02  0.49873316151E+02  0.00000000000E+00 0. -1.
         11    1    1    2    0    0  0.53704053270E+02 -0.16996815126E+02 -0.76925760405E+02  0.95344583884E+02  0.00000000000E+00 0.  1.
</event>
<event>
 7    1  0.2522928E-009  0.1202885E+03  0.7561462E-02  0.1242622E+00
         -2   -1    0    0    0  501 -0.00000000000E+00  0.00000000000E+00  0.33658610826E+02  0.33658610826E+02  0.00000000000E+00 0.  1.
          2   -1    0    0  501    0  0.00000000000E+00 -0.00000000000E+00 -0.60078996357E+03  0.60078996357E+03  0.00000000000E+00 0. -1.
         25    2    1    2    0    0 -0.47495061676E+02 -0.56143034210E-01 -0.13890956147E+03  0.19287023418E+03  0.12508907598E+03 0.  0.
          5    1    3    3  502    0  0.39928623417E+02  0.18645972925E+02 -0.43836460364E+02  0.62298273905E+02  0.41800000000E+01 0. -1.
         -5    1    3    3    0  502 -0.87423685093E+02 -0.18702115959E+02 -0.95073101106E+02  0.13057196028E+03  0.41800000000E+01 0. -1.
        -11    1    1    2    0    0  0.76619246471E+02  0.67901129308E+01 -0.33331342560E+03  0.34207375557E+03  0.00000000000E+00 0. -1.
         11    1    1    2    0    0 -0.29124184795E+02 -0.67339698966E+01 -0.94908365676E+02  0.99504584647E+02  0.00000000000E+00 0.  1.
</event>
<event>
 7    1  0.2522928E-009  0.2234411E+03  0.7561462E-02  0.1131343E+00
         -2   -1    0    0    0  501 -0.00000000000E+00  0.00000000000E+00  0.43920542293E+02  0.43920542293E+02  0.00000000000E+00 0.  1.
          2   -1    0    0  501    0  0.00000000000E+00 -0.00000000000E+00 -0.13061161574E+04  0.13061161574E+04  0.00000000000E+00 0. -1.
         25    2    1    2    0    0  0.15078677109E+03 -0.13722195723E+03 -0.82645303862E+03  0.86037095732E+03  0.12508814198E+03 0.  0.
          5    1    3    3  502    0  0.10609903782E+03 -0.19330178859E+02 -0.47070211573E+03  0.48291677937E+03  0.41800000000E+01 0. -1.
         -5    1    3    3    0  502  0.44687733266E+02 -0.11789177837E+03 -0.35575092289E+03  0.37745417795E+03  0.41800000000E+01 0. -1.
        -11    1    1    2    0    0 -0.11360839706E+03  0.13372225227E+03 -0.40471322447E+03  0.44111370722E+03  0.00000000000E+00 0. -1.
         11    1    1    2    0    0 -0.37178374032E+02  0.34997049622E+01 -0.31029351981E+02  0.48552035126E+02  0.00000000000E+00 0.  1.
</event>
<event>
 7    1  0.2522928E-009  0.7633501E+02  0.7561462E-02  0.1339786E+00
         -1   -1    0    0    0  501 -0.00000000000E+00  0.00000000000E+00  0.21459285229E+03  0.21459285229E+03  0.00000000000E+00 0.  1.
          1   -1    0    0  501    0  0.00000000000E+00 -0.00000000000E+00 -0.64975180515E+02  0.64975180515E+02  0.00000000000E+00 0. -1.
         25    2    1    2    0    0  0.24160567925E+02 -0.41914234541E+02  0.11237546809E+03  0.17497177201E+03  0.12508532717E+03 0.  0.
          5    1    3    3  502    0  0.55658467013E+02 -0.82031943520E+01  0.11549996341E+03  0.12854132135E+03  0.41800000000E+01 0. -1.
         -5    1    3    3    0  502 -0.31497899088E+02 -0.33711040189E+02 -0.31244953143E+01  0.46430450661E+02  0.41800000000E+01 0. -1.
        -11    1    1    2    0    0 -0.11900630154E+02  0.93497295041E+01  0.60748051458E+02  0.62604857605E+02  0.00000000000E+00 0.  1.
         11    1    1    2    0    0 -0.12259937771E+02  0.32564505037E+02 -0.23505847772E+02  0.41991403191E+02  0.00000000000E+00 0. -1.
</event>
<event>
 7    1  0.2522928E-009  0.1231748E+03  0.7561462E-02  0.1237950E+00
         -1   -1    0    0    0  501 -0.00000000000E+00  0.00000000000E+00  0.12758246890E+03  0.12758246890E+03  0.00000000000E+00 0.  1.
          1   -1    0    0  501    0  0.00000000000E+00 -0.00000000000E+00 -0.33393330586E+03  0.33393330586E+03  0.00000000000E+00 0. -1.
         25    2    1    2    0    0 -0.96267063726E+02 -0.23304258223E+02  0.53935858169E+02  0.16842023295E+03  0.12508342041E+03 0.  0.
          5    1    3    3  502    0 -0.89762165483E+02 -0.56659572603E+02  0.73317473388E+02  0.12907547336E+03  0.41800000000E+01 0. -1.
         -5    1    3    3    0  502 -0.65048982426E+01  0.33355314380E+02 -0.19381615219E+02  0.39344759588E+02  0.41800000000E+01 0. -1.
        -11    1    1    2    0    0  0.56444569150E+02  0.32327960116E+02 -0.59356252654E+02  0.88058225743E+02  0.00000000000E+00 0.  1.
         11    1    1    2    0    0  0.39822494576E+02 -0.90237018932E+01 -0.20093044247E+03  0.20503731607E+03  0.00000000000E+00 0. -1.
</event>
<event>
 7    1  0.2522928E-009  0.1427796E+03  0.7561462E-02  0.1209637E+00
          2   -1    0    0  501    0  0.00000000000E+00  0.00000000000E+00  0.60399121012E+03  0.60399121012E+03  0.00000000000E+00 0.  1.
         -2   -1    0    0    0  501 -0.00000000000E+00 -0.00000000000E+00 -0.40211154818E+02  0.40211154818E+02  0.00000000000E+00 0. -1.
         25    2    1    2    0    0 -0.84848295907E+02  0.41834512195E+02  0.18311164201E+03  0.24109352598E+03  0.12508738986E+03 0.  0.
          5    1    3    3  502    0 -0.87304134621E+02 -0.21172763893E+02  0.13246696452E+03  0.16011017126E+03  0.41800000000E+01 0.  1.
         -5    1    3    3    0  502  0.24558387135E+01  0.63007276088E+02  0.50644677495E+02  0.80983354724E+02  0.41800000000E+01 0.  1.
        -11    1    1    2    0    0  0.49990379670E+02  0.25866254463E+02  0.17245701420E+03  0.18140982037E+03  0.00000000000E+00 0.  1.
         11    1    1    2    0    0  0.34857916237E+02 -0.67700766659E+02  0.20821139909E+03  0.22169901859E+03  0.00000000000E+00 0. -1.
</event>
<event>
 7    1  0.2522928E-009  0.1313572E+03  0.7561462E-02  0.1225456E+00
          2   -1    0    0  501    0  0.00000000000E+00  0.00000000000E+00  0.40324715136E+03  0.40324715136E+03  0.00000000000E+00 0. -1.
         -2   -1    0    0    0  501 -0.00000000000E+00 -0.00000000000E+00 -0.60864173781E+02  0.60864173781E+02  0.00000000000E+00 0.  1.
         25    2    1    2    0    0  0.85496729471E+02  0.51725840307E+00  0.76600331229E+02  0.16979605333E+03  0.12511247210E+03 0.  0.
          5    1    3    3  502    0  0.14405722052E+02  0.56644549357E+02  0.16020582484E+02  0.60747520631E+02  0.41800000000E+01 0. -1.
         -5    1    3    3    0  502  0.71091007419E+02 -0.56127290954E+02  0.60579748745E+02  0.10904853270E+03  0.41800000000E+01 0. -1.
        -11    1    1    2    0    0  0.68173120710E+01  0.18038299814E+02  0.99387377752E+01  0.21694112396E+02  0.00000000000E+00 0.  1.
         11    1    1    2    0    0 -0.92314041542E+02 -0.18555558218E+02  0.25584390857E+03  0.27262115941E+03  0.00000000000E+00 0. -1.
</event>
<event>
 7    1  0.2522928E-009  0.1111883E+03  0.7561462E-02  0.1258385E+00
         -1   -1    0    0    0  501 -0.00000000000E+00  0.00000000000E+00  0.22014794398E+03  0.22014794398E+03  0.00000000000E+00 0.  1.
          1   -1    0    0  501    0  0.00000000000E+00 -0.00000000000E+00 -0.10800747319E+03  0.10800747319E+03  0.00000000000E+00 0. -1.
         25    2    1    2    0    0  0.78684452807E+02 -0.74933717401E+02  0.44787102285E+02  0.17164101957E+03  0.12509376464E+03 0.  0.
          5    1    3    3  502    0  0.30922649723E+02 -0.96298166525E+01 -0.41813016243E+02  0.53054164416E+02  0.41800000000E+01 0. -1.
         -5    1    3    3    0  502  0.47761803084E+02 -0.65303900749E+02  0.86600118528E+02  0.11858685516E+03  0.41800000000E+01 0. -1.
        -11    1    1    2    0    0 -0.99643375690E+01  0.80257544581E+01  0.58851488671E+02  0.60226227481E+02  0.00000000000E+00 0.  1.
         11    1    1    2    0    0 -0.68720115238E+02  0.66907962943E+02  0.85018798283E+01  0.96288170115E+02  0.00000000000E+00 0. -1.
</event>
<event>
 7    1  0.2522928E-009  0.1221090E+03  0.7561462E-02  0.1239658E+00
          2   -1    0    0  501    0  0.00000000000E+00  0.00000000000E+00  0.73754140392E+03  0.73754140392E+03  0.00000000000E+00 0. -1.
         -2   -1    0    0    0  501 -0.00000000000E+00 -0.00000000000E+00 -0.20620924094E+02  0.20620924094E+02  0.00000000000E+00 0.  1.
         25    2    1    2    0    0  0.26555554435E+01 -0.50554787209E+02  0.43659134422E+03  0.45697091184E+03  0.12509026314E+03 0.  0.
          5    1    3    3  502    0  0.63072085493E+02 -0.35135804691E+02  0.24431454510E+03  0.25479341060E+03  0.41800000000E+01 0.  1.
         -5    1    3    3    0  502 -0.60416530049E+02 -0.15418982517E+02  0.19227679912E+03  0.20217750123E+03  0.41800000000E+01 0.  1.
        -11    1    1    2    0    0 -0.49795141166E+02  0.28323305729E+02  0.12929959322E+03  0.14142188847E+03  0.00000000000E+00 0.  1.
         11    1    1    2    0    0  0.47139585722E+02  0.22231481480E+02  0.15102954239E+03  0.15976952771E+03  0.00000000000E+00 0. -1.
</event>
<event>
 7    1  0.2522928E-009  0.1232248E+03  0.7561462E-02  0.1237870E+00
         -2   -1    0    0    0  501 -0.00000000000E+00  0.00000000000E+00  0.37851960956E+03  0.37851960956E+03  0.00000000000E+00 0.  1.
          2   -1    0    0  501    0  0.00000000000E+00 -0.00000000000E+00 -0.48802929462E+02  0.48802929462E+02  0.00000000000E+00 0. -1.
         25    2    1    2    0    0 -0.37900558827E+02  0.68534438983E+02  0.22830081451E+03  0.27184934479E+03  0.12508949865E+03 0.  0.
          5    1    3    3  502    0  0.47218756733E+01 -0.34817052928E+02  0.62843166440E+02  0.72119756327E+02  0.41800000000E+01 0. -1.
         -5    1    3    3    0  502 -0.42622434501E+02  0.10335149191E+03  0.16545764807E+03  0.19972958847E+03  0.41800000000E+01 0. -1.
        -11    1    1    2    0    0 -0.16085224780E+02 -0.25517380766E+02 -0.29892834793E+01  0.30311829260E+02  0.00000000000E+00 0. -1.
         11    1    1    2    0    0  0.53985783607E+02 -0.43017058217E+02  0.10440514906E+03  0.12516136497E+03  0.00000000000E+00 0.  1.
</event>
<event>
 7    1  0.2522928E-009  0.7988156E+02  0.7561462E-02  0.1329388E+00
         -1   -1    0    0    0  501 -0.00000000000E+00  0.00000000000E+00  0.64090701680E+02  0.64090701680E+02  0.00000000000E+00 0.  1.
          1   -1    0    0  501    0  0.00000000000E+00 -0.00000000000E+00 -0.23582299418E+03  0.23582299418E+03  0.00000000000E+00 0. -1.
         25    2    1    2    0    0 -0.10294737298E+02  0.27691059522E+02 -0.36167604078E+02  0.13352348119E+03  0.12509055940E+03 0.  0.
          5    1    3    3  502    0  0.92077845997E+01 -0.14881845774E+02 -0.72125162743E+02  0.74335483664E+02  0.41800000000E+01 0.  1.
         -5    1    3    3    0  502 -0.19502521897E+02  0.42572905295E+02  0.35957558665E+02  0.59187997523E+02  0.41800000000E+01 0.  1.
        -11    1    1    2    0    0  0.43488216620E+02 -0.40260831073E+02 -0.69025749843E+02  0.90976445549E+02  0.00000000000E+00 0. -1.
         11    1    1    2    0    0 -0.33193479322E+02  0.12569771551E+02 -0.66538938576E+02  0.75413769122E+02  0.00000000000E+00 0.  1.
</event>
<event>
 7    1  0.2522928E-009  0.1809394E+03  0.7561462E-02  0.1166897E+00
          1   -1    0    0  501    0  0.00000000000E+00  0.00000000000E+00  0.16381211763E+03  0.16381211763E+03  0.00000000000E+00 0. -1.
         -1   -1    0    0    0  501 -0.00000000000E+00 -0.00000000000E+00 -0.20963532375E+03  0.20963532375E+03  0.00000000000E+00 0.  1.
         25    2    1    2    0    0  0.63509874894E+02  0.13407542594E+03 -0.36081886996E+01  0.19407637792E+03  0.12507156908E+03 0.  0.
          5    1    3    3  502    0  0.99035628799E+02  0.87949810463E+02  0.13624020746E+02  0.13321528168E+03  0.41800000000E+01 0.  1.
         -5    1    3    3    0  502 -0.35525753905E+02  0.46125615474E+02 -0.17232209445E+02  0.60861096242E+02  0.41800000000E+01 0.  1.
        -11    1    1    2    0    0 -0.84623593970E+02 -0.11283778590E+03 -0.20834297708E+02  0.14257484541E+03  0.00000000000E+00 0. -1.
         11    1    1    2    0    0  0.21113719076E+02 -0.21237640034E+02 -0.21380719712E+02  0.36796218051E+02  0.00000000000E+00 0.  1.
</event>
<event>
 7    1  0.2522928E-009  0.1091511E+03  0.7561462E-02  0.1262150E+00
          2   -1    0    0  501    0  0.00000000000E+00  0.00000000000E+00  0.86771095221E+02  0.86771095221E+02  0.00000000000E+00 0. -1.
         -2   -1    0    0    0  501 -0.00000000000E+00 -0.00000000000E+00 -0.18099125532E+03  0.18099125532E+03  0.00000000000E+00 0.  1.
         25    2    1    2    0    0 -0.13854621814E+02  0.31819373765E+02  0.61521380887E+01  0.12996161835E+03  0.12509096829E+03 0.  0.
          5    1    3    3  502    0  0.23381999597E+02 -0.39781544619E+02  0.14915863419E+02  0.48674886532E+02  0.41800000000E+01 0. -1.
         -5    1    3    3    0  502 -0.37236621412E+02  0.71600918384E+02 -0.87637253301E+01  0.81286731815E+02  0.41800000000E+01 0. -1.
        -11    1    1    2    0    0 -0.34301839996E+02 -0.25163389215E+02 -0.29157576358E+02  0.51574961396E+02  0.00000000000E+00 0.  1.
         11    1    1    2    0    0  0.48156461810E+02 -0.66559845498E+01 -0.71214721832E+02  0.86225770799E+02  0.00000000000E+00 0. -1.
</event>
<event>
 7    1  0.2522928E-009  0.1781890E+03  0.7561462E-02  0.1169567E+00
         -2   -1    0    0    0  501 -0.00000000000E+00  0.00000000000E+00  0.59238614813E+02  0.59238614813E+02  0.00000000000E+00 0.  1.
          2   -1    0    0  501    0  0.00000000000E+00 -0.00000000000E+00 -0.64061608789E+03  0.64061608789E+03  0.00000000000E+00 0. -1.
         25    2    1    2    0    0 -0.38294024184E+02 -0.14286868484E+03 -0.18847441558E+03  0.27027658879E+03  0.12509570627E+03 0.  0.
          5    1    3    3  502    0  0.42787901110E+02 -0.54548124930E+02 -0.97535655617E+02  0.11973712428E+03  0.41800000000E+01 0. -1.
         -5    1    3    3    0  502 -0.81081925294E+02 -0.88320559909E+02 -0.90938759959E+02  0.15053946451E+03  0.41800000000E+01 0. -1.
        -11    1    1    2    0    0  0.12699863146E+01  0.12644859220E+03 -0.34133628534E+03  0.36400730628E+03  0.00000000000E+00 0.  1.
         11    1    1    2    0    0  0.37024037869E+02  0.16420092636E+02 -0.51566772164E+02  0.65570807634E+02  0.00000000000E+00 0. -1.
</event>
<event>
 7    1  0.2522928E-009  0.1055494E+03  0.7561462E-02  0.1269041E+00
         -2   -1    0    0    0  501 -0.00000000000E+00  0.00000000000E+00  0.14668681771E+02  0.14668681771E+02  0.00000000000E+00 0.  1.
          2   -1    0    0  501    0  0.00000000000E+00 -0.00000000000E+00 -0.80992092294E+03  0.80992092294E+03  0.00000000000E+00 0. -1.
         25    2    1    2    0    0 -0.26619619543E+02  0.38800500848E+02 -0.40244043523E+03  0.42405171720E+03  0.12508985549E+03 0.  0.
          5    1    3    3  502    0 -0.62588618167E+02 -0.18526390567E+02 -0.18053504866E+03  0.19201806807E+03  0.41800000000E+01 0.  1.
         -5    1    3    3    0  502  0.35968998624E+02  0.57326891415E+02 -0.22190538657E+03  0.23203364913E+03  0.41800000000E+01 0.  1.
        -11    1    1    2    0    0  0.43777379565E+02 -0.10869836205E+02 -0.24725107046E+03  0.25133186058E+03  0.00000000000E+00 0. -1.
         11    1    1    2    0    0 -0.17157760022E+02 -0.27930664643E+02 -0.14556073548E+03  0.14920602692E+03  0.00000000000E+00 0.  1.
</event>
<event>
 7    1  0.2522928E-009  0.1062926E+03  0.7561462E-02  0.1267594E+00
         -2   -1    0    0    0  501 -0.00000000000E+00  0.00000000000E+00  0.10293281589E+04  0.10293281589E+04  0.00000000000E+00 0.  1.
          2   -1    0    0  501    0  0.00000000000E+00 -0.00000000000E+00 -0.14193415589E+02  0.14193415589E+02  0.00000000000E+00 0. -1.
         25    2    1    2    0    0  0.45106584072E+02  0.83211562253E+01  0.69928841935E+03  0.71186780092E+03  0.12509047518E+03 0.  0.
          5    1    3    3  502    0  0.19181717121E+02 -0.53062513553E+02  0.19070126925E+03  0.19891710613E+03  0.41800000000E+01 0. -1.
         -5    1    3    3    0  502  0.25924866950E+02  0.61383669778E+02  0.50858715010E+03  0.51295069479E+03  0.41800000000E+01 0. -1.
        -11    1    1    2    0    0 -0.17310333910E+02 -0.42086803798E+02  0.82263653425E+02  0.94011995984E+02  0.00000000000E+00 0. -1.
         11    1    1    2    0    0 -0.27796250161E+02  0.33765647573E+02  0.23358267055E+03  0.23764177760E+03  0.00000000000E+00 0.  1.
</event>
<event>
 7    1  0.2522928E-009  0.2261549E+03  0.7561462E-02  0.1129376E+00
          1   -1    0    0  501    0  0.00000000000E+00  0.00000000000E+00  0.54712706050E+02  0.54712706050E+02  0.00000000000E+00 0. -1.
         -1   -1    0    0    0  501 -0.00000000000E+00 -0.00000000000E+00 -0.10593397868E+04  0.10593397868E+04  0.00000000000E+00 0.  1.
         25    2    1    2    0    0 -0.19732721578E+03  0.33022902273E+02 -0.69735731459E+03  0.73619501094E+03  0.12508927912E+03 0.  0.
          5    1    3    3  502    0 -0.26858282882E+02  0.54721088141E+02 -0.23834329672E+03  0.24605032887E+03  0.41800000000E+01 0.  1.
         -5    1    3    3    0  502 -0.17046893290E+03 -0.21698185868E+02 -0.45901401787E+03  0.49014468207E+03  0.41800000000E+01 0.  1.
        -11    1    1    2    0    0  0.22650297210E+02 -0.38369035583E+02 -0.74142089746E+02  0.86500105938E+02  0.00000000000E+00 0.  1.
         11    1    1    2    0    0  0.17467691857E+03  0.53461333103E+01 -0.23312767638E+03  0.29135737594E+03  0.00000000000E+00 0. -1.
</event>
<event>
 7    1  0.2522928E-009  0.1177037E+03  0.7561462E-02  0.1246934E+00
          1   -1    0    0  501    0  0.00000000000E+00  0.00000000000E+00  0.75260542014E+02  0.75260542014E+02  0.00000000000E+00 0. -1.
         -1   -1    0    0    0  501 -0.00000000000E+00 -0.00000000000E+00 -0.27146618561E+03  0.27146618561E+03  0.00000000000E+00 0.  1.
         25    2    1    2    0    0  0.55545407456E+02 -0.75316826259E+02 -0.11011325639E+03  0.19112793444E+03  0.12508813487E+03 0.  0.
          5    1    3    3  502    0 -0.66456062797E+01  0.63304575613E+01  0.21751586291E+02  0.23975877084E+02  0.41800000000E+01 0. -1.
         -5    1    3    3    0  502  0.62191013736E+02 -0.81647283821E+02 -0.13186484268E+03  0.16715205736E+03  0.41800000000E+01 0. -1.
        -11    1    1    2    0    0  0.20538895571E+02  0.18526383361E+02 -0.33783721394E+00  0.27662018106E+02  0.00000000000E+00 0. -1.
         11    1    1    2    0    0 -0.76084303027E+02  0.56790442898E+02 -0.85754549998E+02  0.12793677508E+03  0.00000000000E+00 0.  1.
</event>
<event>
 7    1  0.2522928E-009  0.1297122E+03  0.7561462E-02  0.1227883E+00
          2   -1    0    0  501    0  0.00000000000E+00  0.00000000000E+00  0.16669428397E+03  0.16669428397E+03  0.00000000000E+00 0. -1.
         -2   -1    0    0    0  501 -0.00000000000E+00 -0.00000000000E+00 -0.14382222722E+03  0.14382222722E+03  0.00000000000E+00 0.  1.
         25    2    1    2    0    0  0.66913605643E+01  0.86973241983E+02  0.81489050862E+02  0.17290590315E+03  0.12508743664E+03 0.  0.
          5    1    3    3  502    0  0.36582823079E+02 -0.18197760822E+02  0.10216791605E+02  0.42323949179E+02  0.41800000000E+01 0.  1.
         -5    1    3    3    0  502 -0.29891462515E+02  0.10517100281E+03  0.71272259257E+02  0.13058195397E+03  0.41800000000E+01 0.  1.
        -11    1    1    2    0    0  0.24466748708E+02 -0.11008145557E+02  0.11927219402E+02  0.29360851888E+02  0.00000000000E+00 0. -1.
         11    1    1    2    0    0 -0.31158109272E+02 -0.75965096426E+02 -0.70544213513E+02  0.10824975616E+03  0.00000000000E+00 0.  1.
</event>
<event>
 7    1  0.2522928E-009  0.1439044E+03  0.7561462E-02  0.1208170E+00
         -2   -1    0    0    0  501 -0.00000000000E+00  0.00000000000E+00  0.18141286699E+02  0.18141286699E+02  0.00000000000E+00 0.  1.
          2   -1    0    0  501    0  0.00000000000E+00 -0.00000000000E+00 -0.12109675215E+04  0.12109675215E+04  0.00000000000E+00 0. -1.
         25    2    1    2    0    0 -0.91646979531E+02 -0.20871175662E+02 -0.52068703585E+03  0.54369264281E+03  0.12510765647E+03 0.  0.
          5    1    3    3  502    0 -0.22363822607E+02  0.49693356852E+02 -0.13841973255E+03  0.14881890013E+03  0.41800000000E+01 0. -1.
         -5    1    3    3    0  502 -0.69283156924E+02 -0.70564532514E+02 -0.38226730330E+03  0.39487374268E+03  0.41800000000E+01 0. -1.
        -11    1    1    2    0    0  0.26313274560E+02 -0.38006262720E+02 -0.22051883754E+03  0.22531183310E+03  0.00000000000E+00 0. -1.
         11    1    1    2    0    0  0.65333704971E+02  0.58877438381E+02 -0.45162036145E+03  0.46010433233E+03  0.00000000000E+00 0.  1.
</event>
<event>
 7    1  0.2522928E-009  0.1333551E+03  0.7561462E-02  0.1222561E+00
          3   -1    0    0  501    0  0.00000000000E+00  0.00000000000E+00  0.34274571726E+02  0.34274571726E+02  0.00000000000E+00 0. -1.
         -3   -1    0    0    0  501 -0.00000000000E+00 -0.00000000000E+00 -0.79013660447E+03  0.79013660447E+03  0.00000000000E+00 0.  1.
         25    2    1    2    0    0  0.11288778349E+03 -0.49867079999E+02 -0.42877811958E+03  0.46338808585E+03  0.12508982753E+03 0.  0.
          5    1    3    3  502    0  0.38727180256E+02 -0.21529233600E+02 -0.23389531132E+02  0.50277678512E+02  0.41800000000E+01 0. -1.
         -5    1    3    3    0  502  0.74160603236E+02 -0.28337846400E+02 -0.40538858845E+03  0.41311040734E+03  0.41800000000E+01 0. -1.
        -11    1    1    2    0    0 -0.22483920884E+02  0.47176200332E+02 -0.62849848955E+02  0.81738755128E+02  0.00000000000E+00 0. -1.
         11    1    1    2    0    0 -0.90403862608E+02  0.26908796673E+01 -0.26423406421E+03  0.27928433521E+03  0.00000000000E+00 0.  1.
</event>
<event>
 7    1  0.2522928E-009  0.1140525E+03  0.7561462E-02  0.1253244E+00
          1   -1    0    0  501    0  0.00000000000E+00  0.00000000000E+00  0.55819374277E+03  0.55819374277E+03  0.00000000000E+00 0. -1.
         -1   -1    0    0    0  501 -0.00000000000E+00 -0.00000000000E+00 -0.29299488860E+02  0.29299488860E+02  0.00000000000E+00 0.  1.
         25    2    1    2    0    0 -0.28011717125E+02 -0.24948870010E+02  0.16960529069E+03  0.21405880747E+03  0.12509242989E+03 0.  0.
          5    1    3    3  502    0 -0.35287679831E+02  0.45426592455E+02  0.95148517485E+02  0.11126323934E+03  0.41800000000E+01 0.  1.
         -5    1    3    3    0  502  0.72759627065E+01 -0.70375462465E+02  0.74456773202E+02  0.10279556813E+03  0.41800000000E+01 0.  1.
        -11    1    1    2    0    0 -0.12090947566E+00  0.56948961575E+02  0.24303972059E+03  0.24962272459E+03  0.00000000000E+00 0.  1.
         11    1    1    2    0    0  0.28132626600E+02 -0.32000091565E+02  0.11624924263E+03  0.12381169957E+03  0.00000000000E+00 0. -1.
</event>
<event>
 7    1  0.2522928E-009  0.9174546E+02  0.7561462E-02  0.1298679E+00
         -3   -1    0    0    0  501 -0.00000000000E+00  0.00000000000E+00  0.57952143665E+02  0.57952143665E+02  0.00000000000E+00 0.  1.
          3   -1    0    0  501    0  0.00000000000E+00 -0.00000000000E+00 -0.29088552518E+03  0.29088552518E+03  0.00000000000E+00 0. -1.
         25    2    1    2    0    0 -0.85382233724E+01 -0.34622723934E+02 -0.45910248370E+02  0.13793941769E+03  0.12509155757E+03 0.  0.
          5    1    3    3  502    0 -0.29589744403E+02  0.41175318939E+02 -0.12635434682E+02  0.52422194471E+02  0.41800000000E+01 0.  1.
         -5    1    3    3    0  502  0.21051521031E+02 -0.75798042873E+02 -0.33274813688E+02  0.85517223219E+02  0.41800000000E+01 0.  1.
        -11    1    1    2    0    0 -0.14812965693E+02  0.40326695513E+01  0.41394814453E+01  0.15900367385E+02  0.00000000000E+00 0.  1.
         11    1    1    2    0    0  0.23351189066E+02  0.30590054382E+02 -0.19116261459E+03  0.19499788377E+03  0.00000000000E+00 0. -1.
</event>
<event>
 7    1  0.2522928E-009  0.1044048E+03  0.7561462E-02  0.1271297E+00
          2   -1    0    0  501    0  0.00000000000E+00  0.00000000000E+00  0.38273973079E+03  0.38273973079E+03  0.00000000000E+00 0. -1.
         -2   -1    0    0    0  501 -0.00000000000E+00 -0.00000000000E+00 -0.57008849192E+02  0.57008849192E+02  0.00000000000E+00 0.  1.
         25    2    1    2    0    0  0.69673494930E+02  0.63384229584E+02  0.25303681432E+03  0.29756799515E+03  0.12508847220E+03 0.  0.
          5    1    3    3  502    0  0.72304839840E+02  0.41779508864E+02  0.26096353036E+03  0.27403093585E+03  0.41800000000E+01 0.  1.
         -5    1    3    3    0  502 -0.26313449096E+01  0.21604720719E+02 -0.79267160351E+01  0.23537059300E+02  0.41800000000E+01 0.  1.
        -11    1    1    2    0    0 -0.55334366261E+02 -0.68277226660E+02  0.23882471637E+02  0.91071643344E+02  0.00000000000E+00 0.  1.
         11    1    1    2    0    0 -0.14339128669E+02  0.48929970765E+01  0.48811595638E+02  0.51108941489E+02  0.00000000000E+00 0. -1.
</event>
<event>
 7    1  0.2522928E-009  0.8929056E+02  0.7561462E-02  0.1304579E+00
         -2   -1    0    0    0  501 -0.00000000000E+00  0.00000000000E+00  0.50147998350E+02  0.50147998350E+02  0.00000000000E+00 0.  1.
          2   -1    0    0  501    0  0.00000000000E+00 -0.00000000000E+00 -0.34457747296E+03  0.34457747296E+03  0.00000000000E+00 0. -1.
         25    2    1    2    0    0 -0.39073030285E+02  0.66237784354E+02 -0.12155525164E+03  0.19062350954E+03  0.12508995730E+03 0.  0.
          5    1    3    3  502    0 -0.47932198139E+02  0.22053791901E+02 -0.13367506947E+03  0.14377190948E+03  0.41800000000E+01 0. -1.
         -5    1    3    3    0  502  0.88591678545E+01  0.44183992454E+02  0.12119817836E+02  0.46851600065E+02  0.41800000000E+01 0. -1.
        -11    1    1    2    0    0  0.17945882503E+02 -0.51765420151E+02 -0.37657490464E+02  0.66481576472E+02  0.00000000000E+00 0.  1.
         11    1    1    2    0    0  0.21127147781E+02 -0.14472364204E+02 -0.13521673251E+03  0.13762038530E+03  0.00000000000E+00 0. -1.
</event>
<event>
 7    1  0.2522928E-009  0.7431885E+02  0.7561462E-02  0.1345993E+00
          2   -1    0    0  501    0  0.00000000000E+00  0.00000000000E+00  0.11263266106E+03  0.11263266106E+03  0.00000000000E+00 0. -1.
         -2   -1    0    0    0  501 -0.00000000000E+00 -0.00000000000E+00 -0.14206047735E+03  0.14206047735E+03  0.00000000000E+00 0.  1.
         25    2    1    2    0    0 -0.22091927457E+02  0.15542820732E+02  0.41953167086E+02  0.13468532923E+03  0.12510170720E+03 0.  0.
          5    1    3    3  502    0 -0.25260258665E-01  0.36032744060E+02  0.78899621985E+02  0.86838827905E+02  0.41800000000E+01 0.  1.
         -5    1    3    3    0  502 -0.22066667199E+02 -0.20489923328E+02 -0.36946454899E+02  0.47846501323E+02  0.41800000000E+01 0.  1.
        -11    1    1    2    0    0  0.47596352173E+02  0.67691634899E+01 -0.88469692563E+01  0.48882544733E+02  0.00000000000E+00 0. -1.
         11    1    1    2    0    0 -0.25504424716E+02 -0.22311984222E+02 -0.62534014127E+02  0.71125264448E+02  0.00000000000E+00 0.  1.
</event>
<event>
 7    1  0.2522928E-009  0.2107052E+03  0.7561462E-02  0.1141009E+00
          1   -1    0    0  501    0  0.00000000000E+00  0.00000000000E+00  0.15174884197E+04  0.15174884197E+04  0.00000000000E+00 0. -1.
         -1   -1    0    0    0  501 -0.00000000000E+00 -0.00000000000E+00 -0.34284825764E+02  0.34284825764E+02  0.00000000000E+00 0.  1.
         25    2    1    2    0    0  0.16572931221E+03  0.98287370911E+02  0.57798361163E+03  0.62196319050E+03  0.12508614157E+03 0.  0.
          5    1    3    3  502    0  0.51493476756E+02 -0.15236877511E+02  0.65772109889E+02  0.85012842700E+02  0.41800000000E+01 0. -1.
         -5    1    3    3    0  502  0.11423583545E+03  0.11352424842E+03  0.51221150174E+03  0.53695034780E+03  0.41800000000E+01 0. -1.
        -11    1    1    2    0    0 -0.74272369172E+02 -0.29517105375E+01  0.22754997485E+03  0.23938272383E+03  0.00000000000E+00 0.  1.
         11    1    1    2    0    0 -0.91456943033E+02 -0.95335660373E+02  0.67767000747E+03  0.69042733114E+03  0.00000000000E+00 0. -1.
</event>
<event>
 7    1  0.2522928E-009  0.1224150E+03  0.7561462E-02  0.1239165E+00
          3   -1    0    0  501    0  0.00000000000E+00  0.00000000000E+00  0.10829589500E+04  0.10829589500E+04  0.00000000000E+00 0. -1.
         -3   -1    0    0    0  501 -0.00000000000E+00 -0.00000000000E+00 -0.25180432054E+02  0.25180432054E+02  0.00000000000E+00 0.  1.
         25    2    1    2    0    0 -0.78826729438E+02  0.54702629776E+02  0.83461151653E+03  0.84937022915E+03  0.12508945463E+03 0.  0.
          5    1    3    3  502    0 -0.20192372182E+02 -0.14307113737E+02  0.27685881208E+02  0.37368513699E+02  0.41800000000E+01 0. -1.
         -5    1    3    3    0  502 -0.58634357256E+02  0.69009743513E+02  0.80692563532E+03  0.81200171545E+03  0.41800000000E+01 0. -1.
        -11    1    1    2    0    0  0.92489763541E+02 -0.24118287542E+02  0.18307665746E+03  0.20652629532E+03  0.00000000000E+00 0.  1.
         11    1    1    2    0    0 -0.13663034103E+02 -0.30584342234E+02  0.40090343995E+02  0.52242857621E+02  0.00000000000E+00 0. -1.
</event>
<event>
 7    1  0.2522928E-009  0.1440305E+03  0.7561462E-02  0.1208006E+00
          4   -1    0    0  501    0  0.00000000000E+00  0.00000000000E+00  0.12982396729E+03  0.12982396729E+03  0.00000000000E+00 0. -1.
         -4   -1    0    0    0  501 -0.00000000000E+00 -0.00000000000E+00 -0.20396722772E+03  0.20396722772E+03  0.00000000000E+00 0.  1.
         25    2    1    2    0    0  0.25205924386E+02 -0.11434819328E+03 -0.11444455954E+02  0.17172290122E+03  0.12508769445E+03 0.  0.
          5    1    3    3  502    0  0.30015316804E+02 -0.14065197971E+03 -0.53419198077E+01  0.14397884270E+03  0.41800000000E+01 0.  1.
         -5    1    3    3    0  502 -0.48093924180E+01  0.26303786427E+02 -0.61025361467E+01  0.27744058522E+02  0.41800000000E+01 0.  1.
        -11    1    1    2    0    0 -0.77897641058E+01  0.40522883052E+02 -0.74635187450E+02  0.85283032787E+02  0.00000000000E+00 0.  1.
         11    1    1    2    0    0 -0.17416160280E+02  0.73825310227E+02  0.11936382975E+02  0.76785261005E+02  0.00000000000E+00 0. -1.
</event>
<event>
 7    1  0.2522928E-009  0.1789864E+03  0.7561462E-02  0.1168788E+00
          2   -1    0    0  501    0  0.00000000000E+00  0.00000000000E+00  0.14302203477E+04  0.14302203477E+04  0.00000000000E+00 0. -1.
         -2   -1    0    0    0  501 -0.00000000000E+00 -0.00000000000E+00 -0.51138289593E+02  0.51138289593E+02  0.00000000000E+00 0.  1.
         25    2    1    2    0    0 -0.15030960682E+03  0.52187810007E+02  0.12283240802E+04  0.12448869313E+04  0.12508749031E+03 0.  0.
          5    1    3    3  502    0 -0.83085069999E+00 -0.15973883715E+02  0.22528506362E+02  0.27943895089E+02  0.41800000000E+01 0.  1.
         -5    1    3    3    0  502 -0.14947875612E+03  0.68161693722E+02  0.12057955738E+04  0.12169430362E+04  0.41800000000E+01 0.  1.
        -11    1    1    2    0    0  0.12332660653E+03 -0.72741914885E+02  0.14151748690E+03  0.20131576480E+03  0.00000000000E+00 0. -1.
         11    1    1    2    0    0  0.26983000292E+02  0.20554104878E+02  0.92404910631E+01  0.35155941278E+02  0.00000000000E+00 0.  1.
</event>
<event>
 7    1  0.2522928E-009  0.1130792E+03  0.7561462E-02  0.1254972E+00
          1   -1    0    0  501    0  0.00000000000E+00  0.00000000000E+00  0.48067468686E+02  0.48067468686E+02  0.00000000000E+00 0. -1.
         -1   -1    0    0    0  501 -0.00000000000E+00 -0.00000000000E+00 -0.29559839793E+03  0.29559839793E+03  0.00000000000E+00 0.  1.
         25    2    1    2    0    0  0.81368714395E+00  0.47736796992E+02 -0.16349240086E+03  0.21132036903E+03  0.12508824626E+03 0.  0.
          5    1    3    3  502    0  0.30001634884E+02 -0.29842295286E+02 -0.23521204217E+02  0.48594033908E+02  0.41800000000E+01 0. -1.
         -5    1    3    3    0  502 -0.29187947740E+02  0.77579092278E+02 -0.13997119664E+03  0.16272633512E+03  0.41800000000E+01 0. -1.
        -11    1    1    2    0    0  0.36266940547E+02 -0.51914313216E+02 -0.63807898836E+02  0.89899025842E+02  0.00000000000E+00 0.  1.
         11    1    1    2    0    0 -0.37080627691E+02  0.41775162245E+01 -0.20230629548E+02  0.42446471746E+02  0.00000000000E+00 0. -1.
</event>
<event>
 7    1  0.2522928E-009  0.1081255E+03  0.7561462E-02  0.1264081E+00
          3   -1    0    0  501    0  0.00000000000E+00  0.00000000000E+00  0.32899632367E+03  0.32899632367E+03  0.00000000000E+00 0. -1.
         -3   -1    0    0    0  501 -0.00000000000E+00 -0.00000000000E+00 -0.53999002708E+02  0.53999002708E+02  0.00000000000E+00 0.  1.
         25    2    1    2    0    0 -0.10731014636E+02  0.73914351108E+02  0.14099596834E+03  0.20274633757E+03  0.12509088030E+03 0.  0.
          5    1    3    3  502    0  0.53204632468E+02  0.25057993360E+02  0.31638974932E+02  0.66911382306E+02  0.41800000000E+01 0. -1.
         -5    1    3    3    0  502 -0.63935647105E+02  0.48856357748E+02  0.10935699341E+03  0.13583495526E+03  0.41800000000E+01 0. -1.
        -11    1    1    2    0    0  0.13944536480E+02 -0.35058276973E+02 -0.29605835215E+01  0.37845712264E+02  0.00000000000E+00 0.  1.
         11    1    1    2    0    0 -0.32135218441E+01 -0.38856074135E+02  0.13696193614E+03  0.14240327654E+03  0.00000000000E+00 0. -1.
</event>
<event>
 7    1  0.2522928E-009  0.1077935E+03  0.7561462E-02  0.1264711E+00
         -2   -1    0    0    0  501 -0.00000000000E+00  0.00000000000E+00  0.16426183304E+02  0.16426183304E+02  0.00000000000E+00 0. -1.
          2   -1    0    0  501    0  0.00000000000E+00 -0.00000000000E+00 -0.89449502634E+03  0.89449502634E+03  0.00000000000E+00 0.  1.
         25    2    1    2    0    0  0.49729338499E+02 -0.19629687269E+01 -0.41069443400E+03  0.43219708414E+03  0.12509013179E+03 0.  0.
          5    1    3    3  502    0 -0.16158936608E+02 -0.37889839837E+02 -0.26542304206E+03  0.26863286256E+03  0.41800000000E+01 0.  1.
         -5    1    3    3    0  502  0.65888275107E+02  0.35926871110E+02 -0.14527139194E+03  0.16356422158E+03  0.41800000000E+01 0.  1.
        -11    1    1    2    0    0 -0.39178860611E+02 -0.39857980718E+02 -0.33119401378E+03  0.33587663883E+03  0.00000000000E+00 0.  1.
         11    1    1    2    0    0 -0.10550477888E+02  0.41820949445E+02 -0.13618039526E+03  0.14284748667E+03  0.00000000000E+00 0. -1.
</event>
<event>
 7    1  0.2522928E-009  0.1350985E+03  0.7561462E-02  0.1220081E+00
          1   -1    0    0  501    0  0.00000000000E+00  0.00000000000E+00  0.70333699623E+03  0.70333699623E+03  0.00000000000E+00 0. -1.
         -1   -1    0    0    0  501 -0.00000000000E+00 -0.00000000000E+00 -0.30155563544E+02  0.30155563544E+02  0.00000000000E+00 0.  1.
         25    2    1    2    0    0  0.52864973014E+02  0.80052925314E+02  0.33337445048E+03  0.36876852113E+03  0.12509405149E+03 0.  0.
          5    1    3    3  502    0  0.44620073869E+02 -0.20984527398E+02  0.63858695792E+02  0.80788036308E+02  0.41800000000E+01 0. -1.
         -5    1    3    3    0  502  0.82448991451E+01  0.10103745271E+03  0.26951575469E+03  0.28798048482E+03  0.41800000000E+01 0. -1.
        -11    1    1    2    0    0  0.16200739535E+02 -0.29522682778E+02  0.18311879876E+03  0.18618954649E+03  0.00000000000E+00 0. -1.
         11    1    1    2    0    0 -0.69065712549E+02 -0.50530242536E+02  0.15668818345E+03  0.17853449217E+03  0.00000000000E+00 0.  1.
</event>
<event>
 7    1  0.2522928E-009  0.7144679E+02  0.7561462E-02  0.1355241E+00
         -4   -1    0    0    0  501 -0.00000000000E+00  0.00000000000E+00  0.67231128646E+02  0.67231128646E+02  0.00000000000E+00 0.  1.
          4   -1    0    0  501    0  0.00000000000E+00 -0.00000000000E+00 -0.24811353840E+03  0.24811353840E+03  0.00000000000E+00 0. -1.
         25    2    1    2    0    0 -0.14403447774E+02  0.12933593936E+02 -0.16586913164E+03  0.20864960350E+03  0.12508937225E+03 0.  0.
          5    1    3    3  502    0 -0.24564829019E+02  0.30972625516E+02 -0.17927716531E+03  0.18363144817E+03  0.41800000000E+01 0.  1.
         -5    1    3    3    0  502  0.10161381244E+02 -0.18039031580E+02  0.13408033668E+02  0.25018155328E+02  0.41800000000E+01 0.  1.
        -11    1    1    2    0    0 -0.12262596246E+02 -0.41303259454E+02  0.25856395545E+02  0.50248220852E+02  0.00000000000E+00 0.  1.
         11    1    1    2    0    0  0.26666044020E+02  0.28369665518E+02 -0.40869673656E+02  0.56446842693E+02  0.00000000000E+00 0. -1.
</event>
<event>
 7    1  0.2522928E-009  0.1618390E+03  0.7561462E-02  0.1186636E+00
         -4   -1    0    0    0  501 -0.00000000000E+00  0.00000000000E+00  0.15768730763E+03  0.15768730763E+03  0.00000000000E+00 0.  1.
          4   -1    0    0  501    0  0.00000000000E+00 -0.00000000000E+00 -0.18822779413E+03  0.18822779413E+03  0.00000000000E+00 0. -1.
         25    2    1    2    0    0  0.20176626880E+02 -0.13104969602E+03 -0.52638920749E+01  0.18236242986E+03  0.12508888106E+03 0.  0.
          5    1    3    3  502    0 -0.37527337146E+02 -0.11103605284E+03 -0.21017129914E+02  0.11914905880E+03  0.41800000000E+01 0. -1.
         -5    1    3    3    0  502  0.57703964026E+02 -0.20013643176E+02  0.15753237839E+02  0.63213371053E+02  0.41800000000E+01 0. -1.
        -11    1    1    2    0    0 -0.41323098614E+02  0.86169159879E+02  0.18556394012E+02  0.97350204684E+02  0.00000000000E+00 0. -1.
         11    1    1    2    0    0  0.21146471734E+02  0.44880536138E+02 -0.43832988434E+02  0.66202467219E+02  0.00000000000E+00 0.  1.
</event>
<event>
 7    1  0.2522928E-009  0.1581667E+03  0.7561462E-02  0.1190782E+00
         -2   -1    0    0    0  501 -0.00000000000E+00  0.00000000000E+00  0.37372000287E+02  0.37372000287E+02  0.00000000000E+00 0.  1.
          2   -1    0    0  501    0  0.00000000000E+00 -0.00000000000E+00 -0.90201776559E+03  0.90201776559E+03  0.00000000000E+00 0. -1.
         25    2    1    2    0    0 -0.14548734511E+03  0.15247305925E+02 -0.53962621864E+03  0.57292553419E+03  0.12509262152E+03 0.  0.
          5    1    3    3  502    0 -0.13989877868E+03  0.38931414155E+02 -0.52385940951E+03  0.54362990777E+03  0.41800000000E+01 0.  1.
         -5    1    3    3    0  502 -0.55885664309E+01 -0.23684108230E+02 -0.15766809123E+02  0.29295626420E+02  0.41800000000E+01 0.  1.
        -11    1    1    2    0    0  0.63855620248E+02 -0.42260101195E+01 -0.23877700770E+03  0.24720408331E+03  0.00000000000E+00 0.  1.
         11    1    1    2    0    0  0.81631724859E+02 -0.11021295805E+02 -0.86242538970E+02  0.11926014838E+03  0.00000000000E+00 0. -1.
</event>
<event>
 7    1  0.2522928E-009  0.9737363E+02  0.7561462E-02  0.1285918E+00
         -2   -1    0    0    0  501 -0.00000000000E+00  0.00000000000E+00  0.32583721276E+02  0.32583721276E+02  0.00000000000E+00 0.  1.
          2   -1    0    0  501    0  0.00000000000E+00 -0.00000000000E+00 -0.55517958738E+03  0.55517958738E+03  0.00000000000E+00 0. -1.
         25    2    1    2    0    0  0.57863058434E+02  0.39824076798E+02 -0.36525099235E+03  0.39241548088E+03  0.12509009393E+03 0.  0.
          5    1    3    3  502    0 -0.83566726576E+00 -0.31004005748E+02 -0.20676026833E+03  0.20911534537E+03  0.41800000000E+01 0. -1.
         -5    1    3    3    0  502  0.58698725700E+02  0.70828082546E+02 -0.15849072402E+03  0.18330013550E+03  0.41800000000E+01 0. -1.
        -11    1    1    2    0    0 -0.21628272865E+02 -0.22479178782E+02 -0.15158900596E+03  0.15476537853E+03  0.00000000000E+00 0. -1.
         11    1    1    2    0    0 -0.36234785570E+02 -0.17344898016E+02 -0.57558678006E+01  0.40582449243E+02  0.00000000000E+00 0.  1.
</event>
<event>
 6    1  0.2522928E-009  0.1145522E+03  0.7561462E-02  0.1252365E+00
         -1   -1    0    0    0  501 -0.00000000000E+00  0.00000000000E+00  0.98666885900E+02  0.98666885900E+02  0.00000000000E+00 0.  1.
          1   -1    0    0  501    0  0.00000000000E+00 -0.00000000000E+00 -0.16540487981E+03  0.16540487981E+03  0.00000000000E+00 0. -1.
          5    1    1    2  502    0 -0.51474443179E+02 -0.34404907261E+02  0.14400078847E+02  0.63703615400E+02  0.41800000000E+01 0.  1.
         -5    1    1    2    0  502  0.54021270209E+01  0.72797914258E+02 -0.18032199819E+02  0.75308378863E+02  0.41800000000E+01 0.  1.
        -11    1    1    2    0    0  0.20030628343E+02 -0.57982465957E+02 -0.91453146847E+01  0.62022812020E+02  0.00000000000E+00 0.  1.
         11    1    1    2    0    0  0.26041687816E+02  0.19589458960E+02 -0.53960558250E+02  0.63036959423E+02  0.00000000000E+00 0. -1.
</event>
<event>
 7    1  0.2522928E-009  0.1179868E+03  0.7561462E-02  0.1246456E+00
          2   -1    0    0  501    0  0.00000000000E+00  0.00000000000E+00  0.72733479352E+03  0.72733479352E+03  0.00000000000E+00 0. -1.
         -2   -1    0    0    0  501 -0.00000000000E+00 -0.00000000000E+00 -0.22260203682E+02  0.22260203682E+02  0.00000000000E+00 0.  1.
         25    2    1    2    0    0 -0.35700620162E+01 -0.63933070691E+02  0.47487812201E+03  0.49523391600E+03  0.12508884013E+03 0.  0.
          5    1    3    3  502    0 -0.57223557788E+02 -0.52054254562E+02  0.35410981898E+03  0.36248505801E+03  0.41800000000E+01 0. -1.
         -5    1    3    3    0  502  0.53653495772E+02 -0.11878816129E+02  0.12076830303E+03  0.13274885799E+03  0.41800000000E+01 0. -1.
        -11    1    1    2    0    0 -0.24498296860E+02  0.70440391419E+02  0.19561366274E+03  0.20934832300E+03  0.00000000000E+00 0. -1.
         11    1    1    2    0    0  0.28068358876E+02 -0.65073207282E+01  0.34582805096E+02  0.45012758206E+02  0.00000000000E+00 0.  1.
</event>
<event>
 7    1  0.2522928E-009  0.1789003E+03  0.7561462E-02  0.1168872E+00
          2   -1    0    0  501    0  0.00000000000E+00  0.00000000000E+00  0.26791141317E+04  0.26791141317E+04  0.00000000000E+00 0. -1.
         -2   -1    0    0    0  501 -0.00000000000E+00 -0.00000000000E+00 -0.17046796833E+02  0.17046796833E+02  0.00000000000E+00 0.  1.
         25    2    1    2    0    0 -0.11213842345E+03  0.12721979972E+03  0.18801165588E+04  0.18918871666E+04  0.12505548015E+03 0.  0.
          5    1    3    3  502    0 -0.23308646391E+02  0.24983125168E+02  0.85598326135E+02  0.92260475702E+02  0.41800000000E+01 0. -1.
         -5    1    3    3    0  502 -0.88829777062E+02  0.10223667455E+03  0.17945182327E+04  0.17996266909E+04  0.41800000000E+01 0. -1.
        -11    1    1    2    0    0  0.81379327484E+02 -0.13362759643E+03  0.63349527352E+03  0.65252983919E+03  0.00000000000E+00 0. -1.
         11    1    1    2    0    0  0.30759095970E+02  0.64077967073E+01  0.14845550251E+03  0.15174392268E+03  0.00000000000E+00 0.  1.
</event>
<event>
 7    1  0.2522928E-009  0.3360737E+03  0.7561462E-02  0.1068481E+00
          2   -1    0    0  501    0  0.00000000000E+00  0.00000000000E+00  0.18235008320E+03  0.18235008320E+03  0.00000000000E+00 0. -1.
         -2   -1    0    0    0  501 -0.00000000000E+00 -0.00000000000E+00 -0.64667665270E+03  0.64667665270E+03  0.00000000000E+00 0.  1.
         25    2    1    2    0    0 -0.25059314378E+03  0.20549612606E+03 -0.20845707461E+03  0.40512727524E+03  0.12509266825E+03 0.  0.
          5    1    3    3  502    0 -0.82507064249E+02  0.14798660900E+03 -0.94967824327E+02  0.19427766766E+03  0.41800000000E+01 0. -1.
         -5    1    3    3    0  502 -0.16808607953E+03  0.57509517056E+02 -0.11348925028E+03  0.21084960757E+03  0.41800000000E+01 0. -1.
        -11    1    1    2    0    0  0.19805454403E+03 -0.17449622612E+03 -0.15524497807E+03  0.30622791930E+03  0.00000000000E+00 0.  1.
         11    1    1    2    0    0  0.52538599747E+02 -0.30999899939E+02 -0.10062451683E+03  0.11767154136E+03  0.00000000000E+00 0. -1.
</event>
<event>
 7    1  0.2522928E-009  0.1211083E+03  0.7561462E-02  0.1241280E+00
          2   -1    0    0  501    0  0.00000000000E+00  0.00000000000E+00  0.59808826392E+03  0.59808826392E+03  0.00000000000E+00 0. -1.
         -2   -1    0    0    0  501 -0.00000000000E+00 -0.00000000000E+00 -0.24794552567E+02  0.24794552567E+02  0.00000000000E+00 0.  1.
         25    2    1    2    0    0  0.39726840508E+02 -0.24260067436E+02  0.33024117979E+03  0.35619297306E+03  0.12508966582E+03 0.  0.
          5    1    3    3  502    0 -0.44840901073E+02 -0.16545275961E+02  0.13379636634E+03  0.14213863870E+03  0.41800000000E+01 0. -1.
         -5    1    3    3    0  502  0.84567741581E+02 -0.77147914753E+01  0.19644481346E+03  0.21405433436E+03  0.41800000000E+01 0. -1.
        -11    1    1    2    0    0 -0.44976152487E+02  0.58940687018E+02  0.15208628359E+03  0.16919543887E+03  0.00000000000E+00 0.  1.
         11    1    1    2    0    0  0.52493119788E+01 -0.34680619582E+02  0.90966247968E+02  0.97494404558E+02  0.00000000000E+00 0. -1.
</event>
<event>
 7    1  0.2522928E-009  0.9004744E+02  0.7561462E-02  0.1302737E+00
          1   -1    0    0  501    0  0.00000000000E+00  0.00000000000E+00  0.30476936394E+03  0.30476936394E+03  0.00000000000E+00 0. -1.
         -1   -1    0    0    0  501 -0.00000000000E+00 -0.00000000000E+00 -0.37324322924E+02  0.37324322924E+02  0.00000000000E+00 0.  1.
         25    2    1    2    0    0 -0.44447500575E+01 -0.21354763850E+01  0.18304633668E+03  0.22176232370E+03  0.12509296855E+03 0.  0.
          5    1    3    3  502    0  0.16282820275E+02  0.42387897797E+02  0.16177523378E+03  0.16807903730E+03  0.41800000000E+01 0. -1.
         -5    1    3    3    0  502 -0.20727570333E+02 -0.44523374182E+02  0.21271102899E+02  0.53683286403E+02  0.41800000000E+01 0. -1.
        -11    1    1    2    0    0 -0.27300501559E+01  0.43317516294E+02  0.49870276900E+02  0.66112819557E+02  0.00000000000E+00 0.  1.
         11    1    1    2    0    0  0.71748002134E+01 -0.41182039909E+02  0.34528427436E+02  0.54218543603E+02  0.00000000000E+00 0. -1.
</event>
<event>
 7    1  0.2522928E-009  0.1052690E+03  0.7561462E-02  0.1269591E+00
          1   -1    0    0  501    0  0.00000000000E+00  0.00000000000E+00  0.83055831343E+02  0.83055831343E+02  0.00000000000E+00 0. -1.
         -1   -1    0    0    0  501 -0.00000000000E+00 -0.00000000000E+00 -0.22937150263E+03  0.22937150263E+03  0.00000000000E+00 0.  1.
         25    2    1    2    0    0  0.27559337985E+02 -0.65188282764E+02 -0.13281431545E+03  0.19568708349E+03  0.12507902676E+03 0.  0.
          5    1    3    3  502    0  0.45130323417E+02 -0.27730682532E+02 -0.14327227354E+03  0.15280757053E+03  0.41800000000E+01 0.  1.
         -5    1    3    3    0  502 -0.17570985431E+02 -0.37457600232E+02  0.10457958088E+02  0.42879512959E+02  0.41800000000E+01 0.  1.
        -11    1    1    2    0    0 -0.56239033374E+02  0.15313390890E+02 -0.96353204352E+01  0.59077645648E+02  0.00000000000E+00 0. -1.
         11    1    1    2    0    0  0.28679695388E+02  0.49874891875E+02 -0.38660353993E+01  0.57662604839E+02  0.00000000000E+00 0.  1.
</event>
<event>
 7    1  0.2522928E-009  0.2614392E+03  0.7561462E-02  0.1106282E+00
         -1   -1    0    0    0  501 -0.00000000000E+00  0.00000000000E+00  0.12529505963E+03  0.12529505963E+03  0.00000000000E+00 0.  1.
          1   -1    0    0  501    0  0.00000000000E+00 -0.00000000000E+00 -0.56526498347E+03  0.56526498347E+03  0.00000000000E+00 0. -1.
         25    2    1    2    0    0  0.24615066889E+03 -0.18762533235E+02 -0.23143937271E+03  0.36076786069E+03  0.12508829529E+03 0.  0.
          5    1    3    3  502    0  0.11841199099E+03 -0.70627200132E+02 -0.10135503919E+03  0.17117218634E+03  0.41800000000E+01 0. -1.
         -5    1    3    3    0  502  0.12773867790E+03  0.51864666897E+02 -0.13008433352E+03  0.18959567435E+03  0.41800000000E+01 0. -1.
        -11    1    1    2    0    0 -0.16722042643E+03  0.87753307832E+01 -0.99370091867E+02  0.19471541439E+03  0.00000000000E+00 0. -1.
         11    1    1    2    0    0 -0.78930242468E+02  0.99872024517E+01 -0.10916045927E+03  0.13507676801E+03  0.00000000000E+00 0.  1.
</event>
<event>
 7    1  0.3971827E-009  0.2127784E+03  0.7561462E-02  0.1139385E+00
          3   -1    0    0  501    0  0.00000000000E+00  0.00000000000E+00  0.88761176466E+03  0.88761176466E+03  0.00000000000E+00 0. -1.
         -3   -1    0    0    0  501 -0.00000000000E+00 -0.00000000000E+00 -0.64610081385E+02  0.64610081385E+02  0.00000000000E+00 0.  1.
         25    2    1    2    0    0  0.69810853995E+02  0.19266940332E+03  0.54001819372E+03  0.59098553445E+03  0.12509675482E+03 0.  0.
          5    1    3    3  502    0  0.61046371187E+02  0.15714098284E+03  0.52463425049E+03  0.55107033772E+03  0.41800000000E+01 0.  1.
         -5    1    3    3    0  502  0.87644828084E+01  0.35528420482E+02  0.15383943228E+02  0.39915196731E+02  0.41800000000E+01 0.  1.
        -11    1    1    2    0    0 -0.78465176244E+02 -0.10043539377E+03  0.12770731029E+03  0.18042507948E+03  0.00000000000E+00 0. -1.
         11    1    1    2    0    0  0.86543222484E+01 -0.92234009555E+02  0.15527617926E+03  0.18081123211E+03  0.00000000000E+00 0.  1.
</event>
<event>
 7    1  0.2522928E-009  0.1506371E+03  0.7561462E-02  0.1199692E+00
          1   -1    0    0  501    0  0.00000000000E+00  0.00000000000E+00  0.44058077159E+03  0.44058077159E+03  0.00000000000E+00 0. -1.
         -1   -1    0    0    0  501 -0.00000000000E+00 -0.00000000000E+00 -0.64167876469E+02  0.64167876469E+02  0.00000000000E+00 0.  1.
         25    2    1    2    0    0  0.20961401051E+02 -0.11749805114E+03  0.27188040317E+03  0.32219646840E+03  0.12508572369E+03 0.  0.
          5    1    3    3  502    0  0.71868673008E+02 -0.86637846172E+02  0.18989722436E+03  0.22079323081E+03  0.41800000000E+01 0.  1.
         -5    1    3    3    0  502 -0.50907271956E+02 -0.30860204965E+02  0.81983178802E+02  0.10140323760E+03  0.41800000000E+01 0.  1.
        -11    1    1    2    0    0 -0.34041163190E+02  0.10667829156E+03  0.45059048542E+02  0.12070367243E+03  0.00000000000E+00 0.  1.
         11    1    1    2    0    0  0.13079762138E+02  0.10819759573E+02  0.59473443415E+02  0.61848507229E+02  0.00000000000E+00 0. -1.
</event>
<event>
 7    1  0.2522928E-009  0.8833475E+02  0.7561462E-02  0.1306935E+00
          2   -1    0    0  501    0  0.00000000000E+00  0.00000000000E+00  0.63232970016E+02  0.63232970016E+02  0.00000000000E+00 0. -1.
         -2   -1    0    0    0  501 -0.00000000000E+00 -0.00000000000E+00 -0.21548352001E+03  0.21548352001E+03  0.00000000000E+00 0.  1.
         25    2    1    2    0    0 -0.38120692910E+02 -0.55493365192E+01 -0.62924698396E+02  0.14522736234E+03  0.12508991462E+03 0.  0.
          5    1    3    3  502    0 -0.29103077172E+02 -0.50642638028E+02  0.95103302112E+01  0.59326087584E+02  0.41800000000E+01 0. -1.
         -5    1    3    3    0  502 -0.90176157379E+01  0.45093301509E+02 -0.72435028607E+02  0.85901274751E+02  0.41800000000E+01 0. -1.
        -11    1    1    2    0    0  0.44018151617E+02  0.25677854711E+02 -0.98261807365E+02  0.11069025558E+03  0.00000000000E+00 0.  1.
         11    1    1    2    0    0 -0.58974587076E+01 -0.20128518191E+02  0.89359557696E+01  0.22798872106E+02  0.00000000000E+00 0. -1.
</event>
<event>
 7    1  0.2522928E-009  0.1443458E+03  0.7561462E-02  0.1207598E+00
         -2   -1    0    0    0  501 -0.00000000000E+00  0.00000000000E+00  0.38470166085E+02  0.38470166085E+02  0.00000000000E+00 0.  1.
          2   -1    0    0  501    0  0.00000000000E+00 -0.00000000000E+00 -0.61620356580E+03  0.61620356580E+03  0.00000000000E+00 0. -1.
         25    2    1    2    0    0 -0.65061818200E+02  0.80827572651E+02 -0.37527631110E+03  0.40895399014E+03  0.12507965339E+03 0.  0.
          5    1    3    3  502    0 -0.95834662454E+02  0.27787506501E+02 -0.20773520592E+03  0.23049472060E+03  0.41800000000E+01 0. -1.
         -5    1    3    3    0  502  0.30772844254E+02  0.53040066150E+02 -0.16754110519E+03  0.17845926955E+03  0.41800000000E+01 0. -1.
        -11    1    1    2    0    0 -0.11151325328E+02 -0.38706844375E+02 -0.11689218848E+03  0.12363800219E+03  0.00000000000E+00 0. -1.
         11    1    1    2    0    0  0.76213143528E+02 -0.42120728276E+02 -0.85564900129E+02  0.12208173955E+03  0.00000000000E+00 0.  1.
</event>
<event>
 7    1  0.2522928E-009  0.1117560E+03  0.7561462E-02  0.1257352E+00
         -2   -1    0    0    0  501 -0.00000000000E+00  0.00000000000E+00  0.44162914858E+02  0.44162914858E+02  0.00000000000E+00 0.  1.
          2   -1    0    0  501    0  0.00000000000E+00 -0.00000000000E+00 -0.31846602653E+03  0.31846602653E+03  0.00000000000E+00 0. -1.
         25    2    1    2    0    0 -0.30946382945E+02  0.47452395809E+02 -0.14453035500E+03  0.19936307163E+03  0.12508877779E+03 0.  0.
          5    1    3    3  502    0  0.40189312826E+02  0.28616847210E+01 -0.11689822859E+02  0.42160342306E+02  0.41800000000E+01 0. -1.
         -5    1    3    3    0  502 -0.71135695771E+02  0.44590711088E+02 -0.13284053214E+03  0.15720272933E+03  0.41800000000E+01 0. -1.
        -11    1    1    2    0    0  0.27248513665E+02  0.18470121160E+02 -0.39367166541E+02  0.51316670528E+02  0.00000000000E+00 0. -1.
         11    1    1    2    0    0  0.36978692801E+01 -0.65922516970E+02 -0.90405590135E+02  0.11194919923E+03  0.00000000000E+00 0.  1.
</event>
<event>
 7    1  0.2522928E-009  0.3035342E+03  0.7561462E-02  0.1083487E+00
          1   -1    0    0  501    0  0.00000000000E+00  0.00000000000E+00  0.18405328750E+03  0.18405328750E+03  0.00000000000E+00 0. -1.
         -1   -1    0    0    0  501 -0.00000000000E+00 -0.00000000000E+00 -0.58846228100E+03  0.58846228100E+03  0.00000000000E+00 0.  1.
         25    2    1    2    0    0 -0.28210656577E+03  0.99669600453E+02 -0.30238114896E+03  0.44339235237E+03  0.12507707698E+03 0.  0.
          5    1    3    3  502    0 -0.16152352415E+03  0.90461867632E+02 -0.10784519300E+03  0.21429245531E+03  0.41800000000E+01 0. -1.
         -5    1    3    3    0  502 -0.12058304162E+03  0.92077328210E+01 -0.19453595596E+03  0.22909989705E+03  0.41800000000E+01 0. -1.
        -11    1    1    2    0    0  0.90006734447E+02 -0.16285518123E+02 -0.74372668734E+02  0.11788860929E+03  0.00000000000E+00 0.  1.
         11    1    1    2    0    0  0.19209983132E+03 -0.83384082330E+02 -0.27655175802E+02  0.21123460684E+03  0.00000000000E+00 0. -1.
</event>
<event>
 7    1  0.2522928E-009  0.1205491E+03  0.7561462E-02  0.1242194E+00
         -2   -1    0    0    0  501 -0.00000000000E+00  0.00000000000E+00  0.36456039897E+02  0.36456039897E+02  0.00000000000E+00 0.  1.
          2   -1    0    0  501    0  0.00000000000E+00 -0.00000000000E+00 -0.40563459831E+03  0.40563459831E+03  0.00000000000E+00 0. -1.
         25    2    1    2    0    0 -0.34190072454E+02  0.44927760967E+02 -0.20791885110E+03  0.24912930079E+03  0.12509074749E+03 0.  0.
          5    1    3    3  502    0  0.28983370081E+02  0.63435132027E+02 -0.89072227340E+02  0.11320506084E+03  0.41800000000E+01 0. -1.
         -5    1    3    3    0  502 -0.63173442536E+02 -0.18507371060E+02 -0.11884662376E+03  0.13592423995E+03  0.41800000000E+01 0. -1.
        -11    1    1    2    0    0 -0.25331891226E+02 -0.37544199638E+02 -0.58566707002E+02  0.74036010216E+02  0.00000000000E+00 0. -1.
         11    1    1    2    0    0  0.59521963681E+02 -0.73835613287E+01 -0.10269300030E+03  0.11892532720E+03  0.00000000000E+00 0.  1.
</event>
<event>
 7    1  0.2522928E-009  0.1060585E+03  0.7561462E-02  0.1268048E+00
         -1   -1    0    0    0  501 -0.00000000000E+00  0.00000000000E+00  0.68297377266E+02  0.68297377266E+02  0.00000000000E+00 0.  1.
          1   -1    0    0  501    0  0.00000000000E+00 -0.00000000000E+00 -0.25994136896E+03  0.25994136896E+03  0.00000000000E+00 0. -1.
         25    2    1    2    0    0 -0.34414720418E+02 -0.38983178679E+02 -0.38129765317E+02  0.14073473552E+03  0.12509326752E+03 0.  0.
          5    1    3    3  502    0  0.20909859724E+02  0.16710735741E+02  0.27295687375E+02  0.38457741379E+02  0.41800000000E+01 0.  1.
         -5    1    3    3    0  502 -0.55324580142E+02 -0.55693914420E+02 -0.65425452691E+02  0.10227699414E+03  0.41800000000E+01 0.  1.
        -11    1    1    2    0    0 -0.11787354949E+02  0.55961211898E+02 -0.96577407313E+02  0.11223989744E+03  0.00000000000E+00 0.  1.
         11    1    1    2    0    0  0.46202075367E+02 -0.16978033219E+02 -0.56936819060E+02  0.75264113261E+02  0.00000000000E+00 0. -1.
</event>
<event>
 7    1  0.2522928E-009  0.2312022E+03  0.7561462E-02  0.1125796E+00
          1   -1    0    0  501    0  0.00000000000E+00  0.00000000000E+00  0.13157677649E+04  0.13157677649E+04  0.00000000000E+00 0. -1.
         -1   -1    0    0    0  501 -0.00000000000E+00 -0.00000000000E+00 -0.50049404635E+02  0.50049404635E+02  0.00000000000E+00 0.  1.
         25    2    1    2    0    0  0.17380869896E+03  0.13766278559E+03  0.82534637545E+03  0.86371548993E+03  0.12508917500E+03 0.  0.
          5    1    3    3  502    0  0.17814088653E+03  0.12602588170E+03  0.60820399649E+03  0.64617820457E+03  0.41800000000E+01 0.  1.
         -5    1    3    3    0  502 -0.43321875709E+01  0.11636903890E+02  0.21714237896E+03  0.21753728536E+03  0.41800000000E+01 0.  1.
        -11    1    1    2    0    0 -0.14817465153E+03 -0.81024262975E+02  0.24886607279E+03  0.30075734527E+03  0.00000000000E+00 0.  1.
         11    1    1    2    0    0 -0.25634047432E+02 -0.56638522612E+02  0.19150591205E+03  0.20134433436E+03  0.00000000000E+00 0. -1.
</event>
<event>
 7    1  0.2575531E-009  0.1254576E+03  0.7561462E-02  0.1234356E+00
         -3   -1    0    0    0  501 -0.00000000000E+00  0.00000000000E+00  0.31454700828E+03  0.31454700828E+03  0.00000000000E+00 0.  1.
          3   -1    0    0  501    0  0.00000000000E+00 -0.00000000000E+00 -0.76394119838E+02  0.76394119838E+02  0.00000000000E+00 0. -1.
         25    2    1    2    0    0 -0.10079816438E+03  0.44351218133E+02  0.13297334802E+03  0.21320560600E+03  0.12508964247E+03 0.  0.
          5    1    3    3  502    0 -0.81645820541E+02  0.69370302090E+02  0.39146066333E+02  0.11414099059E+03  0.41800000000E+01 0.  1.
         -5    1    3    3    0  502 -0.19152343837E+02 -0.25019083957E+02  0.93827281688E+02  0.99064615405E+02  0.41800000000E+01 0.  1.
        -11    1    1    2    0    0  0.51194024298E+02 -0.33364001578E+02  0.19858341075E+00  0.61106662161E+02  0.00000000000E+00 0. -1.
         11    1    1    2    0    0  0.49604140081E+02 -0.10987216556E+02  0.10498095701E+03  0.11662885996E+03  0.00000000000E+00 0.  1.
</event>
<event>
 7    1  0.2604812E-009  0.7869329E+02  0.7561462E-02  0.1332801E+00
         -2   -1    0    0    0  501 -0.00000000000E+00  0.00000000000E+00  0.35406680935E+02  0.35406680935E+02  0.00000000000E+00 0. -1.
          2   -1    0    0  501    0  0.00000000000E+00 -0.00000000000E+00 -0.44520494707E+03  0.44520494707E+03  0.00000000000E+00 0.  1.
         25    2    1    2    0    0 -0.39651297549E+02 -0.42389951719E+02 -0.27834470899E+03  0.31062964946E+03  0.12508344693E+03 0.  0.
          5    1    3    3  502    0 -0.42881093956E+02 -0.78396291576E+01 -0.17028046771E+02  0.46985899811E+02  0.41800000000E+01 0.  1.
         -5    1    3    3    0  502  0.32297964075E+01 -0.34550322562E+02 -0.26131666222E+03  0.26364374965E+03  0.41800000000E+01 0.  1.
        -11    1    1    2    0    0 -0.84972054402E+01  0.26673633015E+02 -0.11245549714E+03  0.11588754910E+03  0.00000000000E+00 0.  1.
         11    1    1    2    0    0  0.48148502989E+02  0.15716318704E+02 -0.18998060004E+02  0.54094429451E+02  0.00000000000E+00 0. -1.
</event>
<event>
 7    1  0.2522928E-009  0.1339220E+03  0.7561462E-02  0.1221750E+00
         -1   -1    0    0    0  501 -0.00000000000E+00  0.00000000000E+00  0.36448053339E+02  0.36448053339E+02  0.00000000000E+00 0.  1.
          1   -1    0    0  501    0  0.00000000000E+00 -0.00000000000E+00 -0.49890690029E+03  0.49890690029E+03  0.00000000000E+00 0. -1.
         25    2    1    2    0    0  0.15414341210E+02  0.77313043105E+02 -0.27357343079E+03  0.31097610585E+03  0.12509519505E+03 0.  0.
          5    1    3    3  502    0  0.41204981993E+02 -0.20699440300E+02 -0.91821470733E+02  0.10283468412E+03  0.41800000000E+01 0.  1.
         -5    1    3    3    0  502 -0.25790640783E+02  0.98012483405E+02 -0.18175196006E+03  0.20814142173E+03  0.41800000000E+01 0.  1.
        -11    1    1    2    0    0 -0.53607998093E+02 -0.48085622983E+02 -0.12707560656E+03  0.14606250162E+03  0.00000000000E+00 0. -1.
         11    1    1    2    0    0  0.38193656883E+02 -0.29227420122E+02 -0.61809809594E+02  0.78316346155E+02  0.00000000000E+00 0.  1.
</event>
<event>
 7    1  0.2522928E-009  0.1223965E+03  0.7561462E-02  0.1239195E+00
         -1   -1    0    0    0  501 -0.00000000000E+00  0.00000000000E+00  0.10913535324E+03  0.10913535324E+03  0.00000000000E+00 0.  1.
          1   -1    0    0  501    0  0.00000000000E+00 -0.00000000000E+00 -0.18715855476E+03  0.18715855476E+03  0.00000000000E+00 0. -1.
         25    2    1    2    0    0  0.73223390528E+02  0.29363762442E+02  0.87811656439E+01  0.14814899866E+03  0.12508845458E+03 0.  0.
          5    1    3    3  502    0  0.82671831102E+02  0.59826410985E+02 -0.21047872027E+02  0.10427999053E+03  0.41800000000E+01 0.  1.
         -5    1    3    3    0  502 -0.94484405742E+01 -0.30462648543E+02  0.29829037670E+02  0.43869008125E+02  0.41800000000E+01 0.  1.
        -11    1    1    2    0    0  0.38437984919E+01  0.19080374610E+02 -0.42842836417E+02  0.47056817937E+02  0.00000000000E+00 0. -1.
         11    1    1    2    0    0 -0.77067189020E+02 -0.48444137052E+02 -0.43961530750E+02  0.10108809141E+03  0.00000000000E+00 0.  1.
</event>
<event>
 7    1  0.2522928E-009  0.9923285E+02  0.7561462E-02  0.1281917E+00
         -2   -1    0    0    0  501 -0.00000000000E+00  0.00000000000E+00  0.28108585165E+02  0.28108585165E+02  0.00000000000E+00 0.  1.
          2   -1    0    0  501    0  0.00000000000E+00 -0.00000000000E+00 -0.62260861534E+03  0.62260861534E+03  0.00000000000E+00 0. -1.
         25    2    1    2    0    0 -0.66282297369E+02  0.19712280467E+02 -0.37508384834E+03  0.40139441892E+03  0.12509064439E+03 0.  0.
          5    1    3    3  502    0 -0.17594862734E+02  0.37826417759E+02 -0.27994146189E+02  0.50413903796E+02  0.41800000000E+01 0. -1.
         -5    1    3    3    0  502 -0.48687434635E+02 -0.18114137292E+02 -0.34708970215E+03  0.35098051513E+03  0.41800000000E+01 0. -1.
        -11    1    1    2    0    0  0.56701566297E+02 -0.48166927581E+02 -0.91496466310E+02  0.11792677338E+03  0.00000000000E+00 0.  1.
         11    1    1    2    0    0  0.95807310720E+01  0.28454647115E+02 -0.12791971552E+03  0.13139600819E+03  0.00000000000E+00 0. -1.
</event>
<event>
 7    1  0.2522928E-009  0.8245047E+02  0.7561462E-02  0.1322238E+00
          2   -1    0    0  501    0  0.00000000000E+00  0.00000000000E+00  0.22511910602E+03  0.22511910602E+03  0.00000000000E+00 0. -1.
         -2   -1    0    0    0  501 -0.00000000000E+00 -0.00000000000E+00 -0.62117212996E+02  0.62117212996E+02  0.00000000000E+00 0.  1.
         25    2    1    2    0    0  0.41402196495E+02  0.23871926521E+02  0.10035728763E+03  0.16734139364E+03  0.12509015187E+03 0.  0.
          5    1    3    3  502    0  0.68172579813E+01 -0.18165817744E+02 -0.24227069501E+02  0.31319247075E+02  0.41800000000E+01 0.  1.
         -5    1    3    3    0  502  0.34584938513E+02  0.42037744265E+02  0.12458435713E+03  0.13602214656E+03  0.41800000000E+01 0.  1.
        -11    1    1    2    0    0  0.13230120484E+02  0.17491839086E+02  0.43548053982E+02  0.48758932804E+02  0.00000000000E+00 0. -1.
         11    1    1    2    0    0 -0.54632316979E+02 -0.41363765607E+02  0.19096551418E+02  0.71135992575E+02  0.00000000000E+00 0.  1.
</event>
<event>
 7    1  0.2522928E-009  0.8448317E+02  0.7561462E-02  0.1316790E+00
          3   -1    0    0  501    0  0.00000000000E+00  0.00000000000E+00  0.20320567041E+03  0.20320567041E+03  0.00000000000E+00 0. -1.
         -3   -1    0    0    0  501 -0.00000000000E+00 -0.00000000000E+00 -0.60624662266E+02  0.60624662266E+02  0.00000000000E+00 0.  1.
         25    2    1    2    0    0 -0.47776078328E+01  0.14115348995E+02  0.75868714582E+02  0.14705656060E+03  0.12508997382E+03 0.  0.
          5    1    3    3  502    0  0.22290074517E+02  0.63173522049E+02  0.26162169165E+02  0.72039383711E+02  0.41800000000E+01 0. -1.
         -5    1    3    3    0  502 -0.27067682349E+02 -0.49058173055E+02  0.49706545417E+02  0.75017176890E+02  0.41800000000E+01 0. -1.
        -11    1    1    2    0    0  0.21522282168E+02  0.29827109731E+01  0.84312322032E+02  0.87067059448E+02  0.00000000000E+00 0. -1.
         11    1    1    2    0    0 -0.16744674336E+02 -0.17098059968E+02 -0.17600028467E+02  0.29706712630E+02  0.00000000000E+00 0.  1.
</event>
<event>
 7    1  0.2522928E-009  0.1506662E+03  0.7561462E-02  0.1199657E+00
         -2   -1    0    0    0  501 -0.00000000000E+00  0.00000000000E+00  0.30232226735E+02  0.30232226735E+02  0.00000000000E+00 0. -1.
          2   -1    0    0  501    0  0.00000000000E+00 -0.00000000000E+00 -0.87805008628E+03  0.87805008628E+03  0.00000000000E+00 0.  1.
         25    2    1    2    0    0 -0.11370841370E+03 -0.26174125618E+02 -0.54154087473E+03  0.56791498689E+03  0.12508487172E+03 0.  0.
          5    1    3    3  502    0 -0.10418804832E+03  0.31800831064E+02 -0.40045851488E+03  0.41503124799E+03  0.41800000000E+01 0. -1.
         -5    1    3    3    0  502 -0.95203653879E+01 -0.57974956681E+02 -0.14108235985E+03  0.15288373890E+03  0.41800000000E+01 0. -1.
        -11    1    1    2    0    0  0.10146895872E+03 -0.32811538637E+01 -0.15171964951E+03  0.18255291727E+03  0.00000000000E+00 0.  1.
         11    1    1    2    0    0  0.12239454986E+02  0.29455279481E+02 -0.15455733531E+03  0.15781440887E+03  0.00000000000E+00 0. -1.
</event>
<event>
 7    1  0.2522928E-009  0.1250688E+03  0.7561462E-02  0.1234962E+00
         -1   -1    0    0    0  501 -0.00000000000E+00  0.00000000000E+00  0.16549604962E+03  0.16549604962E+03  0.00000000000E+00 0.  1.
          1   -1    0    0  501    0  0.00000000000E+00 -0.00000000000E+00 -0.12461069218E+03  0.12461069218E+03  0.00000000000E+00 0. -1.
         25    2    1    2    0    0  0.91971059927E+02  0.76466470440E+01  0.35388692372E+02  0.15942701294E+03  0.12508983105E+03 0.  0.
          5    1    3    3  502    0  0.30557999061E+02  0.63252625561E+02  0.29377184162E+02  0.76257309789E+02  0.41800000000E+01 0.  1.
         -5    1    3    3    0  502  0.61413060867E+02 -0.55605978517E+02  0.60115082106E+01  0.83169703154E+02  0.41800000000E+01 0.  1.
        -11    1    1    2    0    0 -0.54465220061E+02 -0.18907999288E+02 -0.40360598865E+02  0.70377202091E+02  0.00000000000E+00 0. -1.
         11    1    1    2    0    0 -0.37505839866E+02  0.11261352243E+02  0.45857263931E+02  0.60302526760E+02  0.00000000000E+00 0.  1.
</event>
<event>
 7    1  0.2522928E-009  0.1248733E+03  0.7561462E-02  0.1235267E+00
         -4   -1    0    0    0  501 -0.00000000000E+00  0.00000000000E+00  0.37781739543E+03  0.37781739543E+03  0.00000000000E+00 0.  1.
          4   -1    0    0  501    0  0.00000000000E+00 -0.00000000000E+00 -0.84891506265E+02  0.84891506265E+02  0.00000000000E+00 0. -1.
         25    2    1    2    0    0 -0.70409369623E+02 -0.27458194886E+02 -0.75764593549E+00  0.14614912287E+03  0.12509020861E+03 0.  0.
          5    1    3    3  502    0 -0.18471597012E+02  0.43664670993E+02  0.25709573428E+02  0.54094897679E+02  0.41800000000E+01 0. -1.
         -5    1    3    3    0  502 -0.51937772611E+02 -0.71122865879E+02 -0.26467219363E+02  0.92054225191E+02  0.41800000000E+01 0. -1.
        -11    1    1    2    0    0  0.30289364137E+02  0.56737665333E+02  0.12305506783E+03  0.13884940751E+03  0.00000000000E+00 0. -1.
         11    1    1    2    0    0  0.40120005486E+02 -0.29279470446E+02  0.17062846727E+03  0.17771037131E+03  0.00000000000E+00 0.  1.
</event>
<event>
 7    1  0.2522928E-009  0.1041760E+03  0.7561462E-02  0.1271752E+00
          2   -1    0    0  501    0  0.00000000000E+00  0.00000000000E+00  0.56664375393E+03  0.56664375393E+03  0.00000000000E+00 0. -1.
         -2   -1    0    0    0  501 -0.00000000000E+00 -0.00000000000E+00 -0.40951201111E+02  0.40951201111E+02  0.00000000000E+00 0.  1.
         25    2    1    2    0    0  0.91419219280E+01 -0.79218886980E+02  0.42096438964E+03  0.44632390571E+03  0.12503921252E+03 0.  0.
          5    1    3    3  502    0  0.20054198454E+02  0.14192543501E+02  0.24928784102E+03  0.25053043577E+03  0.41800000000E+01 0. -1.
         -5    1    3    3    0  502 -0.10912276526E+02 -0.93411430481E+02  0.17167654862E+03  0.19579346994E+03  0.41800000000E+01 0. -1.
        -11    1    1    2    0    0 -0.22793237298E+02  0.27084239033E+02 -0.80278559229E+01  0.36297853121E+02  0.00000000000E+00 0.  1.
         11    1    1    2    0    0  0.13651315370E+02  0.52134647947E+02  0.11275601910E+03  0.12497319621E+03  0.00000000000E+00 0. -1.
</event>
<event>
 7    1  0.2522928E-009  0.1494602E+03  0.7561462E-02  0.1201138E+00
         -1   -1    0    0    0  501 -0.00000000000E+00  0.00000000000E+00  0.36982048688E+03  0.36982048688E+03  0.00000000000E+00 0.  1.
          1   -1    0    0  501    0  0.00000000000E+00 -0.00000000000E+00 -0.74452821824E+02  0.74452821824E+02  0.00000000000E+00 0. -1.
         25    2    1    2    0    0 -0.15601841946E+02  0.11940213832E+03  0.19665520238E+03  0.26233824230E+03  0.12509115334E+03 0.  0.
          5    1    3    3  502    0  0.53133284712E+02  0.73752281796E+02  0.10116102163E+03  0.13606457920E+03  0.41800000000E+01 0. -1.
         -5    1    3    3    0  502 -0.68735126658E+02  0.45649856522E+02  0.95494180743E+02  0.12627366310E+03  0.41800000000E+01 0. -1.
        -11    1    1    2    0    0  0.26428762407E+02 -0.95058932717E+02  0.11435852813E+03  0.15103825055E+03  0.00000000000E+00 0.  1.
         11    1    1    2    0    0 -0.10826920460E+02 -0.24343205601E+02 -0.15646065457E+02  0.30896815853E+02  0.00000000000E+00 0. -1.
</event>
<event>
 7    1  0.2522928E-009  0.1652913E+03  0.7561462E-02  0.1182849E+00
         -1   -1    0    0    0  501 -0.00000000000E+00  0.00000000000E+00  0.77126014729E+02  0.77126014729E+02  0.00000000000E+00 0.  1.
          1   -1    0    0  501    0  0.00000000000E+00 -0.00000000000E+00 -0.44494019836E+03  0.44494019836E+03  0.00000000000E+00 0. -1.
         25    2    1    2    0    0 -0.39249496288E+02  0.14023170740E+03 -0.14129407496E+03  0.23836161225E+03  0.12508712108E+03 0.  0.
          5    1    3    3  502    0 -0.38825064425E+02  0.28797926295E+02 -0.11350168166E+03  0.12343747537E+03  0.41800000000E+01 0.  1.
         -5    1    3    3    0  502 -0.42443186312E+00  0.11143378110E+03 -0.27792393299E+02  0.11492413688E+03  0.41800000000E+01 0.  1.
        -11    1    1    2    0    0 -0.28538588091E+02 -0.32356879750E+02 -0.64316662223E+02  0.77447089790E+02  0.00000000000E+00 0. -1.
         11    1    1    2    0    0  0.67788084379E+02 -0.10787482764E+03 -0.16220344645E+03  0.20625751105E+03  0.00000000000E+00 0.  1.
</event>
<event>
 7    1  0.2522928E-009  0.9670388E+02  0.7561462E-02  0.1287384E+00
         -1   -1    0    0    0  501 -0.00000000000E+00  0.00000000000E+00  0.40985340443E+03  0.40985340443E+03  0.00000000000E+00 0.  1.
          1   -1    0    0  501    0  0.00000000000E+00 -0.00000000000E+00 -0.33343077480E+02  0.33343077480E+02  0.00000000000E+00 0. -1.
         25    2    1    2    0    0 -0.39233527749E+02 -0.14513887954E+02  0.23824231003E+03  0.27231874352E+03  0.12509267422E+03 0.  0.
          5    1    3    3  502    0 -0.35862998473E+02 -0.47971587191E+02  0.22963828602E+03  0.23735762605E+03  0.41800000000E+01 0. -1.
         -5    1    3    3    0  502 -0.33705292765E+01  0.33457699237E+02  0.86040240050E+01  0.34961117472E+02  0.41800000000E+01 0. -1.
        -11    1    1    2    0    0  0.64897406151E+02 -0.79396700689E+01  0.79486519748E+02  0.10292141909E+03  0.00000000000E+00 0. -1.
         11    1    1    2    0    0 -0.25663878401E+02  0.22453558023E+02  0.58781497177E+02  0.67956319301E+02  0.00000000000E+00 0.  1.
</event>
<event>
 7    1  0.2522928E-009  0.1900508E+03  0.7561462E-02  0.1158416E+00
          2   -1    0    0  501    0  0.00000000000E+00  0.00000000000E+00  0.10120998847E+03  0.10120998847E+03  0.00000000000E+00 0.  1.
         -2   -1    0    0    0  501 -0.00000000000E+00 -0.00000000000E+00 -0.45672117335E+03  0.45672117335E+03  0.00000000000E+00 0. -1.
         25    2    1    2    0    0  0.48447918497E+02  0.17241303487E+03 -0.12405646173E+03  0.25122020744E+03  0.12509249189E+03 0.  0.
          5    1    3    3  502    0  0.30168082905E+00  0.46093903002E+02  0.22781533076E+02  0.51586912629E+02  0.41800000000E+01 0.  1.
         -5    1    3    3    0  502  0.48146237668E+02  0.12631913187E+03 -0.14683799481E+03  0.19963329481E+03  0.41800000000E+01 0.  1.
        -11    1    1    2    0    0 -0.60601296706E+02 -0.59241323121E+02 -0.12390090514E+03  0.15011157791E+03  0.00000000000E+00 0. -1.
         11    1    1    2    0    0  0.12153378210E+02 -0.11317171175E+03 -0.10755381801E+03  0.15659937647E+03  0.00000000000E+00 0.  1.
</event>
<event>
 7    1  0.2522928E-009  0.6805848E+02  0.7561462E-02  0.1366823E+00
          1   -1    0    0  501    0  0.00000000000E+00  0.00000000000E+00  0.71975444934E+03  0.71975444934E+03  0.00000000000E+00 0. -1.
         -1   -1    0    0    0  501 -0.00000000000E+00 -0.00000000000E+00 -0.19890714227E+02  0.19890714227E+02  0.00000000000E+00 0.  1.
         25    2    1    2    0    0 -0.25726139658E+02  0.44117878165E+02  0.39879761985E+03  0.42106384506E+03  0.12508796337E+03 0.  0.
          5    1    3    3  502    0 -0.21134030684E+02  0.43322490063E+02  0.40748963709E+03  0.41035199784E+03  0.41800000000E+01 0. -1.
         -5    1    3    3    0  502 -0.45921089744E+01  0.79538810144E+00 -0.86920172392E+01  0.10711847215E+02  0.41800000000E+01 0. -1.
        -11    1    1    2    0    0  0.19947720035E+02  0.13164444546E+02  0.18538101203E+02  0.30246906140E+02  0.00000000000E+00 0.  1.
         11    1    1    2    0    0  0.57784196225E+01 -0.57282322711E+02  0.28252801406E+03  0.28833441237E+03  0.00000000000E+00 0. -1.
</event>
<event>
 7    1  0.2522928E-009  0.1938783E+03  0.7561462E-02  0.1155009E+00
          1   -1    0    0  501    0  0.00000000000E+00  0.00000000000E+00  0.38346963076E+03  0.38346963076E+03  0.00000000000E+00 0. -1.
         -1   -1    0    0    0  501 -0.00000000000E+00 -0.00000000000E+00 -0.12425183182E+03  0.12425183182E+03  0.00000000000E+00 0.  1.
         25    2    1    2    0    0  0.10522298878E+03 -0.13317590925E+03  0.21989812514E+03  0.30463854483E+03  0.12506701158E+03 0.  0.
          5    1    3    3  502    0  0.10778708095E+03 -0.44786035470E+02  0.90028030508E+02  0.14746647914E+03  0.41800000000E+01 0.  1.
         -5    1    3    3    0  502 -0.25640921675E+01 -0.88389873780E+02  0.12987009463E+03  0.15717206569E+03  0.41800000000E+01 0.  1.
        -11    1    1    2    0    0 -0.74675701044E+02  0.40705513827E+02  0.59283620013E+02  0.10367230481E+03  0.00000000000E+00 0. -1.
         11    1    1    2    0    0 -0.30547287733E+02  0.92470395424E+02 -0.19963946204E+02  0.99410612943E+02  0.00000000000E+00 0.  1.
</event>
<event>
 7    1  0.2522928E-009  0.1132700E+03  0.7561462E-02  0.1254632E+00
         -3   -1    0    0    0  501 -0.00000000000E+00  0.00000000000E+00  0.16537098674E+03  0.16537098674E+03  0.00000000000E+00 0.  1.
          3   -1    0    0  501    0  0.00000000000E+00 -0.00000000000E+00 -0.14318843695E+03  0.14318843695E+03  0.00000000000E+00 0. -1.
         25    2    1    2    0    0 -0.87288030888E+02 -0.40193810664E+01 -0.47666071442E+02  0.15985650149E+03  0.12508673367E+03 0.  0.
          5    1    3    3  502    0 -0.10766501631E+03  0.38259221222E+01 -0.61296957264E+00  0.10781577597E+03  0.41800000000E+01 0. -1.
         -5    1    3    3    0  502  0.20376985419E+02 -0.78453031886E+01 -0.47053101870E+02  0.52040725518E+02  0.41800000000E+01 0. -1.
        -11    1    1    2    0    0  0.41252117566E+02  0.22380203947E+02  0.84811735641E+02  0.96931115927E+02  0.00000000000E+00 0.  1.
         11    1    1    2    0    0  0.46035913322E+02 -0.18360822881E+02 -0.14963114403E+02  0.51771806274E+02  0.00000000000E+00 0. -1.
</event>
<event>
 7    1  0.2522928E-009  0.2868445E+03  0.7561462E-02  0.1092008E+00
          2   -1    0    0  501    0  0.00000000000E+00  0.00000000000E+00  0.15265783817E+04  0.15265783817E+04  0.00000000000E+00 0. -1.
         -2   -1    0    0    0  501 -0.00000000000E+00 -0.00000000000E+00 -0.60619002309E+02  0.60619002309E+02  0.00000000000E+00 0.  1.
         25    2    1    2    0    0 -0.22133235202E+01  0.26919933478E+03  0.97834310661E+03  0.10223871444E+04  0.12508820157E+03 0.  0.
          5    1    3    3  502    0 -0.37339181386E+02  0.25617899190E+03  0.86705162543E+03  0.90488556399E+03  0.41800000000E+01 0. -1.
         -5    1    3    3    0  502  0.35125857865E+02  0.13020342879E+02  0.11129148118E+03  0.11750158042E+03  0.41800000000E+01 0. -1.
        -11    1    1    2    0    0 -0.31276461431E+02 -0.15203929091E+03  0.20576783454E+03  0.25774903444E+03  0.00000000000E+00 0.  1.
         11    1    1    2    0    0  0.33489784951E+02 -0.11716004387E+03  0.28184843824E+03  0.30706120516E+03  0.00000000000E+00 0. -1.
</event>
<event>
 7    1  0.2522928E-009  0.1388452E+03  0.7561462E-02  0.1214891E+00
          2   -1    0    0  501    0  0.00000000000E+00  0.00000000000E+00  0.10078965303E+04  0.10078965303E+04  0.00000000000E+00 0.  1.
         -2   -1    0    0    0  501 -0.00000000000E+00 -0.00000000000E+00 -0.37587693732E+02  0.37587693732E+02  0.00000000000E+00 0. -1.
         25    2    1    2    0    0  0.14853995465E+02  0.94420314147E+02  0.85522646302E+03  0.86959543856E+03  0.12509231316E+03 0.  0.
          5    1    3    3  502    0  0.10521317840E+02 -0.30411186832E+02  0.17823190532E+03  0.18116186930E+03  0.41800000000E+01 0. -1.
         -5    1    3    3    0  502  0.43326776246E+01  0.12483150098E+03  0.67699455770E+03  0.68843356926E+03  0.41800000000E+01 0. -1.
        -11    1    1    2    0    0 -0.35284825684E+02 -0.15144713792E+02  0.76050170996E+02  0.85193953940E+02  0.00000000000E+00 0.  1.
         11    1    1    2    0    0  0.20430830219E+02 -0.79275600354E+02  0.39032202598E+02  0.90694831576E+02  0.00000000000E+00 0. -1.
</event>
<event>
 7    1  0.2522928E-009  0.1373666E+03  0.7561462E-02  0.1216917E+00
         -2   -1    0    0    0  501 -0.00000000000E+00  0.00000000000E+00  0.83445422197E+02  0.83445422197E+02  0.00000000000E+00 0.  1.
          2   -1    0    0  501    0  0.00000000000E+00 -0.00000000000E+00 -0.39379264279E+03  0.39379264279E+03  0.00000000000E+00 0. -1.
         25    2    1    2    0    0  0.68413586814E+02 -0.83887935226E+02 -0.29668655524E+03  0.33968793449E+03  0.12508947294E+03 0.  0.
          5    1    3    3  502    0  0.62589446912E+02 -0.17476207194E+01 -0.52050218745E+02  0.81530305496E+02  0.41800000000E+01 0. -1.
         -5    1    3    3    0  502  0.58241399021E+01 -0.82140314507E+02 -0.24463633649E+03  0.25815762899E+03  0.41800000000E+01 0. -1.
        -11    1    1    2    0    0 -0.13714414238E+02 -0.12593293548E+02 -0.18883406837E+02  0.26519035692E+02  0.00000000000E+00 0. -1.
         11    1    1    2    0    0 -0.54699172577E+02  0.96481228774E+02  0.52227414796E+01  0.11103109481E+03  0.00000000000E+00 0.  1.
</event>
<event>
 7    1  0.3484544E-009  0.1234481E+03  0.7561462E-02  0.1237515E+00
          2   -1    0    0  501    0  0.00000000000E+00  0.00000000000E+00  0.10795765873E+04  0.10795765873E+04  0.00000000000E+00 0. -1.
         -2   -1    0    0    0  501 -0.00000000000E+00 -0.00000000000E+00 -0.15819721571E+02  0.15819721571E+02  0.00000000000E+00 0.  1.
         25    2    1    2    0    0  0.67274759072E+02  0.28092530999E+02  0.59067831762E+03  0.60816383684E+03  0.12508914430E+03 0.  0.
          5    1    3    3  502    0  0.43138873980E+02  0.77578794783E+02  0.39274199577E+03  0.40267006282E+03  0.41800000000E+01 0.  1.
         -5    1    3    3    0  502  0.24135885092E+02 -0.49486263784E+02  0.19793632185E+03  0.20549377402E+03  0.41800000000E+01 0.  1.
        -11    1    1    2    0    0  0.52533186735E+01 -0.29806999304E+02  0.53848886955E+02  0.61771815506E+02  0.00000000000E+00 0. -1.
         11    1    1    2    0    0 -0.72528077746E+02  0.17144683055E+01  0.41922966119E+03  0.42546065656E+03  0.00000000000E+00 0.  1.
</event>
<event>
 7    1  0.2522928E-009  0.1120424E+03  0.7561462E-02  0.1256834E+00
         -1   -1    0    0    0  501 -0.00000000000E+00  0.00000000000E+00  0.20395659947E+03  0.20395659947E+03  0.00000000000E+00 0.  1.
          1   -1    0    0  501    0  0.00000000000E+00 -0.00000000000E+00 -0.80967218216E+02  0.80967218216E+02  0.00000000000E+00 0. -1.
         25    2    1    2    0    0  0.52895150840E+02 -0.34871280992E+02  0.96788402732E+02  0.17037764395E+03  0.12508654377E+03 0.  0.
          5    1    3    3  502    0  0.32170557933E+02  0.33510671359E+02 -0.39417648681E+01  0.46807262288E+02  0.41800000000E+01 0. -1.
         -5    1    3    3    0  502  0.20724592907E+02 -0.68381952350E+02  0.10073016760E+03  0.12357038166E+03  0.41800000000E+01 0. -1.
        -11    1    1    2    0    0 -0.69186551982E+02  0.20395372733E+01  0.33934678870E+02  0.77087619742E+02  0.00000000000E+00 0.  1.
         11    1    1    2    0    0  0.16291401142E+02  0.32831743718E+02 -0.77337003456E+01  0.37458554000E+02  0.00000000000E+00 0. -1.
</event>
<event>
 7    1  0.2522928E-009  0.1177818E+03  0.7561462E-02  0.1246802E+00
          2   -1    0    0  501    0  0.00000000000E+00  0.00000000000E+00  0.37966107290E+03  0.37966107290E+03  0.00000000000E+00 0. -1.
         -2   -1    0    0    0  501 -0.00000000000E+00 -0.00000000000E+00 -0.40513918113E+02  0.40513918113E+02  0.00000000000E+00 0.  1.
         25    2    1    2    0    0  0.56679254489E+02  0.18691844465E+02  0.19912933233E+03  0.24261479344E+03  0.12509006380E+03 0.  0.
          5    1    3    3  502    0  0.77897581006E+02 -0.27728285598E+02  0.91331875468E+02  0.12327154913E+03  0.41800000000E+01 0.  1.
         -5    1    3    3    0  502 -0.21218326517E+02  0.46420130063E+02  0.10779745687E+03  0.11934324431E+03  0.41800000000E+01 0.  1.
        -11    1    1    2    0    0 -0.10770306388E+02  0.31648787843E+02  0.18403330117E+02  0.38161863568E+02  0.00000000000E+00 0.  1.
         11    1    1    2    0    0 -0.45908948101E+02 -0.50340632308E+02  0.12161449233E+03  0.13939833400E+03  0.00000000000E+00 0. -1.
</event>
<event>
 7    1  0.2522928E-009  0.5886999E+02  0.7561462E-02  0.1402636E+00
          1   -1    0    0  501    0  0.00000000000E+00  0.00000000000E+00  0.61687393462E+03  0.61687393462E+03  0.00000000000E+00 0. -1.
         -1   -1    0    0    0  501 -0.00000000000E+00 -0.00000000000E+00 -0.19952004350E+02  0.19952004350E+02  0.00000000000E+00 0.  1.
         25    2    1    2    0    0  0.50842154943E+01  0.21862323076E+02  0.35749048124E+03  0.37940668183E+03  0.12508467382E+03 0.  0.
          5    1    3    3  502    0  0.52632667460E+00  0.50244551651E+01  0.36105811813E+03  0.36111765290E+03  0.41800000000E+01 0. -1.
         -5    1    3    3    0  502  0.45578888197E+01  0.16837867911E+02 -0.35676368902E+01  0.18289028932E+02  0.41800000000E+01 0. -1.
        -11    1    1    2    0    0 -0.45993862233E+02 -0.24756601509E+02  0.15478648567E+03  0.16336211564E+03  0.00000000000E+00 0.  1.
         11    1    1    2    0    0  0.40909646739E+02  0.28942784322E+01  0.84644963368E+02  0.94057141502E+02  0.00000000000E+00 0. -1.
</event>
<event>
 7    1  0.2522928E-009  0.1126051E+03  0.7561462E-02  0.1255820E+00
         -1   -1    0    0    0  501 -0.00000000000E+00  0.00000000000E+00  0.46527757392E+03  0.46527757392E+03  0.00000000000E+00 0.  1.
          1   -1    0    0  501    0  0.00000000000E+00 -0.00000000000E+00 -0.48524934443E+02  0.48524934443E+02  0.00000000000E+00 0. -1.
         25    2    1    2    0    0  0.28248228241E+02 -0.65078918169E+02  0.95974875238E+02  0.17289088008E+03  0.12508737646E+03 0.  0.
          5    1    3    3  502    0 -0.25614413338E+02 -0.50471608291E+02 -0.54868426247E+01  0.57018060789E+02  0.41800000000E+01 0. -1.
         -5    1    3    3    0  502  0.53862641578E+02 -0.14607309878E+02  0.10146171786E+03  0.11587281929E+03  0.41800000000E+01 0. -1.
        -11    1    1    2    0    0  0.18229029439E+02  0.63417383644E+02  0.22438583760E+03  0.23388686620E+03  0.00000000000E+00 0.  1.
         11    1    1    2    0    0 -0.46477257680E+02  0.16615345251E+01  0.96391926636E+02  0.10702476208E+03  0.00000000000E+00 0. -1.
</event>
<event>
 7    1  0.2522928E-009  0.1180598E+03  0.7561462E-02  0.1246332E+00
          2   -1    0    0  501    0  0.00000000000E+00  0.00000000000E+00  0.16527929457E+03  0.16527929457E+03  0.00000000000E+00 0. -1.
         -2   -1    0    0    0  501 -0.00000000000E+00 -0.00000000000E+00 -0.14016338347E+03  0.14016338347E+03  0.00000000000E+00 0.  1.
         25    2    1    2    0    0  0.48410131320E+02  0.90623654475E+02 -0.20437295555E+02  0.16316023487E+03  0.12508953444E+03 0.  0.
          5    1    3    3  502    0  0.22156503018E+02  0.38241047281E+02 -0.72272378438E+02  0.84817789456E+02  0.41800000000E+01 0. -1.
         -5    1    3    3    0  502  0.26253628302E+02  0.52382607193E+02  0.51835082883E+02  0.78342445410E+02  0.41800000000E+01 0. -1.
        -11    1    1    2    0    0 -0.45810686195E+02 -0.36329265890E+01  0.26993051957E+02  0.53295797013E+02  0.00000000000E+00 0.  1.
         11    1    1    2    0    0 -0.25994451251E+01 -0.86990727886E+02  0.18560154690E+02  0.88986646162E+02  0.00000000000E+00 0. -1.
</event>
<event>
 7    1  0.2522928E-009  0.7040382E+02  0.7561462E-02  0.1358725E+00
          2   -1    0    0  501    0  0.00000000000E+00  0.00000000000E+00  0.12891483263E+03  0.12891483263E+03  0.00000000000E+00 0. -1.
         -2   -1    0    0    0  501 -0.00000000000E+00 -0.00000000000E+00 -0.11155540099E+03  0.11155540099E+03  0.00000000000E+00 0.  1.
         25    2    1    2    0    0 -0.14923018294E+02 -0.13812993652E+02  0.61128731695E+02  0.14070556528E+03  0.12509132262E+03 0.  0.
          5    1    3    3  502    0 -0.27258718914E+02  0.10319716990E+02  0.93647402938E+02  0.98167422257E+02  0.41800000000E+01 0.  1.
         -5    1    3    3    0  502  0.12335700620E+02 -0.24132710641E+02 -0.32518671242E+02  0.42538143026E+02  0.41800000000E+01 0.  1.
        -11    1    1    2    0    0  0.45468762969E+02 -0.83125564496E+01 -0.63882994564E+01  0.46661733472E+02  0.00000000000E+00 0. -1.
         11    1    1    2    0    0 -0.30545744675E+02  0.22125550101E+02 -0.37381000605E+02  0.53102934865E+02  0.00000000000E+00 0.  1.
</event>
<event>
 7    1  0.2522928E-009  0.1167026E+03  0.7561462E-02  0.1248638E+00
          2   -1    0    0  501    0  0.00000000000E+00  0.00000000000E+00  0.12522652557E+03  0.12522652557E+03  0.00000000000E+00 0. -1.
         -2   -1    0    0    0  501 -0.00000000000E+00 -0.00000000000E+00 -0.16444841421E+03  0.16444841421E+03  0.00000000000E+00 0.  1.
         25    2    1    2    0    0  0.78201283624E+02 -0.48392611911E+02 -0.66529336609E+01  0.15540457647E+03  0.12509610392E+03 0.  0.
          5    1    3    3  502    0  0.34743426296E+01 -0.39017655991E+02  0.48118487338E+02  0.62187697814E+02  0.41800000000E+01 0. -1.
         -5    1    3    3    0  502  0.74726940994E+02 -0.93749559201E+01 -0.54771420999E+02  0.93216878660E+02  0.41800000000E+01 0. -1.
        -11    1    1    2    0    0  0.52706904697E+01  0.33351942574E+02  0.15086593599E+02  0.36982936037E+02  0.00000000000E+00 0. -1.
         11    1    1    2    0    0 -0.83471974094E+02  0.15040669336E+02 -0.47655548587E+02  0.97287427267E+02  0.00000000000E+00 0.  1.
</event>
<event>
 6    1  0.2522928E-009  0.9816834E+02  0.7561462E-02  0.1284195E+00
          1   -1    0    0  501    0  0.00000000000E+00  0.00000000000E+00  0.60056786761E+02  0.60056786761E+02  0.00000000000E+00 0. -1.
         -1   -1    0    0    0  501 -0.00000000000E+00 -0.00000000000E+00 -0.27232878317E+03  0.27232878317E+03  0.00000000000E+00 0.  1.
          5    1    1    2  502    0  0.24640365339E+02  0.61299766934E+02 -0.83740962432E+02  0.10674657006E+03  0.41800000000E+01 0.  1.
         -5    1    1    2    0  502  0.68148330703E+01 -0.25667362774E+02  0.27393320421E+02  0.38381269719E+02  0.41800000000E+01 0.  1.
        -11    1    1    2    0    0  0.31479158326E+02 -0.11675068209E+01 -0.55792474355E+02  0.64071059580E+02  0.00000000000E+00 0. -1.
         11    1    1    2    0    0 -0.62934356735E+02 -0.34464897339E+02 -0.10013188004E+03  0.12318667058E+03  0.00000000000E+00 0.  1.
</event>
<event>
 7    1  0.2522928E-009  0.1215468E+03  0.7561462E-02  0.1240567E+00
         -2   -1    0    0    0  501 -0.00000000000E+00  0.00000000000E+00  0.21783157493E+02  0.21783157493E+02  0.00000000000E+00 0.  1.
          2   -1    0    0  501    0  0.00000000000E+00 -0.00000000000E+00 -0.12914326452E+04  0.12914326452E+04  0.00000000000E+00 0. -1.
         25    2    1    2    0    0 -0.62917896002E+02 -0.88881011266E+01 -0.11168993766E+04  0.11256779068E+04  0.12509545387E+03 0.  0.
          5    1    3    3  502    0 -0.12521501196E+02 -0.62366023991E+02 -0.63476674044E+03  0.63795971355E+03  0.41800000000E+01 0.  1.
         -5    1    3    3    0  502 -0.50396394806E+02  0.53477922865E+02 -0.48213263612E+03  0.48771819328E+03  0.41800000000E+01 0.  1.
        -11    1    1    2    0    0  0.68541421705E+02 -0.23815344038E+02 -0.12381695198E+03  0.14351214129E+03  0.00000000000E+00 0.  1.
         11    1    1    2    0    0 -0.56235257033E+01  0.32703445164E+02 -0.28933159190E+02  0.44025754595E+02  0.00000000000E+00 0. -1.
</event>
<event>
 7    1  0.2752423E-009  0.3104869E+03  0.7561462E-02  0.1080113E+00
         -1   -1    0    0    0  501 -0.00000000000E+00  0.00000000000E+00  0.95299157878E+02  0.95299157878E+02  0.00000000000E+00 0.  1.
          1   -1    0    0  501    0  0.00000000000E+00 -0.00000000000E+00 -0.13608676485E+04  0.13608676485E+04  0.00000000000E+00 0. -1.
         25    2    1    2    0    0 -0.20848288803E+03 -0.21206386132E+03 -0.98818011431E+03  0.10395103599E+04  0.12508258894E+03 0.  0.
          5    1    3    3  502    0 -0.13512954739E+03 -0.20918229083E+03 -0.75797118549E+03  0.79784397962E+03  0.41800000000E+01 0.  1.
         -5    1    3    3    0  502 -0.73353340638E+02 -0.28815704905E+01 -0.23020892882E+03  0.24166638024E+03  0.41800000000E+01 0.  1.
        -11    1    1    2    0    0  0.93492616448E+02  0.11246018977E+03 -0.19469360152E+03  0.24350310488E+03  0.00000000000E+00 0. -1.
         11    1    1    2    0    0  0.11499027158E+03  0.99603671545E+02 -0.82694774803E+02  0.17315334165E+03  0.00000000000E+00 0.  1.
</event>
<event>
 7    1  0.2522928E-009  0.1800930E+03  0.7561462E-02  0.1167713E+00
          1   -1    0    0  501    0  0.00000000000E+00  0.00000000000E+00  0.61723556885E+03  0.61723556885E+03  0.00000000000E+00 0. -1.
         -1   -1    0    0    0  501 -0.00000000000E+00 -0.00000000000E+00 -0.62100039328E+02  0.62100039328E+02  0.00000000000E+00 0.  1.
         25    2    1    2    0    0 -0.14871910074E+03 -0.58069727164E+02  0.23407464814E+03  0.30974601819E+03  0.12514867457E+03 0.  0.
          5    1    3    3  502    0 -0.40960200587E+02 -0.56777827444E+02  0.17096155294E+03  0.18478848639E+03  0.41800000000E+01 0.  1.
         -5    1    3    3    0  502 -0.10775890015E+03 -0.12918997199E+01  0.63113095202E+02  0.12495753179E+03  0.41800000000E+01 0.  1.
        -11    1    1    2    0    0  0.52349988311E+02 -0.22122575032E+02  0.11741945633E+03  0.13045021398E+03  0.00000000000E+00 0.  1.
         11    1    1    2    0    0  0.96369112425E+02  0.80192302196E+02  0.20364142505E+03  0.23913937601E+03  0.00000000000E+00 0. -1.
</event>
<event>
 7    1  0.2522928E-009  0.1334265E+03  0.7561462E-02  0.1222458E+00
         -1   -1    0    0    0  501 -0.00000000000E+00  0.00000000000E+00  0.51535939549E+02  0.51535939549E+02  0.00000000000E+00 0.  1.
          1   -1    0    0  501    0  0.00000000000E+00 -0.00000000000E+00 -0.37292641013E+03  0.37292641013E+03  0.00000000000E+00 0. -1.
         25    2    1    2    0    0 -0.59912877512E+02 -0.60783342515E+02 -0.15195196906E+03  0.21452713736E+03  0.12509326177E+03 0.  0.
          5    1    3    3  502    0 -0.75427075864E+02  0.11114348535E+02 -0.91898955048E+02  0.11948080539E+03  0.41800000000E+01 0.  1.
         -5    1    3    3    0  502  0.15514198352E+02 -0.71897691050E+02 -0.60053014015E+02  0.95046331971E+02  0.41800000000E+01 0.  1.
        -11    1    1    2    0    0  0.79810389064E+02  0.50253737814E+02 -0.10238790337E+03  0.13920639039E+03  0.00000000000E+00 0.  1.
         11    1    1    2    0    0 -0.19897511552E+02  0.10529604701E+02 -0.67050598146E+02  0.70728821939E+02  0.00000000000E+00 0. -1.
</event>
<event>
 7    1  0.2522928E-009  0.2110826E+03  0.7561462E-02  0.1140712E+00
         -2   -1    0    0    0  501 -0.00000000000E+00  0.00000000000E+00  0.15426288626E+03  0.15426288626E+03  0.00000000000E+00 0. -1.
          2   -1    0    0  501    0  0.00000000000E+00 -0.00000000000E+00 -0.32197093339E+03  0.32197093339E+03  0.00000000000E+00 0.  1.
         25    2    1    2    0    0 -0.40201875881E+02  0.18832166150E+03 -0.13044204028E+03  0.26409006814E+03  0.12508876529E+03 0.  0.
          5    1    3    3  502    0  0.30664484402E+02  0.30734828622E+01 -0.20916666399E+02  0.37479811016E+02  0.41800000000E+01 0. -1.
         -5    1    3    3    0  502 -0.70866360283E+02  0.18524817864E+03 -0.10952537388E+03  0.22661025712E+03  0.41800000000E+01 0. -1.
        -11    1    1    2    0    0  0.23048038219E+02 -0.91997537835E+02 -0.59300051062E+02  0.11185372184E+03  0.00000000000E+00 0.  1.
         11    1    1    2    0    0  0.17153837662E+02 -0.96324123669E+02  0.22034044218E+02  0.10029002967E+03  0.00000000000E+00 0. -1.
</event>
<event>
 7    1  0.2522928E-009  0.1216205E+03  0.7561462E-02  0.1240447E+00
         -1   -1    0    0    0  501 -0.00000000000E+00  0.00000000000E+00  0.14553250193E+03  0.14553250193E+03  0.00000000000E+00 0.  1.
          1   -1    0    0  501    0  0.00000000000E+00 -0.00000000000E+00 -0.14040972069E+03  0.14040972069E+03  0.00000000000E+00 0. -1.
         25    2    1    2    0    0  0.65299723533E+02 -0.15439590586E+02 -0.62528849931E+02  0.15510512641E+03  0.12508120687E+03 0.  0.
          5    1    3    3  502    0  0.64031726542E+02  0.46288120264E+02 -0.26193146725E+02  0.83343898499E+02  0.41800000000E+01 0.  1.
         -5    1    3    3    0  502  0.12679969908E+01 -0.61727710851E+02 -0.36335703205E+02  0.71761227907E+02  0.41800000000E+01 0.  1.
        -11    1    1    2    0    0  0.11733191970E+02 -0.15314878418E+02 -0.56929208831E+01  0.20115234101E+02  0.00000000000E+00 0.  1.
         11    1    1    2    0    0 -0.77032915503E+02  0.30754469005E+02  0.73344552049E+02  0.11072186211E+03  0.00000000000E+00 0. -1.
</event>
<event>
 7    1  0.2522928E-009  0.9136726E+02  0.7561462E-02  0.1299574E+00
         -1   -1    0    0    0  501 -0.00000000000E+00  0.00000000000E+00  0.84144408865E+02  0.84144408865E+02  0.00000000000E+00 0.  1.
          1   -1    0    0  501    0  0.00000000000E+00 -0.00000000000E+00 -0.19678872403E+03  0.19678872403E+03  0.00000000000E+00 0. -1.
         25    2    1    2    0    0 -0.54605284814E+02  0.38263488337E+01 -0.17799587542E+02  0.13769645695E+03  0.12508841220E+03 0.  0.
          5    1    3    3  502    0 -0.82028053749E+02  0.37844517042E+01 -0.49184498115E+02  0.95809764280E+02  0.41800000000E+01 0.  1.
         -5    1    3    3    0  502  0.27422768935E+02  0.41897129484E-01  0.31384910573E+02  0.41886692674E+02  0.41800000000E+01 0.  1.
        -11    1    1    2    0    0  0.87638896357E+00  0.15611780111E+02  0.13559287765E+02  0.20696618577E+02  0.00000000000E+00 0.  1.
         11    1    1    2    0    0  0.53728895850E+02 -0.19438128944E+02 -0.10840401538E+03  0.12254005736E+03  0.00000000000E+00 0. -1.
</event>
<event>
 7    1  0.2522928E-009  0.1543620E+03  0.7561462E-02  0.1195213E+00
          1   -1    0    0  501    0  0.00000000000E+00  0.00000000000E+00  0.72849800559E+03  0.72849800559E+03  0.00000000000E+00 0. -1.
         -1   -1    0    0    0  501 -0.00000000000E+00 -0.00000000000E+00 -0.40159737968E+02  0.40159737968E+02  0.00000000000E+00 0.  1.
         25    2    1    2    0    0  0.11322137061E+03 -0.72164908469E+02  0.37373452911E+03  0.41635444415E+03  0.12508665851E+03 0.  0.
          5    1    3    3  502    0  0.12850581024E+03 -0.61621212874E+02  0.37058020870E+03  0.39706180958E+03  0.41800000000E+01 0.  1.
         -5    1    3    3    0  502 -0.15284439633E+02 -0.10543695595E+02  0.31543204099E+01  0.19292634577E+02  0.41800000000E+01 0.  1.
        -11    1    1    2    0    0 -0.27645982178E+02  0.52459483201E+02  0.66404951326E+02  0.89027609588E+02  0.00000000000E+00 0.  1.
         11    1    1    2    0    0 -0.85575388429E+02  0.19705425268E+02  0.24819878718E+03  0.26327568982E+03  0.00000000000E+00 0. -1.
</event>
<event>
 7    1  0.2522928E-009  0.1174896E+03  0.7561462E-02  0.1247297E+00
         -1   -1    0    0    0  501 -0.00000000000E+00  0.00000000000E+00  0.10161140526E+03  0.10161140526E+03  0.00000000000E+00 0.  1.
          1   -1    0    0  501    0  0.00000000000E+00 -0.00000000000E+00 -0.17252537014E+03  0.17252537014E+03  0.00000000000E+00 0. -1.
         25    2    1    2    0    0 -0.37901641330E+02  0.60767206144E+02 -0.27386001892E+02  0.14672082450E+03  0.12509124463E+03 0.  0.
          5    1    3    3  502    0 -0.11619203839E+02 -0.33684965579E+02  0.16177794394E+02  0.39355764957E+02  0.41800000000E+01 0. -1.
         -5    1    3    3    0  502 -0.26282437491E+02  0.94452171723E+02 -0.43563796286E+02  0.10736505954E+03  0.41800000000E+01 0. -1.
        -11    1    1    2    0    0  0.40460138447E+02 -0.31006614023E+00  0.15075257665E+02  0.43178493928E+02  0.00000000000E+00 0.  1.
         11    1    1    2    0    0 -0.25584971173E+01 -0.60457140003E+02 -0.58603220659E+02  0.84237456968E+02  0.00000000000E+00 0. -1.
</event>
<event>
 7    1  0.2522928E-009  0.1305198E+03  0.7561462E-02  0.1226687E+00
          1   -1    0    0  501    0  0.00000000000E+00  0.00000000000E+00  0.36723064465E+03  0.36723064465E+03  0.00000000000E+00 0. -1.
         -1   -1    0    0    0  501 -0.00000000000E+00 -0.00000000000E+00 -0.55181532090E+02  0.55181532090E+02  0.00000000000E+00 0.  1.
         25    2    1    2    0    0  0.73854918983E+02 -0.19255798692E+02  0.24379669202E+03  0.28444652916E+03  0.12509063142E+03 0.  0.
          5    1    3    3  502    0  0.95452765482E+02 -0.48686823756E+02  0.15631313516E+03  0.18955976859E+03  0.41800000000E+01 0.  1.
         -5    1    3    3    0  502 -0.21597846499E+02  0.29431025064E+02  0.87483556856E+02  0.94886760561E+02  0.41800000000E+01 0.  1.
        -11    1    1    2    0    0 -0.37745428012E+02  0.54702777849E+02  0.23742610487E+02  0.70574944513E+02  0.00000000000E+00 0.  1.
         11    1    1    2    0    0 -0.36109490971E+02 -0.35446979157E+02  0.44509810058E+02  0.67390703075E+02  0.00000000000E+00 0. -1.
</event>
<event>
 7    1  0.2522928E-009  0.2258650E+03  0.7561462E-02  0.1129584E+00
          1   -1    0    0  501    0  0.00000000000E+00  0.00000000000E+00  0.97017475479E+02  0.97017475479E+02  0.00000000000E+00 0.  1.
         -1   -1    0    0    0  501 -0.00000000000E+00 -0.00000000000E+00 -0.64801488361E+03  0.64801488361E+03  0.00000000000E+00 0. -1.
         25    2    1    2    0    0  0.20328491560E+03 -0.34365404022E+02 -0.14866256865E+03  0.28329191248E+03  0.12509200794E+03 0.  0.
          5    1    3    3  502    0  0.21774946681E+03 -0.42001735650E+02 -0.12619787464E+03  0.25519081499E+03  0.41800000000E+01 0. -1.
         -5    1    3    3    0  502 -0.14464551210E+02  0.76363316283E+01 -0.22464694017E+02  0.28101097483E+02  0.41800000000E+01 0. -1.
        -11    1    1    2    0    0 -0.17296825116E+03  0.48436406714E+02 -0.26322277735E+03  0.31866962818E+03  0.00000000000E+00 0.  1.
         11    1    1    2    0    0 -0.30316664441E+02 -0.14071002692E+02 -0.13911206212E+03  0.14307081843E+03  0.00000000000E+00 0. -1.
</event>
<event>
 7    1  0.2522928E-009  0.1588184E+03  0.7561462E-02  0.1190037E+00
         -3   -1    0    0    0  501 -0.00000000000E+00  0.00000000000E+00  0.35031509647E+03  0.35031509647E+03  0.00000000000E+00 0.  1.
          3   -1    0    0  501    0  0.00000000000E+00 -0.00000000000E+00 -0.90539685537E+02  0.90539685537E+02  0.00000000000E+00 0. -1.
         25    2    1    2    0    0 -0.10588429932E+03 -0.91295168182E+02  0.11941152004E+03  0.22238080332E+03  0.12509123867E+03 0.  0.
          5    1    3    3  502    0 -0.73944099035E+02 -0.10014819257E+03  0.31709373483E+02  0.12853150207E+03  0.41800000000E+01 0.  1.
         -5    1    3    3    0  502 -0.31940200281E+02  0.88530243888E+01  0.87702146554E+02  0.93849301249E+02  0.41800000000E+01 0.  1.
        -11    1    1    2    0    0  0.28153193210E+02  0.75191874347E+02  0.10338929706E+03  0.13090365542E+03  0.00000000000E+00 0.  1.
         11    1    1    2    0    0  0.77731106106E+02  0.16103293836E+02  0.36974593842E+02  0.87570323276E+02  0.00000000000E+00 0. -1.
</event>
<event>
 7    1  0.2522928E-009  0.8269230E+02  0.7561462E-02  0.1321580E+00
         -2   -1    0    0    0  501 -0.00000000000E+00  0.00000000000E+00  0.42737231619E+02  0.42737231619E+02  0.00000000000E+00 0.  1.
          2   -1    0    0  501    0  0.00000000000E+00 -0.00000000000E+00 -0.29646294802E+03  0.29646294802E+03  0.00000000000E+00 0. -1.
         25    2    1    2    0    0  0.94381428086E+01 -0.19629005943E+02 -0.15868789371E+03  0.20323435219E+03  0.12509187777E+03 0.  0.
          5    1    3    3  502    0  0.16210345048E+02 -0.47846502988E+02 -0.99797134376E+01  0.51663625647E+02  0.41800000000E+01 0.  1.
         -5    1    3    3    0  502 -0.67722022394E+01  0.28217497044E+02 -0.14870818028E+03  0.15157072654E+03  0.41800000000E+01 0.  1.
        -11    1    1    2    0    0  0.36302465858E+02  0.15420627270E+02 -0.12270152691E+02  0.41306433153E+02  0.00000000000E+00 0.  1.
         11    1    1    2    0    0 -0.45740608667E+02  0.42083786735E+01 -0.82767669994E+02  0.94659394296E+02  0.00000000000E+00 0. -1.
</event>
<event>
 7    1  0.2522928E-009  0.1242497E+03  0.7561462E-02  0.1236247E+00
         -2   -1    0    0    0  501 -0.00000000000E+00  0.00000000000E+00  0.23016492711E+02  0.23016492711E+02  0.00000000000E+00 0.  1.
          2   -1    0    0  501    0  0.00000000000E+00 -0.00000000000E+00 -0.10943659662E+04  0.10943659662E+04  0.00000000000E+00 0. -1.
         25    2    1    2    0    0  0.10532270925E+03  0.41900598814E+02 -0.61035171306E+03  0.63326558381E+03  0.12509017841E+03 0.  0.
          5    1    3    3  502    0  0.29771982219E+02  0.91912255417E+01 -0.46581021608E+03  0.46686987411E+03  0.41800000000E+01 0.  1.
         -5    1    3    3    0  502  0.75550727030E+02  0.32709373272E+02 -0.14454149698E+03  0.16639570970E+03  0.41800000000E+01 0.  1.
        -11    1    1    2    0    0 -0.59320512749E+02  0.15263643296E+02 -0.31289555222E+03  0.31883464152E+03  0.00000000000E+00 0. -1.
         11    1    1    2    0    0 -0.46002196500E+02 -0.57164242110E+02 -0.14810220819E+03  0.16528223355E+03  0.00000000000E+00 0.  1.
</event>
<event>
 7    1  0.2522928E-009  0.2005168E+03  0.7561462E-02  0.1149304E+00
         -2   -1    0    0    0  501 -0.00000000000E+00  0.00000000000E+00  0.13710667809E+03  0.13710667809E+03  0.00000000000E+00 0.  1.
          2   -1    0    0  501    0  0.00000000000E+00 -0.00000000000E+00 -0.36379304783E+03  0.36379304783E+03  0.00000000000E+00 0. -1.
         25    2    1    2    0    0  0.13790968706E+03  0.13520039492E+03 -0.90399882788E+02  0.24723075179E+03  0.12511066001E+03 0.  0.
          5    1    3    3  502    0  0.70381201482E+02  0.10589453968E+03 -0.11295315936E+03  0.17012658718E+03  0.41800000000E+01 0.  1.
         -5    1    3    3    0  502  0.67528485580E+02  0.29305855246E+02  0.22553276570E+02  0.77104164612E+02  0.41800000000E+01 0.  1.
        -11    1    1    2    0    0 -0.59819205045E+02 -0.94968525247E+02 -0.30784539337E+02  0.11638318582E+03  0.00000000000E+00 0. -1.
         11    1    1    2    0    0 -0.78090482017E+02 -0.40231869675E+02 -0.10550194762E+03  0.13728578830E+03  0.00000000000E+00 0.  1.
</event>
<event>
 7    1  0.2522928E-009  0.9878068E+02  0.7561462E-02  0.1282881E+00
         -1   -1    0    0    0  501 -0.00000000000E+00  0.00000000000E+00  0.19388556678E+03  0.19388556678E+03  0.00000000000E+00 0.  1.
          1   -1    0    0  501    0  0.00000000000E+00 -0.00000000000E+00 -0.88758949286E+02  0.88758949286E+02  0.00000000000E+00 0. -1.
         25    2    1    2    0    0 -0.15187876785E+02 -0.48302102962E+02  0.11538625877E+03  0.17755102680E+03  0.12508642474E+03 0.  0.
          5    1    3    3  502    0  0.44807103252E+02 -0.23232309445E+02  0.70533641618E+01  0.51133541340E+02  0.41800000000E+01 0. -1.
         -5    1    3    3    0  502 -0.59994980037E+02 -0.25069793517E+02  0.10833289461E+03  0.12641748546E+03  0.41800000000E+01 0. -1.
        -11    1    1    2    0    0  0.26199205663E+02 -0.55611263727E+01 -0.35606157653E+02  0.44554718793E+02  0.00000000000E+00 0. -1.
         11    1    1    2    0    0 -0.11011328878E+02  0.53863229335E+02  0.25346516384E+02  0.60538770477E+02  0.00000000000E+00 0.  1.
</event>
<event>
 7    1  0.2522928E-009  0.9385419E+02  0.7561462E-02  0.1293778E+00
         -2   -1    0    0    0  501 -0.00000000000E+00  0.00000000000E+00  0.82771210866E+02  0.82771210866E+02  0.00000000000E+00 0.  1.
          2   -1    0    0  501    0  0.00000000000E+00 -0.00000000000E+00 -0.23599348295E+03  0.23599348295E+03  0.00000000000E+00 0. -1.
         25    2    1    2    0    0 -0.19261512925E+02 -0.51264266144E+02 -0.16345545471E+03  0.21299840935E+03  0.12510637812E+03 0.  0.
          5    1    3    3  502    0 -0.11955018789E+02 -0.68952875621E+02 -0.17619555235E+03  0.18963060565E+03  0.41800000000E+01 0.  1.
         -5    1    3    3    0  502 -0.73064941360E+01  0.17688609476E+02  0.12740097641E+02  0.23367803698E+02  0.41800000000E+01 0.  1.
        -11    1    1    2    0    0 -0.28631117405E+02  0.39343953703E+02  0.24380071593E+02  0.54424952620E+02  0.00000000000E+00 0.  1.
         11    1    1    2    0    0  0.47892630330E+02  0.11920312441E+02 -0.14146888967E+02  0.51341331849E+02  0.00000000000E+00 0. -1.
</event>
<event>
 7    1  0.2522928E-009  0.1084807E+03  0.7561462E-02  0.1263410E+00
          1   -1    0    0  501    0  0.00000000000E+00  0.00000000000E+00  0.25738919259E+03  0.25738919259E+03  0.00000000000E+00 0. -1.
         -1   -1    0    0    0  501 -0.00000000000E+00 -0.00000000000E+00 -0.81250453419E+02  0.81250453419E+02  0.00000000000E+00 0.  1.
         25    2    1    2    0    0 -0.34555558726E+02  0.49823440968E+02  0.11052969557E+02  0.13945086513E+03  0.12509162138E+03 0.  0.
          5    1    3    3  502    0 -0.34232620942E+02 -0.17211355776E+02  0.48972076516E+02  0.62320460384E+02  0.41800000000E+01 0. -1.
         -5    1    3    3    0  502 -0.32293778440E+00  0.67034796745E+02 -0.37919106959E+02  0.77130404744E+02  0.41800000000E+01 0. -1.
        -11    1    1    2    0    0  0.19760050894E+02 -0.77440500446E+02  0.11302208543E+03  0.13842500683E+03  0.00000000000E+00 0.  1.
         11    1    1    2    0    0  0.14795507832E+02  0.27617059478E+02  0.52063684186E+02  0.60763774054E+02  0.00000000000E+00 0. -1.
</event>
<event>
 7    1  0.2522928E-009  0.1021809E+03  0.7561462E-02  0.1275776E+00
          1   -1    0    0  501    0  0.00000000000E+00  0.00000000000E+00  0.41080792409E+03  0.41080792409E+03  0.00000000000E+00 0. -1.
         -1   -1    0    0    0  501 -0.00000000000E+00 -0.00000000000E+00 -0.31889433455E+02  0.31889433455E+02  0.00000000000E+00 0.  1.
         25    2    1    2    0    0  0.16819636730E+02 -0.31109427900E+02  0.22835214964E+03  0.26276143338E+03  0.12509264543E+03 0.  0.
          5    1    3    3  502    0 -0.29818631189E+02 -0.48465117835E+02  0.19382728278E+03  0.20205075195E+03  0.41800000000E+01 0. -1.
         -5    1    3    3    0  502  0.46638267918E+02  0.17355689936E+02  0.34524866861E+02  0.60710681427E+02  0.41800000000E+01 0. -1.
        -11    1    1    2    0    0  0.32947150630E+02 -0.81947002417E+01  0.39919998968E+02  0.52404905918E+02  0.00000000000E+00 0.  1.
         11    1    1    2    0    0 -0.49766787359E+02  0.39304128141E+02  0.11064634203E+03  0.12753101826E+03  0.00000000000E+00 0. -1.
</event>
<event>
 7    1  0.2522928E-009  0.9209471E+02  0.7561462E-02  0.1297857E+00
         -1   -1    0    0    0  501 -0.00000000000E+00  0.00000000000E+00  0.31216037787E+02  0.31216037787E+02  0.00000000000E+00 0.  1.
          1   -1    0    0  501    0  0.00000000000E+00 -0.00000000000E+00 -0.66968825806E+03  0.66968825806E+03  0.00000000000E+00 0. -1.
         25    2    1    2    0    0 -0.11081632591E+02  0.27445666602E+01 -0.60723325275E+03  0.62008837858E+03  0.12508812402E+03 0.  0.
          5    1    3    3  502    0  0.40436258140E+02 -0.28930505943E+02 -0.13399452351E+03  0.14298276077E+03  0.41800000000E+01 0.  1.
         -5    1    3    3    0  502 -0.51517890731E+02  0.31675072603E+02 -0.47323872924E+03  0.47710561781E+03  0.41800000000E+01 0.  1.
        -11    1    1    2    0    0  0.10451492428E+02 -0.37491359214E+02 -0.10369205420E+02  0.40278482230E+02  0.00000000000E+00 0.  1.
         11    1    1    2    0    0  0.63014016337E+00  0.34746792554E+02 -0.20869762101E+02  0.40537435039E+02  0.00000000000E+00 0. -1.
</event>
<event>
 7    1  0.2522928E-009  0.9916565E+02  0.7561462E-02  0.1282060E+00
          2   -1    0    0  501    0  0.00000000000E+00  0.00000000000E+00  0.22992879355E+03  0.22992879355E+03  0.00000000000E+00 0.  1.
         -2   -1    0    0    0  501 -0.00000000000E+00 -0.00000000000E+00 -0.83494483773E+02  0.83494483773E+02  0.00000000000E+00 0. -1.
         25    2    1    2    0    0 -0.19526068741E+02 -0.17978127252E+02  0.17221526548E+03  0.21449935171E+03  0.12508954314E+03 0.  0.
          5    1    3    3  502    0 -0.23483231276E+02  0.41195767509E+02  0.21024245539E+02  0.52038876932E+02  0.41800000000E+01 0.  1.
         -5    1    3    3    0  502  0.39571625356E+01 -0.59173894761E+02  0.15119101994E+03  0.16246047478E+03  0.41800000000E+01 0.  1.
        -11    1    1    2    0    0  0.39388530501E+02 -0.23089065228E+02  0.16619598779E+01  0.45687234309E+02  0.00000000000E+00 0.  1.
         11    1    1    2    0    0 -0.19862461760E+02  0.41067192480E+02 -0.27442915577E+02  0.53236691301E+02  0.00000000000E+00 0. -1.
</event>
<event>
 7    1  0.2522928E-009  0.1367353E+03  0.7561462E-02  0.1217791E+00
          2   -1    0    0  501    0  0.00000000000E+00  0.00000000000E+00  0.25687144545E+03  0.25687144545E+03  0.00000000000E+00 0.  1.
         -2   -1    0    0    0  501 -0.00000000000E+00 -0.00000000000E+00 -0.91045758564E+02  0.91045758564E+02  0.00000000000E+00 0. -1.
         25    2    1    2    0    0 -0.47699833175E+02  0.96947438652E+02  0.56860247285E+02  0.17479900453E+03  0.12509006482E+03 0.  0.
          5    1    3    3  502    0  0.25940358352E+02  0.46790188428E+01  0.49753056382E+02  0.56459139456E+02  0.41800000000E+01 0. -1.
         -5    1    3    3    0  502 -0.73640191527E+02  0.92268419809E+02  0.71071909032E+01  0.11833986507E+03  0.41800000000E+01 0. -1.
        -11    1    1    2    0    0 -0.12644998172E+02 -0.51721021185E+02  0.70834846213E+02  0.88614532946E+02  0.00000000000E+00 0.  1.
         11    1    1    2    0    0  0.60344831347E+02 -0.45226417466E+02  0.38130593391E+02  0.84503666545E+02  0.00000000000E+00 0. -1.
</event>
<event>
 7    1  0.2522928E-009  0.1530406E+03  0.7561462E-02  0.1196786E+00
          1   -1    0    0  501    0  0.00000000000E+00  0.00000000000E+00  0.70887687162E+02  0.70887687162E+02  0.00000000000E+00 0. -1.
         -1   -1    0    0    0  501 -0.00000000000E+00 -0.00000000000E+00 -0.50636961853E+03  0.50636961853E+03  0.00000000000E+00 0.  1.
         25    2    1    2    0    0  0.12090656277E+03  0.37399970871E+02 -0.92554467536E+02  0.20057929631E+03  0.12509424409E+03 0.  0.
          5    1    3    3  502    0  0.29065703341E+02 -0.44113356959E+02 -0.14233690368E+02  0.54871428945E+02  0.41800000000E+01 0. -1.
         -5    1    3    3    0  502  0.91840859433E+02  0.81513327830E+02 -0.78320777168E+02  0.14570786736E+03  0.41800000000E+01 0. -1.
        -11    1    1    2    0    0 -0.44193242551E+02 -0.29424799463E+02 -0.25159781045E+03  0.25713871691E+03  0.00000000000E+00 0.  1.
         11    1    1    2    0    0 -0.76713320223E+02 -0.79751714082E+01 -0.91329653390E+02  0.11953929248E+03  0.00000000000E+00 0. -1.
</event>
<event>
 7    1  0.2768752E-009  0.2391539E+03  0.7561462E-02  0.1120358E+00
         -2   -1    0    0    0  501 -0.00000000000E+00  0.00000000000E+00  0.23952579680E+03  0.23952579680E+03  0.00000000000E+00 0.  1.
          2   -1    0    0  501    0  0.00000000000E+00 -0.00000000000E+00 -0.30103537075E+03  0.30103537075E+03  0.00000000000E+00 0. -1.
         25    2    1    2    0    0  0.10825037175E+03 -0.20689947105E+03  0.43890474946E+02  0.26851302452E+03  0.12508931385E+03 0.  0.
          5    1    3    3  502    0  0.95009338862E+01 -0.18968852731E+02  0.51692850546E+02  0.56033100184E+02  0.41800000000E+01 0. -1.
         -5    1    3    3    0  502  0.98749437863E+02 -0.18793061832E+03 -0.78023755999E+01  0.21247992433E+03  0.41800000000E+01 0. -1.
        -11    1    1    2    0    0 -0.99943937430E+02  0.11619782873E+03 -0.95130157328E+02  0.18038978037E+03  0.00000000000E+00 0. -1.
         11    1    1    2    0    0 -0.83064343191E+01  0.90701642323E+02 -0.10269891567E+02  0.91658362652E+02  0.00000000000E+00 0.  1.
</event>
<event>
 7    1  0.2522928E-009  0.8999897E+02  0.7561462E-02  0.1302854E+00
          1   -1    0    0  501    0  0.00000000000E+00  0.00000000000E+00  0.30696947761E+02  0.30696947761E+02  0.00000000000E+00 0.  1.
         -1   -1    0    0    0  501 -0.00000000000E+00 -0.00000000000E+00 -0.47811084931E+03  0.47811084931E+03  0.00000000000E+00 0. -1.
         25    2    1    2    0    0 -0.23430604955E+02 -0.39425374140E+01 -0.15101926138E+03  0.19753094805E+03  0.12508845383E+03 0.  0.
          5    1    3    3  502    0  0.22771574676E+02 -0.38328868568E+02 -0.11055794967E+02  0.46123202202E+02  0.41800000000E+01 0. -1.
         -5    1    3    3    0  502 -0.46202179632E+02  0.34386331154E+02 -0.13996346641E+03  0.15140774585E+03  0.41800000000E+01 0. -1.
        -11    1    1    2    0    0 -0.75372344533E+00  0.36726873112E+02 -0.52936873018E+02  0.64434026978E+02  0.00000000000E+00 0.  1.
         11    1    1    2    0    0  0.24184328401E+02 -0.32784335698E+02 -0.24345776715E+03  0.24684282204E+03  0.00000000000E+00 0. -1.
</event>
<event>
 7    1  0.2522928E-009  0.6552746E+02  0.7561462E-02  0.1375998E+00
         -1   -1    0    0    0  501 -0.00000000000E+00  0.00000000000E+00  0.58280727878E+03  0.58280727878E+03  0.00000000000E+00 0.  1.
          1   -1    0    0  501    0  0.00000000000E+00 -0.00000000000E+00 -0.27545327440E+02  0.27545327440E+02  0.00000000000E+00 0. -1.
         25    2    1    2    0    0  0.60295908231E+02  0.13293625830E+02  0.36894243457E+03  0.39443409985E+03  0.12508965611E+03 0.  0.
          5    1    3    3  502    0  0.45185169767E+02 -0.17509112052E+01  0.36990673176E+03  0.37268381754E+03  0.41800000000E+01 0.  1.
         -5    1    3    3    0  502  0.15110738464E+02  0.15044537036E+02 -0.96429719217E+00  0.21750282312E+02  0.41800000000E+01 0.  1.
        -11    1    1    2    0    0 -0.28370581504E+02  0.21455151719E+01  0.23347255578E+01  0.28547225324E+02  0.00000000000E+00 0. -1.
         11    1    1    2    0    0 -0.31925326727E+02 -0.15439141002E+02  0.18398479121E+03  0.18737128104E+03  0.00000000000E+00 0.  1.
</event>
<event>
 7    1  0.2522928E-009  0.9289411E+02  0.7561462E-02  0.1295991E+00
          2   -1    0    0  501    0  0.00000000000E+00  0.00000000000E+00  0.28129600606E+03  0.28129600606E+03  0.00000000000E+00 0. -1.
         -2   -1    0    0    0  501 -0.00000000000E+00 -0.00000000000E+00 -0.83201696005E+02  0.83201696005E+02  0.00000000000E+00 0.  1.
         25    2    1    2    0    0 -0.53325386532E+02  0.49101468863E+02  0.20462488601E+03  0.25054031303E+03  0.12507818908E+03 0.  0.
          5    1    3    3  502    0 -0.71516810573E+02  0.15624016511E+02  0.19864752825E+03  0.21174767287E+03  0.41800000000E+01 0. -1.
         -5    1    3    3    0  502  0.18191424041E+02  0.33477452352E+02  0.59773577631E+01  0.38792640158E+02  0.41800000000E+01 0. -1.
        -11    1    1    2    0    0  0.39066077354E+02 -0.44358344743E+02 -0.43934091798E+02  0.73647984156E+02  0.00000000000E+00 0.  1.
         11    1    1    2    0    0  0.14259309179E+02 -0.47431241199E+01  0.37403515841E+02  0.40309404882E+02  0.00000000000E+00 0. -1.
</event>
<event>
 7    1  0.2522928E-009  0.1229062E+03  0.7561462E-02  0.1238378E+00
          1   -1    0    0  501    0  0.00000000000E+00  0.00000000000E+00  0.31774874112E+03  0.31774874112E+03  0.00000000000E+00 0. -1.
         -1   -1    0    0    0  501 -0.00000000000E+00 -0.00000000000E+00 -0.72332689312E+02  0.72332689312E+02  0.00000000000E+00 0.  1.
         25    2    1    2    0    0 -0.96693010850E+02 -0.39278236618E+02  0.98680193808E+02  0.19046713752E+03  0.12509049367E+03 0.  0.
          5    1    3    3  502    0 -0.82968496707E+02 -0.10172908405E+02 -0.29865011110E+01  0.83747543845E+02  0.41800000000E+01 0. -1.
         -5    1    3    3    0  502 -0.13724514143E+02 -0.29105328213E+02  0.10166669492E+03  0.10671959368E+03  0.41800000000E+01 0. -1.
        -11    1    1    2    0    0  0.67416087583E+02 -0.14020393252E+02  0.10606596025E+03  0.12645745615E+03  0.00000000000E+00 0. -1.
         11    1    1    2    0    0  0.29276923267E+02  0.53298629870E+02  0.40669897752E+02  0.73156836763E+02  0.00000000000E+00 0.  1.
</event>
<event>
 7    1  0.2522928E-009  0.1450494E+03  0.7561462E-02  0.1206692E+00
          2   -1    0    0  501    0  0.00000000000E+00  0.00000000000E+00  0.95674906610E+03  0.95674906610E+03  0.00000000000E+00 0. -1.
         -2   -1    0    0    0  501 -0.00000000000E+00 -0.00000000000E+00 -0.27499425120E+02  0.27499425120E+02  0.00000000000E+00 0.  1.
         25    2    1    2    0    0  0.23589555530E+02  0.11828403265E+03  0.48814374697E+03  0.51814904485E+03  0.12508611222E+03 0.  0.
          5    1    3    3  502    0 -0.23595581129E+02  0.59741276746E+02  0.38553218135E+03  0.39086865678E+03  0.41800000000E+01 0. -1.
         -5    1    3    3    0  502  0.47185136659E+02  0.58542755900E+02  0.10261156562E+03  0.12728038807E+03  0.41800000000E+01 0. -1.
        -11    1    1    2    0    0 -0.49933521866E+02 -0.11301954459E+03  0.35389754356E+03  0.37484696264E+03  0.00000000000E+00 0.  1.
         11    1    1    2    0    0  0.26343966336E+02 -0.52644880582E+01  0.87208350450E+02  0.91252483720E+02  0.00000000000E+00 0. -1.
</event>
<event>
 7    1  0.2522928E-009  0.1017921E+03  0.7561462E-02  0.1276572E+00
         -2   -1    0    0    0  501 -0.00000000000E+00  0.00000000000E+00  0.18933185636E+02  0.18933185636E+02  0.00000000000E+00 0. -1.
          2   -1    0    0  501    0  0.00000000000E+00 -0.00000000000E+00 -0.75535723466E+03  0.75535723466E+03  0.00000000000E+00 0.  1.
         25    2    1    2    0    0  0.78607499620E+01  0.47804493787E+02 -0.37799929506E+03  0.40109579733E+03  0.12508921037E+03 0.  0.
          5    1    3    3  502    0 -0.31318341757E+02  0.61503524093E+02 -0.33146951107E+03  0.33860453508E+03  0.41800000000E+01 0.  1.
         -5    1    3    3    0  502  0.39179091719E+02 -0.13699030306E+02 -0.46529783989E+02  0.62491262248E+02  0.41800000000E+01 0.  1.
        -11    1    1    2    0    0 -0.43573394991E+02 -0.29240205296E+02 -0.28177666999E+03  0.28662121713E+03  0.00000000000E+00 0.  1.
         11    1    1    2    0    0  0.35712645029E+02 -0.18564288491E+02 -0.76648083977E+02  0.86573405844E+02  0.00000000000E+00 0. -1.
</event>
<event>
 7    1  0.2522928E-009  0.8091105E+02  0.7561462E-02  0.1326486E+00
          1   -1    0    0  501    0  0.00000000000E+00  0.00000000000E+00  0.31057356483E+03  0.31057356483E+03  0.00000000000E+00 0. -1.
         -1   -1    0    0    0  501 -0.00000000000E+00 -0.00000000000E+00 -0.53363864297E+02  0.53363864297E+02  0.00000000000E+00 0.  1.
         25    2    1    2    0    0 -0.62676789389E+00 -0.33661490791E+02  0.24747745023E+03  0.27933103385E+03  0.12508896554E+03 0.  0.
          5    1    3    3  502    0  0.33499544467E+02 -0.39533459135E+02  0.31993239906E+02  0.61042228583E+02  0.41800000000E+01 0.  1.
         -5    1    3    3    0  502 -0.34126312361E+02  0.58719683437E+01  0.21548421032E+03  0.21828880527E+03  0.41800000000E+01 0.  1.
        -11    1    1    2    0    0 -0.13664493520E+02  0.50820543296E+02 -0.11417147544E+02  0.53849765664E+02  0.00000000000E+00 0.  1.
         11    1    1    2    0    0  0.14291261414E+02 -0.17159052504E+02  0.21149397852E+02  0.30756629613E+02  0.00000000000E+00 0. -1.
</event>
<event>
 7    1  0.2522928E-009  0.2131124E+03  0.7561462E-02  0.1139125E+00
         -1   -1    0    0    0  501 -0.00000000000E+00  0.00000000000E+00  0.63064163314E+02  0.63064163314E+02  0.00000000000E+00 0.  1.
          1   -1    0    0  501    0  0.00000000000E+00 -0.00000000000E+00 -0.87629038514E+03  0.87629038514E+03  0.00000000000E+00 0. -1.
         25    2    1    2    0    0 -0.20684474755E+03  0.78191789328E+01 -0.46636260455E+03  0.52534552618E+03  0.12509178150E+03 0.  0.
          5    1    3    3  502    0 -0.41568397241E+01 -0.12979140300E+02  0.21610946680E+01  0.14418048744E+02  0.41800000000E+01 0.  1.
         -5    1    3    3    0  502 -0.20268790783E+03  0.20798319233E+02 -0.46852369922E+03  0.51092747743E+03  0.41800000000E+01 0.  1.
        -11    1    1    2    0    0  0.14111345280E+03  0.50129703668E+01 -0.30205409771E+03  0.33342887454E+03  0.00000000000E+00 0.  1.
         11    1    1    2    0    0  0.65731294753E+02 -0.12832149300E+02 -0.44809519557E+02  0.80580147732E+02  0.00000000000E+00 0. -1.
</event>
<event>
 7    1  0.2522928E-009  0.1014241E+03  0.7561462E-02  0.1277329E+00
         -1   -1    0    0    0  501 -0.00000000000E+00  0.00000000000E+00  0.15386301322E+02  0.15386301322E+02  0.00000000000E+00 0.  1.
          1   -1    0    0  501    0  0.00000000000E+00 -0.00000000000E+00 -0.89279139685E+03  0.89279139685E+03  0.00000000000E+00 0. -1.
         25    2    1    2    0    0  0.28973109594E+02 -0.31269015172E+02 -0.40202261389E+03  0.42318838737E+03  0.12509610999E+03 0.  0.
          5    1    3    3  502    0 -0.68344632512E+01  0.32545942489E+02 -0.33284077207E+02  0.47236113895E+02  0.41800000000E+01 0.  1.
         -5    1    3    3    0  502  0.35807572846E+02 -0.63814957661E+02 -0.36873853669E+03  0.37595227348E+03  0.41800000000E+01 0.  1.
        -11    1    1    2    0    0  0.23887863382E+02 -0.12902692244E+02 -0.13840562308E+03  0.14104334789E+03  0.00000000000E+00 0. -1.
         11    1    1    2    0    0 -0.52860972976E+02  0.44171707416E+02 -0.33697685855E+03  0.34394596291E+03  0.00000000000E+00 0.  1.
</event>
<event>
 7    1  0.2522928E-009  0.1986930E+03  0.7561462E-02  0.1150846E+00
         -2   -1    0    0    0  501 -0.00000000000E+00  0.00000000000E+00  0.94742844838E+02  0.94742844838E+02  0.00000000000E+00 0. -1.
          2   -1    0    0  501    0  0.00000000000E+00 -0.00000000000E+00 -0.44026412964E+03  0.44026412964E+03  0.00000000000E+00 0.  1.
         25    2    1    2    0    0  0.97567233887E+02  0.13796083977E+03 -0.22536111930E+03  0.30819962636E+03  0.12508723820E+03 0.  0.
          5    1    3    3  502    0  0.12653569838E+02  0.11796128063E+03 -0.15942247899E+03  0.19876613335E+03  0.41800000000E+01 0.  1.
         -5    1    3    3    0  502  0.84913664049E+02  0.19999559139E+02 -0.65938640304E+02  0.10943349301E+03  0.41800000000E+01 0.  1.
        -11    1    1    2    0    0 -0.37991443249E+02 -0.12462493506E+03 -0.70683437867E+02  0.14822574873E+03  0.00000000000E+00 0.  1.
         11    1    1    2    0    0 -0.59575790638E+02 -0.13335904709E+02 -0.49476727643E+02  0.78581599390E+02  0.00000000000E+00 0. -1.
</event>
<event>
 7    1  0.2522928E-009  0.1101502E+03  0.7561462E-02  0.1260292E+00
          1   -1    0    0  501    0  0.00000000000E+00  0.00000000000E+00  0.81692617329E+03  0.81692617329E+03  0.00000000000E+00 0. -1.
         -1   -1    0    0    0  501 -0.00000000000E+00 -0.00000000000E+00 -0.22548477295E+02  0.22548477295E+02  0.00000000000E+00 0.  1.
         25    2    1    2    0    0  0.43735084280E+02 -0.14864953351E+02  0.64133234421E+03  0.65504866442E+03  0.12509137696E+03 0.  0.
          5    1    3    3  502    0  0.63054361008E+02  0.33304590923E+02  0.24157230814E+03  0.25191208919E+03  0.41800000000E+01 0.  1.
         -5    1    3    3    0  502 -0.19319276728E+02 -0.48169544274E+02  0.39976003607E+03  0.40313657523E+03  0.41800000000E+01 0.  1.
        -11    1    1    2    0    0  0.95388073403E+01  0.37664363452E+02  0.93917053072E+02  0.10163663698E+03  0.00000000000E+00 0. -1.
         11    1    1    2    0    0 -0.53273891620E+02 -0.22799410101E+02  0.59128298708E+02  0.82789349179E+02  0.00000000000E+00 0.  1.
</event>
<event>
 7    1  0.2522928E-009  0.1052776E+03  0.7561462E-02  0.1269574E+00
         -2   -1    0    0    0  501 -0.00000000000E+00  0.00000000000E+00  0.26006004769E+02  0.26006004769E+02  0.00000000000E+00 0.  1.
          2   -1    0    0  501    0  0.00000000000E+00 -0.00000000000E+00 -0.66568601728E+03  0.66568601728E+03  0.00000000000E+00 0. -1.
         25    2    1    2    0    0 -0.45615003809E+02 -0.62099011383E+02 -0.39845993179E+03  0.42468221913E+03  0.12509058403E+03 0.  0.
          5    1    3    3  502    0 -0.19083014917E+02 -0.73133296883E+02 -0.38553852871E+03  0.39289956744E+03  0.41800000000E+01 0. -1.
         -5    1    3    3    0  502 -0.26531988892E+02  0.11034285501E+02 -0.12921403082E+02  0.31782651693E+02  0.41800000000E+01 0. -1.
        -11    1    1    2    0    0  0.48673632071E+02  0.76733862967E+02 -0.15639613369E+03  0.18087829836E+03  0.00000000000E+00 0.  1.
         11    1    1    2    0    0 -0.30586282625E+01 -0.14634851585E+02 -0.84823947030E+02  0.86131504559E+02  0.00000000000E+00 0. -1.
</event>
<event>
 7    1  0.2522928E-009  0.2093559E+03  0.7561462E-02  0.1142077E+00
          1   -1    0    0  501    0  0.00000000000E+00  0.00000000000E+00  0.63151858078E+02  0.63151858078E+02  0.00000000000E+00 0. -1.
         -1   -1    0    0    0  501 -0.00000000000E+00 -0.00000000000E+00 -0.79343475345E+03  0.79343475345E+03  0.00000000000E+00 0.  1.
         25    2    1    2    0    0  0.17178347924E+03 -0.56184898571E+02 -0.52154744784E+03  0.56597256341E+03  0.12508755183E+03 0.  0.
          5    1    3    3  502    0  0.17140568022E+03 -0.11265004900E+02 -0.44633213292E+03  0.47826420818E+03  0.41800000000E+01 0.  1.
         -5    1    3    3    0  502  0.37779901294E+00 -0.44919893671E+02 -0.75215314919E+02  0.87708355234E+02  0.41800000000E+01 0.  1.
        -11    1    1    2    0    0 -0.12312340854E+02  0.39563259959E+02 -0.35440106372E+02  0.54523815123E+02  0.00000000000E+00 0.  1.
         11    1    1    2    0    0 -0.15947113838E+03  0.16621638612E+02 -0.17329534116E+03  0.23609023299E+03  0.00000000000E+00 0. -1.
</event>
<event>
 7    1  0.2522928E-009  0.7823556E+02  0.7561462E-02  0.1334135E+00
         -2   -1    0    0    0  501 -0.00000000000E+00  0.00000000000E+00  0.18300885172E+03  0.18300885172E+03  0.00000000000E+00 0.  1.
          2   -1    0    0  501    0  0.00000000000E+00 -0.00000000000E+00 -0.11440490671E+03  0.11440490671E+03  0.00000000000E+00 0. -1.
         25    2    1    2    0    0 -0.36226713199E+02  0.24495057581E+02 -0.49333388156E+02  0.14139845814E+03  0.12508940076E+03 0.  0.
          5    1    3    3  502    0 -0.41674668946E+02  0.16856219468E+02  0.34573183752E+02  0.56865522078E+02  0.41800000000E+01 0.  1.
         -5    1    3    3    0  502  0.54479557469E+01  0.76388381132E+01 -0.83906571908E+02  0.84532936059E+02  0.41800000000E+01 0.  1.
        -11    1    1    2    0    0  0.48574071594E+02  0.21724416650E+02  0.50717789746E+02  0.73509760622E+02  0.00000000000E+00 0.  1.
         11    1    1    2    0    0 -0.12347358395E+02 -0.46219474231E+02  0.67219543428E+02  0.82505539670E+02  0.00000000000E+00 0. -1.
</event>
<event>
 7    1  0.2522928E-009  0.1217320E+03  0.7561462E-02  0.1240267E+00
          3   -1    0    0  501    0  0.00000000000E+00  0.00000000000E+00  0.20174081357E+03  0.20174081357E+03  0.00000000000E+00 0. -1.
         -3   -1    0    0    0  501 -0.00000000000E+00 -0.00000000000E+00 -0.13876585852E+03  0.13876585852E+03  0.00000000000E+00 0.  1.
         25    2    1    2    0    0 -0.44348752738E+02  0.29970139491E+02 -0.82037662824E+02  0.15887669077E+03  0.12508638462E+03 0.  0.
          5    1    3    3  502    0 -0.46616620175E+02  0.75812332522E+02 -0.62426764570E+02  0.10878967034E+03  0.41800000000E+01 0. -1.
         -5    1    3    3    0  502  0.22678674377E+01 -0.45842193031E+02 -0.19610898253E+02  0.50087020424E+02  0.41800000000E+01 0. -1.
        -11    1    1    2    0    0 -0.21044284665E+02 -0.36942736743E+02  0.44775201038E+02  0.61745010673E+02  0.00000000000E+00 0.  1.
         11    1    1    2    0    0  0.65393037403E+02  0.69725972518E+01  0.10023741684E+03  0.11988497065E+03  0.00000000000E+00 0. -1.
</event>
<event>
 7    1  0.2522928E-009  0.8906720E+02  0.7561462E-02  0.1305126E+00
          2   -1    0    0  501    0  0.00000000000E+00  0.00000000000E+00  0.18975361734E+03  0.18975361734E+03  0.00000000000E+00 0.  1.
         -2   -1    0    0    0  501 -0.00000000000E+00 -0.00000000000E+00 -0.63562754567E+02  0.63562754567E+02  0.00000000000E+00 0. -1.
         25    2    1    2    0    0  0.12994048579E+02  0.11086965491E+02  0.81808343330E+02  0.15044769284E+03  0.12510050815E+03 0.  0.
          5    1    3    3  502    0 -0.37555323167E+02 -0.16690701946E+02 -0.94803935146E+01  0.42383158103E+02  0.41800000000E+01 0.  1.
         -5    1    3    3    0  502  0.50549371746E+02  0.27777667436E+02  0.91288736845E+02  0.10806453473E+03  0.41800000000E+01 0.  1.
        -11    1    1    2    0    0  0.27583820595E+02  0.14360395803E+02  0.45318664508E+02  0.54962436982E+02  0.00000000000E+00 0.  1.
         11    1    1    2    0    0 -0.40577869174E+02 -0.25447361294E+02 -0.93614506497E+00  0.47906242089E+02  0.00000000000E+00 0. -1.
</event>
<event>
 7    1  0.2522928E-009  0.1271366E+03  0.7561462E-02  0.1231767E+00
          4   -1    0    0  501    0  0.00000000000E+00  0.00000000000E+00  0.73149962118E+02  0.73149962118E+02  0.00000000000E+00 0. -1.
         -4   -1    0    0    0  501 -0.00000000000E+00 -0.00000000000E+00 -0.27447721445E+03  0.27447721445E+03  0.00000000000E+00 0.  1.
         25    2    1    2    0    0  0.72955399795E+00 -0.86057857347E+02 -0.69057877360E+02  0.16679907097E+03  0.12508578093E+03 0.  0.
          5    1    3    3  502    0 -0.24512453095E+02 -0.10579388697E+03 -0.77405294163E+02  0.13342510574E+03  0.41800000000E+01 0. -1.
         -5    1    3    3    0  502  0.25242007093E+02  0.19736029627E+02  0.83474168028E+01  0.33373965225E+02  0.41800000000E+01 0. -1.
        -11    1    1    2    0    0 -0.28206364270E+02  0.80434527871E+02 -0.12594567478E+03  0.15207769480E+03  0.00000000000E+00 0.  1.
         11    1    1    2    0    0  0.27476810272E+02  0.56233294759E+01 -0.63237001901E+01  0.28750410801E+02  0.00000000000E+00 0. -1.
</event>
<event>
 7    1  0.2522928E-009  0.1269380E+03  0.7561462E-02  0.1232071E+00
          2   -1    0    0  501    0  0.00000000000E+00  0.00000000000E+00  0.11795221463E+03  0.11795221463E+03  0.00000000000E+00 0.  1.
         -2   -1    0    0    0  501 -0.00000000000E+00 -0.00000000000E+00 -0.15662148310E+03  0.15662148310E+03  0.00000000000E+00 0. -1.
         25    2    1    2    0    0  0.52186109446E+02 -0.56562103536E+02 -0.49155007608E+02  0.15487341380E+03  0.12508756114E+03 0.  0.
          5    1    3    3  502    0 -0.10023810538E+02  0.34654214685E+02 -0.14079679079E+02  0.38949982491E+02  0.41800000000E+01 0. -1.
         -5    1    3    3    0  502  0.62209919984E+02 -0.91216318221E+02 -0.35075328529E+02  0.11592343131E+03  0.41800000000E+01 0. -1.
        -11    1    1    2    0    0 -0.70483422566E+02  0.34701983482E+02 -0.16688960409E+02  0.80316012810E+02  0.00000000000E+00 0.  1.
         11    1    1    2    0    0  0.18297313120E+02  0.21860120055E+02  0.27174699553E+02  0.39384271124E+02  0.00000000000E+00 0. -1.
</event>
<event>
 7    1  0.2522928E-009  0.9559188E+02  0.7561462E-02  0.1289849E+00
         -1   -1    0    0    0  501 -0.00000000000E+00  0.00000000000E+00  0.33209078513E+02  0.33209078513E+02  0.00000000000E+00 0.  1.
          1   -1    0    0  501    0  0.00000000000E+00 -0.00000000000E+00 -0.49322570139E+03  0.49322570139E+03  0.00000000000E+00 0. -1.
         25    2    1    2    0    0  0.38865026069E+02  0.30273744363E+02 -0.35146320866E+03  0.37629888513E+03  0.12508986391E+03 0.  0.
          5    1    3    3  502    0  0.52441495708E+02  0.45719582201E+02 -0.34814500121E+03  0.35505324239E+03  0.41800000000E+01 0.  1.
         -5    1    3    3    0  502 -0.13576469639E+02 -0.15445837839E+02 -0.33182074566E+01  0.21245642732E+02  0.41800000000E+01 0.  1.
        -11    1    1    2    0    0 -0.68380588523E+01 -0.57840613259E+02 -0.44058601310E+02  0.73030513763E+02  0.00000000000E+00 0.  1.
         11    1    1    2    0    0 -0.32026967217E+02  0.27566868897E+02 -0.64494812907E+02  0.77105381017E+02  0.00000000000E+00 0. -1.
</event>
<event>
 7    1  0.2522928E-009  0.2141728E+03  0.7561462E-02  0.1138304E+00
          1   -1    0    0  501    0  0.00000000000E+00  0.00000000000E+00  0.32183239412E+03  0.32183239412E+03  0.00000000000E+00 0. -1.
         -1   -1    0    0    0  501 -0.00000000000E+00 -0.00000000000E+00 -0.15098288677E+03  0.15098288677E+03  0.00000000000E+00 0.  1.
         25    2    1    2    0    0  0.68383320593E+02 -0.17416733033E+03  0.13256157225E+03  0.26120963957E+03  0.12508943951E+03 0.  0.
          5    1    3    3  502    0  0.43494083944E+02 -0.18900132834E+03  0.12566793738E+03  0.23113446376E+03  0.41800000000E+01 0. -1.
         -5    1    3    3    0  502  0.24889236649E+02  0.14833998015E+02  0.68936348724E+01  0.30075175807E+02  0.41800000000E+01 0. -1.
        -11    1    1    2    0    0 -0.30315326799E+02  0.38428363487E+01  0.19079013829E+02  0.36024924688E+02  0.00000000000E+00 0.  1.
         11    1    1    2    0    0 -0.38067993795E+02  0.17032449398E+03  0.19208921268E+02  0.17558071664E+03  0.00000000000E+00 0. -1.
</event>
<event>
 7    1  0.2522928E-009  0.1470440E+03  0.7561462E-02  0.1204153E+00
          1   -1    0    0  501    0  0.00000000000E+00  0.00000000000E+00  0.37346555799E+03  0.37346555799E+03  0.00000000000E+00 0. -1.
         -1   -1    0    0    0  501 -0.00000000000E+00 -0.00000000000E+00 -0.80503401926E+02  0.80503401926E+02  0.00000000000E+00 0.  1.
         25    2    1    2    0    0 -0.11070709958E+03  0.66336093263E+02  0.20363918601E+03  0.27161252704E+03  0.12509159684E+03 0.  0.
          5    1    3    3  502    0 -0.84350432871E+02  0.10160088479E+02  0.18966930417E+03  0.20787048917E+03  0.41800000000E+01 0. -1.
         -5    1    3    3    0  502 -0.26356666709E+02  0.56176004784E+02  0.13969881844E+02  0.63742037873E+02  0.41800000000E+01 0. -1.
        -11    1    1    2    0    0  0.11318768375E+03 -0.76340183877E+02  0.98664750323E+02  0.16844586188E+03  0.00000000000E+00 0. -1.
         11    1    1    2    0    0 -0.24805841744E+01  0.10004090614E+02 -0.93417802699E+01  0.13910570997E+02  0.00000000000E+00 0.  1.
</event>
