<event>
 8    1  0.6627806E-009  0.1826730E+03  0.7561462E-02  0.1165241E+00
          2   -1    0    0  501    0  0.00000000000E+00  0.00000000000E+00  0.21935910929E+03  0.21935910929E+03  0.00000000000E+00 0.  1.
         -2   -1    0    0    0  501 -0.00000000000E+00 -0.00000000000E+00 -0.18123895966E+03  0.18123895966E+03  0.00000000000E+00 0. -1.
         25    2    1    2    0    0  0.93553986645E+02  0.13155109478E+03  0.64230566692E+02  0.21408613433E+03  0.12509703538E+03 0.  0.
         23    2    1    2    0    0 -0.93553986645E+02 -0.13155109478E+03 -0.26110417062E+02  0.18651193461E+03  0.89704564654E+02 0.  0.
          5    1    3    3  502    0  0.51782936108E+02 -0.14201717836E+01  0.52944739045E+02  0.74189670119E+02  0.41800000000E+01 0.  1.
         -5    1    3    3    0  502  0.41771050536E+02  0.13297126656E+03  0.11285827647E+02  0.13989646421E+03  0.41800000000E+01 0.  1.
        -11    1    4    4    0    0 -0.61477212784E+01 -0.61809547617E+02 -0.39928844980E+02  0.73841230454E+02  0.00000000000E+00 0. -1.
         11    1    4    4    0    0 -0.87406265366E+02 -0.69741547161E+02  0.13818427917E+02  0.11267070416E+03  0.00000000000E+00 0.  1.
</event>
<event>
 8    1  0.6627806E-009  0.1859838E+03  0.7561462E-02  0.1162134E+00
         -2   -1    0    0    0  501 -0.00000000000E+00  0.00000000000E+00  0.59813162693E+02  0.59813162693E+02  0.00000000000E+00 0.  1.
          2   -1    0    0  501    0  0.00000000000E+00 -0.00000000000E+00 -0.60525911958E+03  0.60525911958E+03  0.00000000000E+00 0. -1.
         25    2    1    2    0    0 -0.48400649485E+02 -0.14581879184E+03 -0.34995367052E+03  0.40214616457E+03  0.12509285850E+03 0.  0.
         23    2    1    2    0    0  0.48400649485E+02  0.14581879184E+03 -0.19549228637E+03  0.26292611770E+03  0.85481965418E+02 0.  0.
          5    1    3    3  502    0 -0.89493474594E+02 -0.91144500552E+02 -0.25265479043E+03  0.28314010225E+03  0.41800000000E+01 0. -1.
         -5    1    3    3    0  502  0.41092825108E+02 -0.54674291293E+02 -0.97298880090E+02  0.11900606233E+03  0.41800000000E+01 0. -1.
        -11    1    4    4    0    0 -0.19413091837E+02  0.75477503645E+02 -0.80857458962E+02  0.11230160445E+03  0.00000000000E+00 0.  1.
         11    1    4    4    0    0  0.67813741322E+02  0.70341288199E+02 -0.11463482741E+03  0.15062451325E+03  0.00000000000E+00 0. -1.
</event>
<event>
 8    1  0.6627806E-009  0.1027486E+03  0.7561462E-02  0.1274620E+00
         -2   -1    0    0    0  501 -0.00000000000E+00  0.00000000000E+00  0.71663459165E+02  0.71663459165E+02  0.00000000000E+00 0.  1.
          2   -1    0    0  501    0  0.00000000000E+00 -0.00000000000E+00 -0.26192154682E+03  0.26192154682E+03  0.00000000000E+00 0. -1.
         25    2    1    2    0    0 -0.38293089213E+02  0.57216388248E+02 -0.45195243993E+02  0.14976655334E+03  0.12508930672E+03 0.  0.
         23    2    1    2    0    0  0.38293089213E+02 -0.57216388248E+02 -0.14506284367E+03  0.18381845265E+03  0.89475802063E+02 0.  0.
          5    1    3    3  502    0  0.49262360685E+01  0.50178600709E+02 -0.79328840134E+02  0.94088772167E+02  0.41800000000E+01 0. -1.
         -5    1    3    3    0  502 -0.43219325282E+02  0.70377875393E+01  0.34133596141E+02  0.55677781177E+02  0.41800000000E+01 0. -1.
        -11    1    4    4    0    0  0.66151268289E+02 -0.47397814057E+02 -0.12048143712E+03  0.14539023270E+03  0.00000000000E+00 0. -1.
         11    1    4    4    0    0 -0.27858179076E+02 -0.98185741904E+01 -0.24581406550E+02  0.38428219950E+02  0.00000000000E+00 0.  1.
</event>
<event>
 8    1  0.6627806E-009  0.7131848E+02  0.7561462E-02  0.1355666E+00
          1   -1    0    0  501    0  0.00000000000E+00  0.00000000000E+00  0.98313176024E+02  0.98313176024E+02  0.00000000000E+00 0. -1.
         -1   -1    0    0    0  501 -0.00000000000E+00 -0.00000000000E+00 -0.15893865481E+03  0.15893865481E+03  0.00000000000E+00 0.  1.
         25    2    1    2    0    0  0.18632449617E+02  0.24504264640E+02 -0.90350428502E+02  0.15734692983E+03  0.12508888532E+03 0.  0.
         23    2    1    2    0    0 -0.18632449617E+02 -0.24504264640E+02  0.29724949716E+02  0.99904901008E+02  0.90276184265E+02 0.  0.
          5    1    3    3  502    0 -0.13343821393E+02  0.42630025463E+02 -0.10756353317E+03  0.11654511019E+03  0.41800000000E+01 0.  1.
         -5    1    3    3    0  502  0.31976271010E+02 -0.18125760823E+02  0.17213104672E+02  0.40801819636E+02  0.41800000000E+01 0.  1.
        -11    1    4    4    0    0 -0.24325947704E+02  0.96376718351E+01 -0.24322214755E+02  0.35724033656E+02  0.00000000000E+00 0.  1.
         11    1    4    4    0    0  0.56934980869E+01 -0.34141936475E+02  0.54047164471E+02  0.64180867352E+02  0.00000000000E+00 0. -1.
</event>
<event>
 8    1  0.6627806E-009  0.1149315E+03  0.7561462E-02  0.1251701E+00
         -1   -1    0    0    0  501 -0.00000000000E+00  0.00000000000E+00  0.44284170402E+03  0.44284170402E+03  0.00000000000E+00 0.  1.
          1   -1    0    0  501    0  0.00000000000E+00 -0.00000000000E+00 -0.54032353359E+02  0.54032353359E+02  0.00000000000E+00 0. -1.
         25    2    1    2    0    0  0.22204841943E+02 -0.45029758882E+02  0.53600990736E+02  0.14505583226E+03  0.12508954422E+03 0.  0.
         23    2    1    2    0    0 -0.22204841943E+02  0.45029758882E+02  0.33520835992E+03  0.35181822512E+03  0.94290427786E+02 0.  0.
          5    1    3    3  502    0 -0.46644983604E+02  0.29963332160E+01  0.31631526711E+01  0.47034141249E+02  0.41800000000E+01 0. -1.
         -5    1    3    3    0  502  0.68849825547E+02 -0.48026092098E+02  0.50437838065E+02  0.98021691012E+02  0.41800000000E+01 0. -1.
        -11    1    4    4    0    0  0.28064611753E+02 -0.43745660094E+01  0.45325998004E+02  0.53490236078E+02  0.00000000000E+00 0. -1.
         11    1    4    4    0    0 -0.50269453696E+02  0.49404324891E+02  0.28988236192E+03  0.29832798904E+03  0.00000000000E+00 0.  1.
</event>
<event>
 8    1  0.6627806E-009  0.1240667E+03  0.7561462E-02  0.1236535E+00
         -2   -1    0    0    0  501 -0.00000000000E+00  0.00000000000E+00  0.17783694407E+03  0.17783694407E+03  0.00000000000E+00 0.  1.
          2   -1    0    0  501    0  0.00000000000E+00 -0.00000000000E+00 -0.90201581375E+02  0.90201581375E+02  0.00000000000E+00 0. -1.
         25    2    1    2    0    0 -0.52395461051E+02  0.38341308861E+02  0.53623797340E+02  0.15079442940E+03  0.12509239782E+03 0.  0.
         23    2    1    2    0    0  0.52395461051E+02 -0.38341308861E+02  0.34011565350E+02  0.11724409604E+03  0.91509841958E+02 0.  0.
          5    1    3    3  502    0 -0.49863164517E+02 -0.36300945928E+02  0.42856657806E+02  0.75221402335E+02  0.41800000000E+01 0.  1.
         -5    1    3    3    0  502 -0.25322965348E+01  0.74642254789E+02  0.10767139534E+02  0.75573027063E+02  0.41800000000E+01 0.  1.
        -11    1    4    4    0    0  0.48364443030E+02  0.20502566410E+02  0.22514467131E+02  0.57152216135E+02  0.00000000000E+00 0. -1.
         11    1    4    4    0    0  0.40310180215E+01 -0.58843875271E+02  0.11497098219E+02  0.60091879907E+02  0.00000000000E+00 0.  1.
</event>
<event>
 8    1  0.6627806E-009  0.1132529E+03  0.7561462E-02  0.1254662E+00
          1   -1    0    0  501    0  0.00000000000E+00  0.00000000000E+00  0.69927570973E+03  0.69927570973E+03  0.00000000000E+00 0. -1.
         -1   -1    0    0    0  501 -0.00000000000E+00 -0.00000000000E+00 -0.27546596513E+02  0.27546596513E+02  0.00000000000E+00 0.  1.
         25    2    1    2    0    0 -0.42617002774E+02 -0.52231807326E+02  0.51341944750E+03  0.53272044048E+03  0.12508864059E+03 0.  0.
         23    2    1    2    0    0  0.42617002774E+02  0.52231807326E+02  0.15830966572E+03  0.19410186577E+03  0.89828800582E+02 0.  0.
          5    1    3    3  502    0 -0.67231858094E+02 -0.57799802215E+02  0.49020684790E+03  0.49817784576E+03  0.41800000000E+01 0. -1.
         -5    1    3    3    0  502  0.24614855319E+02  0.55679948890E+01  0.23212599607E+02  0.34542594720E+02  0.41800000000E+01 0. -1.
        -11    1    4    4    0    0 -0.66178419716E+01  0.61677964703E+02  0.82621219097E+02  0.10331617979E+03  0.00000000000E+00 0.  1.
         11    1    4    4    0    0  0.49234844746E+02 -0.94461573767E+01  0.75688446620E+02  0.90785685976E+02  0.00000000000E+00 0. -1.
</event>
<event>
 8    1  0.6627806E-009  0.1917333E+03  0.7561462E-02  0.1156907E+00
         -1   -1    0    0    0  501 -0.00000000000E+00  0.00000000000E+00  0.49548050214E+02  0.49548050214E+02  0.00000000000E+00 0.  1.
          1   -1    0    0  501    0  0.00000000000E+00 -0.00000000000E+00 -0.81174249398E+03  0.81174249398E+03  0.00000000000E+00 0. -1.
         25    2    1    2    0    0 -0.12130652403E+03 -0.10944555912E+03 -0.49902648349E+03  0.53978527935E+03  0.12508842231E+03 0.  0.
         23    2    1    2    0    0  0.12130652403E+03  0.10944555912E+03 -0.26316796028E+03  0.32150526485E+03  0.86108401588E+02 0.  0.
          5    1    3    3  502    0  0.21933478780E+02 -0.22018196070E+02 -0.13978097292E+03  0.14325526601E+03  0.41800000000E+01 0. -1.
         -5    1    3    3    0  502 -0.14324000281E+03 -0.87427363048E+02 -0.35924551057E+03  0.39653001334E+03  0.41800000000E+01 0. -1.
        -11    1    4    4    0    0 -0.13016164325E+02  0.15939415907E+02 -0.36903161996E+02  0.42253152291E+02  0.00000000000E+00 0.  1.
         11    1    4    4    0    0  0.13432268835E+03  0.93506143212E+02 -0.22626479828E+03  0.27925211256E+03  0.00000000000E+00 0. -1.
</event>
<event>
 8    1  0.6627806E-009  0.5661106E+02  0.7561462E-02  0.1412630E+00
          2   -1    0    0  501    0  0.00000000000E+00  0.00000000000E+00  0.21947424790E+03  0.21947424790E+03  0.00000000000E+00 0. -1.
         -2   -1    0    0    0  501 -0.00000000000E+00 -0.00000000000E+00 -0.63591682158E+02  0.63591682158E+02  0.00000000000E+00 0.  1.
         25    2    1    2    0    0  0.31213828935E+02  0.12512871411E+02  0.12383402356E+03  0.17920142936E+03  0.12508961518E+03 0.  0.
         23    2    1    2    0    0 -0.31213828935E+02 -0.12512871411E+02  0.32048542185E+02  0.10386450070E+03  0.92896988014E+02 0.  0.
          5    1    3    3  502    0 -0.87645581308E+01 -0.14386314474E+02 -0.20569099818E+02  0.26913635776E+02  0.41800000000E+01 0. -1.
         -5    1    3    3    0  502  0.39978387066E+02  0.26899185885E+02  0.14440312338E+03  0.15228779358E+03  0.41800000000E+01 0. -1.
        -11    1    4    4    0    0  0.11522161844E+01 -0.14993778823E+02  0.59488384875E+02  0.61359668680E+02  0.00000000000E+00 0. -1.
         11    1    4    4    0    0 -0.32366045119E+02  0.24809074123E+01 -0.27439842690E+02  0.42504832021E+02  0.00000000000E+00 0.  1.
</event>
<event>
 8    1  0.6627806E-009  0.7575948E+02  0.7561462E-02  0.1341535E+00
          1   -1    0    0  501    0  0.00000000000E+00  0.00000000000E+00  0.13938939209E+03  0.13938939209E+03  0.00000000000E+00 0. -1.
         -1   -1    0    0    0  501 -0.00000000000E+00 -0.00000000000E+00 -0.10356430368E+03  0.10356430368E+03  0.00000000000E+00 0.  1.
         25    2    1    2    0    0 -0.64350626788E+01  0.13137508070E+02  0.68533854569E+02  0.14338112940E+03  0.12508898790E+03 0.  0.
         23    2    1    2    0    0  0.64350626788E+01 -0.13137508070E+02 -0.32708766158E+02  0.99572566373E+02  0.92902252074E+02 0.  0.
          5    1    3    3  502    0 -0.35737855593E+02  0.78780267398E+01  0.95898359553E+02  0.10272889269E+03  0.41800000000E+01 0. -1.
         -5    1    3    3    0  502  0.29302792914E+02  0.52594813306E+01 -0.27364504984E+02  0.40652236709E+02  0.41800000000E+01 0. -1.
        -11    1    4    4    0    0  0.45010910867E+02 -0.64450186536E+01 -0.39017267359E+02  0.59915503125E+02  0.00000000000E+00 0.  1.
         11    1    4    4    0    0 -0.38575848188E+02 -0.66924894168E+01  0.63085012010E+01  0.39657063248E+02  0.00000000000E+00 0. -1.
</event>
<event>
 8    1  0.6627806E-009  0.7151232E+02  0.7561462E-02  0.1355025E+00
          4   -1    0    0  501    0  0.00000000000E+00  0.00000000000E+00  0.47510827752E+03  0.47510827752E+03  0.00000000000E+00 0. -1.
         -4   -1    0    0    0  501 -0.00000000000E+00 -0.00000000000E+00 -0.40237096660E+02  0.40237096660E+02  0.00000000000E+00 0.  1.
         25    2    1    2    0    0  0.60360475405E+02 -0.12765418408E+02  0.34919191970E+03  0.37601671119E+03  0.12508887806E+03 0.  0.
         23    2    1    2    0    0 -0.60360475405E+02  0.12765418408E+02  0.85679261167E+02  0.13932866299E+03  0.90913132379E+02 0.  0.
          5    1    3    3  502    0  0.38523714744E+02  0.15027554776E+02  0.22249133905E+02  0.47142341475E+02  0.41800000000E+01 0. -1.
         -5    1    3    3    0  502  0.21836760661E+02 -0.27792973183E+02  0.32694278579E+03  0.32887436972E+03  0.41800000000E+01 0. -1.
        -11    1    4    4    0    0 -0.46774571120E+02 -0.64856631334E+00  0.10326826111E+03  0.11336937370E+03  0.00000000000E+00 0. -1.
         11    1    4    4    0    0 -0.13585904286E+02  0.13413984721E+02 -0.17588999943E+02  0.25959289288E+02  0.00000000000E+00 0.  1.
</event>
<event>
 8    1  0.6627806E-009  0.1295310E+03  0.7561462E-02  0.1228153E+00
         -2   -1    0    0    0  501 -0.00000000000E+00  0.00000000000E+00  0.27510346091E+03  0.27510346091E+03  0.00000000000E+00 0.  1.
          2   -1    0    0  501    0  0.00000000000E+00 -0.00000000000E+00 -0.16127111207E+03  0.16127111207E+03  0.00000000000E+00 0. -1.
         25    2    1    2    0    0 -0.84012915779E+02  0.84048865922E+02 -0.81048353281E+02  0.19062702857E+03  0.12508975407E+03 0.  0.
         23    2    1    2    0    0  0.84012915779E+02 -0.84048865922E+02  0.19488070212E+03  0.24574754440E+03  0.91054849624E+02 0.  0.
          5    1    3    3  502    0 -0.97160592143E+02  0.77344986657E+02 -0.17776561659E+02  0.12552253252E+03  0.41800000000E+01 0. -1.
         -5    1    3    3    0  502  0.13147676364E+02  0.67038792653E+01 -0.63271791622E+02  0.65104496051E+02  0.41800000000E+01 0. -1.
        -11    1    4    4    0    0  0.21796309645E+02 -0.29796299005E+02  0.14427192030E+03  0.14892040000E+03  0.00000000000E+00 0.  1.
         11    1    4    4    0    0  0.62216606134E+02 -0.54252566917E+02  0.50608781821E+02  0.96827144403E+02  0.00000000000E+00 0. -1.
</event>
<event>
 8    1  0.6627806E-009  0.8395010E+02  0.7561462E-02  0.1318201E+00
          1   -1    0    0  501    0  0.00000000000E+00  0.00000000000E+00  0.33998907411E+03  0.33998907411E+03  0.00000000000E+00 0. -1.
         -1   -1    0    0    0  501 -0.00000000000E+00 -0.00000000000E+00 -0.82025934631E+02  0.82025934631E+02  0.00000000000E+00 0.  1.
         25    2    1    2    0    0  0.49567105719E+02  0.30704590310E+02  0.27898896727E+03  0.31125777315E+03  0.12508751999E+03 0.  0.
         23    2    1    2    0    0 -0.49567105719E+02 -0.30704590310E+02 -0.21025827789E+02  0.11075723559E+03  0.91790031947E+02 0.  0.
          5    1    3    3  502    0  0.31992631155E+02  0.25326417591E+02  0.10810949781E+02  0.42418214382E+02  0.41800000000E+01 0.  1.
         -5    1    3    3    0  502  0.17574474564E+02  0.53781727198E+01  0.26817801749E+03  0.26883955877E+03  0.41800000000E+01 0.  1.
        -11    1    4    4    0    0 -0.65305224763E+02 -0.50637566149E+02 -0.10643632440E+02  0.83319999990E+02  0.00000000000E+00 0.  1.
         11    1    4    4    0    0  0.15738119044E+02  0.19932975839E+02 -0.10382195349E+02  0.27437235595E+02  0.00000000000E+00 0. -1.
</event>
<event>
 8    1  0.6627806E-009  0.9453328E+02  0.7561462E-02  0.1292231E+00
         -1   -1    0    0    0  501 -0.00000000000E+00  0.00000000000E+00  0.25731265844E+03  0.25731265844E+03  0.00000000000E+00 0.  1.
          1   -1    0    0  501    0  0.00000000000E+00 -0.00000000000E+00 -0.53563767387E+02  0.53563767387E+02  0.00000000000E+00 0. -1.
         25    2    1    2    0    0  0.16458672667E+02  0.33202465858E+02  0.14807736187E+03  0.19735269024E+03  0.12509151690E+03 0.  0.
         23    2    1    2    0    0 -0.16458672667E+02 -0.33202465858E+02  0.55671529180E+02  0.11352373559E+03  0.91733460283E+02 0.  0.
          5    1    3    3  502    0 -0.23308238274E+02  0.62518809267E+02  0.12691036897E+03  0.14344193820E+03  0.41800000000E+01 0. -1.
         -5    1    3    3    0  502  0.39766910940E+02 -0.29316343409E+02  0.21166992904E+02  0.53910752037E+02  0.41800000000E+01 0. -1.
        -11    1    4    4    0    0 -0.19809098791E+02 -0.50900628438E+02 -0.40961146124E+00  0.54620894828E+02  0.00000000000E+00 0. -1.
         11    1    4    4    0    0  0.33504261249E+01  0.17698162580E+02  0.56081140641E+02  0.58902840760E+02  0.00000000000E+00 0.  1.
</event>
<event>
 8    1  0.6627806E-009  0.1776579E+03  0.7561462E-02  0.1170089E+00
         -2   -1    0    0    0  501 -0.00000000000E+00  0.00000000000E+00  0.79288745207E+02  0.79288745207E+02  0.00000000000E+00 0.  1.
          2   -1    0    0  501    0  0.00000000000E+00 -0.00000000000E+00 -0.47659376976E+03  0.47659376976E+03  0.00000000000E+00 0. -1.
         25    2    1    2    0    0  0.12609552548E+03 -0.68320754347E+02 -0.29027966178E+03  0.34709836679E+03  0.12508871718E+03 0.  0.
         23    2    1    2    0    0 -0.12609552548E+03  0.68320754347E+02 -0.10702536278E+03  0.20878414818E+03  0.10755735787E+03 0.  0.
          5    1    3    3  502    0  0.12547044376E+03 -0.17537831933E+02 -0.25605597697E+03  0.28571409406E+03  0.41800000000E+01 0. -1.
         -5    1    3    3    0  502  0.62508172178E+00 -0.50782922414E+02 -0.34223684807E+02  0.61384272724E+02  0.41800000000E+01 0. -1.
        -11    1    4    4    0    0 -0.12335982394E+03  0.15069710584E+02 -0.61448836564E+02  0.13863874586E+03  0.00000000000E+00 0.  1.
         11    1    4    4    0    0 -0.27357015441E+01  0.53251043764E+02 -0.45576526213E+02  0.70145402319E+02  0.00000000000E+00 0. -1.
</event>
<event>
 8    1  0.6627806E-009  0.1124154E+03  0.7561462E-02  0.1256161E+00
         -2   -1    0    0    0  501 -0.00000000000E+00  0.00000000000E+00  0.20115350340E+02  0.20115350340E+02  0.00000000000E+00 0.  1.
          2   -1    0    0  501    0  0.00000000000E+00 -0.00000000000E+00 -0.87587178630E+03  0.87587178630E+03  0.00000000000E+00 0. -1.
         25    2    1    2    0    0  0.11219858579E+02 -0.71183605060E+02 -0.39936505078E+03  0.42465371885E+03  0.12508135869E+03 0.  0.
         23    2    1    2    0    0 -0.11219858579E+02  0.71183605060E+02 -0.45639138518E+03  0.47133341779E+03  0.93108020088E+02 0.  0.
          5    1    3    3  502    0 -0.15445634768E+02 -0.77889567281E+02 -0.38542884615E+03  0.39354570277E+03  0.41800000000E+01 0.  1.
         -5    1    3    3    0  502  0.26665493347E+02  0.67059622213E+01 -0.13936204629E+02  0.31108016076E+02  0.41800000000E+01 0.  1.
        -11    1    4    4    0    0  0.36376232318E+02  0.61181732786E+01 -0.12980783318E+03  0.13494715957E+03  0.00000000000E+00 0.  1.
         11    1    4    4    0    0 -0.47596090896E+02  0.65065431781E+02 -0.32658355201E+03  0.33638625822E+03  0.00000000000E+00 0. -1.
</event>
<event>
 8    1  0.6627806E-009  0.8503446E+02  0.7561462E-02  0.1315342E+00
         -2   -1    0    0    0  501 -0.00000000000E+00  0.00000000000E+00  0.25504617251E+02  0.25504617251E+02  0.00000000000E+00 0.  1.
          2   -1    0    0  501    0  0.00000000000E+00 -0.00000000000E+00 -0.75262134710E+03  0.75262134710E+03  0.00000000000E+00 0. -1.
         25    2    1    2    0    0  0.72018197168E+02 -0.17406091992E+02 -0.52705881668E+03  0.54674297921E+03  0.12508915345E+03 0.  0.
         23    2    1    2    0    0 -0.72018197168E+02  0.17406091992E+02 -0.20005791316E+03  0.23138298514E+03  0.89584175108E+02 0.  0.
          5    1    3    3  502    0  0.76607629330E+02 -0.21164228284E+02 -0.15166223289E+03  0.17127626431E+03  0.41800000000E+01 0. -1.
         -5    1    3    3    0  502 -0.45894321619E+01  0.37581362919E+01 -0.37539658379E+03  0.37546671490E+03  0.41800000000E+01 0. -1.
        -11    1    4    4    0    0 -0.18846359096E+02  0.23027909209E+02 -0.16450230336E+03  0.16717200024E+03  0.00000000000E+00 0.  1.
         11    1    4    4    0    0 -0.53171838072E+02 -0.56218172164E+01 -0.35555609801E+02  0.64210984895E+02  0.00000000000E+00 0. -1.
</event>
<event>
 8    1  0.6627806E-009  0.1085440E+03  0.7561462E-02  0.1263290E+00
          2   -1    0    0  501    0  0.00000000000E+00  0.00000000000E+00  0.18949381948E+04  0.18949381948E+04  0.00000000000E+00 0. -1.
         -2   -1    0    0    0  501 -0.00000000000E+00 -0.00000000000E+00 -0.95183530948E+01  0.95183530948E+01  0.00000000000E+00 0.  1.
         25    2    1    2    0    0  0.30835871672E+02  0.33910443922E+02  0.15037429729E+04  0.15096299085E+04  0.12505503975E+03 0.  0.
         23    2    1    2    0    0 -0.30835871672E+02 -0.33910443922E+02  0.38167686879E+03  0.39482663936E+03  0.90055948104E+02 0.  0.
          5    1    3    3  502    0  0.63132085420E+02 -0.16445443930E+02  0.52550806132E+03  0.52955859709E+03  0.41800000000E+01 0. -1.
         -5    1    3    3    0  502 -0.32296213749E+02  0.50355887853E+02  0.97823491156E+03  0.98007131142E+03  0.41800000000E+01 0. -1.
        -11    1    4    4    0    0  0.27127124316E+02 -0.82160082646E+01  0.53127998230E+02  0.60216010009E+02  0.00000000000E+00 0.  1.
         11    1    4    4    0    0 -0.57962995987E+02 -0.25694435658E+02  0.32854887056E+03  0.33461062935E+03  0.00000000000E+00 0. -1.
</event>
<event>
 8    1  0.6627806E-009  0.9500818E+02  0.7561462E-02  0.1291158E+00
          1   -1    0    0  501    0  0.00000000000E+00  0.00000000000E+00  0.46187218086E+02  0.46187218086E+02  0.00000000000E+00 0. -1.
         -1   -1    0    0    0  501 -0.00000000000E+00 -0.00000000000E+00 -0.34133189603E+03  0.34133189603E+03  0.00000000000E+00 0.  1.
         25    2    1    2    0    0  0.25242590054E+02  0.42494584945E+02 -0.22561333283E+03  0.26266370486E+03  0.12509143776E+03 0.  0.
         23    2    1    2    0    0 -0.25242590054E+02 -0.42494584945E+02 -0.69531345116E+02  0.12485540925E+03  0.91166261105E+02 0.  0.
          5    1    3    3  502    0 -0.29052591405E+01  0.83438918134E+02 -0.12505128392E+03  0.15041871426E+03  0.41800000000E+01 0.  1.
         -5    1    3    3    0  502  0.28147849195E+02 -0.40944333188E+02 -0.10056204890E+03  0.11224499060E+03  0.41800000000E+01 0.  1.
        -11    1    4    4    0    0 -0.30702046373E+02 -0.30002739210E+02  0.10071809836E+02  0.44093325628E+02  0.00000000000E+00 0. -1.
         11    1    4    4    0    0  0.54594563192E+01 -0.12491845736E+02 -0.79603154952E+02  0.80762083625E+02  0.00000000000E+00 0.  1.
</event>
<event>
 8    1  0.6627806E-009  0.1526326E+03  0.7561462E-02  0.1197275E+00
         -1   -1    0    0    0  501 -0.00000000000E+00  0.00000000000E+00  0.42026573380E+03  0.42026573380E+03  0.00000000000E+00 0.  1.
          1   -1    0    0  501    0  0.00000000000E+00 -0.00000000000E+00 -0.69414903290E+02  0.69414903290E+02  0.00000000000E+00 0. -1.
         25    2    1    2    0    0 -0.22705175419E+02 -0.12982558054E+03  0.17738638734E+03  0.25392418003E+03  0.12506539264E+03 0.  0.
         23    2    1    2    0    0  0.22705175419E+02  0.12982558054E+03  0.17346444317E+03  0.23575645706E+03  0.90116522621E+02 0.  0.
          5    1    3    3  502    0  0.41825038851E+02 -0.75489706370E+02  0.13274941746E+03  0.15839163450E+03  0.41800000000E+01 0.  1.
         -5    1    3    3    0  502 -0.64530214270E+02 -0.54335874170E+02  0.44636969883E+02  0.95532545532E+02  0.41800000000E+01 0.  1.
        -11    1    4    4    0    0  0.24437632196E+01  0.86874206885E+02  0.16641992500E+03  0.18774634813E+03  0.00000000000E+00 0.  1.
         11    1    4    4    0    0  0.20261412199E+02  0.42951373655E+02  0.70445181690E+01  0.48010108929E+02  0.00000000000E+00 0. -1.
</event>
<event>
 8    1  0.6627806E-009  0.1027716E+03  0.7561462E-02  0.1274573E+00
         -2   -1    0    0    0  501 -0.00000000000E+00  0.00000000000E+00  0.27281641781E+03  0.27281641781E+03  0.00000000000E+00 0.  1.
          2   -1    0    0  501    0  0.00000000000E+00 -0.00000000000E+00 -0.63864716755E+02  0.63864716755E+02  0.00000000000E+00 0. -1.
         25    2    1    2    0    0  0.28946036549E+02 -0.70077761625E+02  0.14298144857E+03  0.20454820958E+03  0.12509000639E+03 0.  0.
         23    2    1    2    0    0 -0.28946036549E+02  0.70077761625E+02  0.65970252485E+02  0.13213292499E+03  0.85780358754E+02 0.  0.
          5    1    3    3  502    0 -0.10469648239E+02  0.10534873624E+02 -0.15820942921E+02  0.22099134179E+02  0.41800000000E+01 0. -1.
         -5    1    3    3    0  502  0.39415684788E+02 -0.80612635248E+02  0.15880239149E+03  0.18244907540E+03  0.41800000000E+01 0. -1.
        -11    1    4    4    0    0  0.20889719374E+02  0.13429612958E+02  0.48798250070E+02  0.54754032634E+02  0.00000000000E+00 0.  1.
         11    1    4    4    0    0 -0.49835755923E+02  0.56648148667E+02  0.17172002415E+02  0.77378892359E+02  0.00000000000E+00 0. -1.
</event>
<event>
 8    1  0.6627806E-009  0.2260612E+03  0.7561462E-02  0.1129443E+00
          4   -1    0    0  501    0  0.00000000000E+00  0.00000000000E+00  0.53396981597E+03  0.53396981597E+03  0.00000000000E+00 0. -1.
         -4   -1    0    0    0  501 -0.00000000000E+00 -0.00000000000E+00 -0.13085009925E+03  0.13085009925E+03  0.00000000000E+00 0.  1.
         25    2    1    2    0    0  0.14553408720E+03 -0.16814876754E+03  0.89837989882E+02  0.27050347009E+03  0.12508830619E+03 0.  0.
         23    2    1    2    0    0 -0.14553408720E+03  0.16814876754E+03  0.31328172684E+03  0.39431644513E+03  0.88802252051E+02 0.  0.
          5    1    3    3  502    0  0.48965278230E+02 -0.20981969176E+02 -0.26322503247E+02  0.59566669202E+02  0.41800000000E+01 0. -1.
         -5    1    3    3    0  502  0.96568808966E+02 -0.14716679836E+03  0.11616049313E+03  0.21093680089E+03  0.41800000000E+01 0. -1.
        -11    1    4    4    0    0 -0.49488741528E+02  0.64675157981E+02  0.49973282531E+02  0.95547582726E+02  0.00000000000E+00 0.  1.
         11    1    4    4    0    0 -0.96045345668E+02  0.10347360956E+03  0.26330844430E+03  0.29876886240E+03  0.00000000000E+00 0. -1.
</event>
<event>
 8    1  0.6627806E-009  0.9120105E+02  0.7561462E-02  0.1299969E+00
          1   -1    0    0  501    0  0.00000000000E+00  0.00000000000E+00  0.19011121396E+03  0.19011121396E+03  0.00000000000E+00 0. -1.
         -1   -1    0    0    0  501 -0.00000000000E+00 -0.00000000000E+00 -0.69276581231E+02  0.69276581231E+02  0.00000000000E+00 0.  1.
         25    2    1    2    0    0 -0.16087705526E+02 -0.35173073892E+02  0.74371714445E+02  0.15058434975E+03  0.12509410491E+03 0.  0.
         23    2    1    2    0    0  0.16087705526E+02  0.35173073892E+02  0.46462918286E+02  0.10880344545E+03  0.90462299159E+02 0.  0.
          5    1    3    3  502    0 -0.33784391505E+02  0.22642276656E+02 -0.14183781187E+02  0.43274817738E+02  0.41800000000E+01 0.  1.
         -5    1    3    3    0  502  0.17696685979E+02 -0.57815350547E+02  0.88555495632E+02  0.10730953201E+03  0.41800000000E+01 0.  1.
        -11    1    4    4    0    0  0.10255485032E+02  0.57206289374E+02  0.12054141523E+01  0.58130779631E+02  0.00000000000E+00 0.  1.
         11    1    4    4    0    0  0.58322204941E+01 -0.22033215483E+02  0.45257504134E+02  0.50672665815E+02  0.00000000000E+00 0. -1.
</event>
<event>
 8    1  0.6627806E-009  0.7499077E+02  0.7561462E-02  0.1343900E+00
         -4   -1    0    0    0  501 -0.00000000000E+00  0.00000000000E+00  0.36329607569E+02  0.36329607569E+02  0.00000000000E+00 0.  1.
          4   -1    0    0  501    0  0.00000000000E+00 -0.00000000000E+00 -0.40386569227E+03  0.40386569227E+03  0.00000000000E+00 0. -1.
         25    2    1    2    0    0  0.12433703695E+01  0.14605014734E+02 -0.10825707139E+03  0.16607934435E+03  0.12509157721E+03 0.  0.
         23    2    1    2    0    0 -0.12433703695E+01 -0.14605014734E+02 -0.25927901331E+03  0.27411595549E+03  0.87744503435E+02 0.  0.
          5    1    3    3  502    0 -0.28814813498E+02  0.23442880325E+01  0.18890421008E+02  0.34786629172E+02  0.41800000000E+01 0. -1.
         -5    1    3    3    0  502  0.30058183867E+02  0.12260726702E+02 -0.12714749240E+03  0.13129271518E+03  0.41800000000E+01 0. -1.
        -11    1    4    4    0    0  0.38485875122E+02  0.11897159568E+02 -0.13845110075E+03  0.14419227541E+03  0.00000000000E+00 0.  1.
         11    1    4    4    0    0 -0.39729245491E+02 -0.26502174302E+02 -0.12082791256E+03  0.12992368008E+03  0.00000000000E+00 0. -1.
</event>
<event>
 8    1  0.6627806E-009  0.1784856E+03  0.7561462E-02  0.1169277E+00
         -1   -1    0    0    0  501 -0.00000000000E+00  0.00000000000E+00  0.18456689227E+02  0.18456689227E+02  0.00000000000E+00 0.  1.
          1   -1    0    0  501    0  0.00000000000E+00 -0.00000000000E+00 -0.25540834371E+04  0.25540834371E+04  0.00000000000E+00 0. -1.
         25    2    1    2    0    0 -0.79643010603E+02 -0.12221431584E+03 -0.20146622615E+04  0.20238048248E+04  0.12507035264E+03 0.  0.
         23    2    1    2    0    0  0.79643010603E+02  0.12221431584E+03 -0.52096448643E+03  0.54873530152E+03  0.91799165977E+02 0.  0.
          5    1    3    3  502    0 -0.54113573415E+02 -0.14487102654E+03 -0.17682445988E+04  0.17749992469E+04  0.41800000000E+01 0. -1.
         -5    1    3    3    0  502 -0.25529437188E+02  0.22656710692E+02 -0.24641766269E+03  0.24880557789E+03  0.41800000000E+01 0. -1.
        -11    1    4    4    0    0 -0.17569289651E+02  0.14465407295E+02 -0.12411047967E+03  0.12617978884E+03  0.00000000000E+00 0. -1.
         11    1    4    4    0    0  0.97212300254E+02  0.10774890855E+03 -0.39685400676E+03  0.42255551268E+03  0.00000000000E+00 0.  1.
</event>
<event>
 8    1  0.6627806E-009  0.1147750E+03  0.7561462E-02  0.1251974E+00
          1   -1    0    0  501    0  0.00000000000E+00  0.00000000000E+00  0.26760954439E+03  0.26760954439E+03  0.00000000000E+00 0. -1.
         -1   -1    0    0    0  501 -0.00000000000E+00 -0.00000000000E+00 -0.79786961563E+02  0.79786961563E+02  0.00000000000E+00 0.  1.
         25    2    1    2    0    0  0.65927801886E+02 -0.61621712080E+02  0.14860868309E+03  0.21418549733E+03  0.12508867302E+03 0.  0.
         23    2    1    2    0    0 -0.65927801886E+02  0.61621712080E+02  0.39213899746E+02  0.13321100862E+03  0.89798287423E+02 0.  0.
          5    1    3    3  502    0 -0.28020445989E+02 -0.23059339959E+02  0.89357535736E+02  0.96535590047E+02  0.41800000000E+01 0. -1.
         -5    1    3    3    0  502  0.93948247874E+02 -0.38562372121E+02  0.59251147349E+02  0.11764990729E+03  0.41800000000E+01 0. -1.
        -11    1    4    4    0    0 -0.21752375082E+02  0.11625451846E+02 -0.28813593831E+02  0.37928091723E+02  0.00000000000E+00 0.  1.
         11    1    4    4    0    0 -0.44175426804E+02  0.49996260234E+02  0.68027493577E+02  0.95282916901E+02  0.00000000000E+00 0. -1.
</event>
<event>
 8    1  0.6627806E-009  0.1195640E+03  0.7561462E-02  0.1243818E+00
         -1   -1    0    0    0  501 -0.00000000000E+00  0.00000000000E+00  0.20306183131E+03  0.20306183131E+03  0.00000000000E+00 0.  1.
          1   -1    0    0  501    0  0.00000000000E+00 -0.00000000000E+00 -0.12493040671E+03  0.12493040671E+03  0.00000000000E+00 0. -1.
         25    2    1    2    0    0  0.10708624556E+03  0.43697680742E+02  0.32614997135E+02  0.17345207695E+03  0.12507970927E+03 0.  0.
         23    2    1    2    0    0 -0.10708624556E+03 -0.43697680742E+02  0.45516427468E+02  0.15454016107E+03  0.91836620814E+02 0.  0.
          5    1    3    3  502    0  0.64725953111E+02  0.46607420185E+02 -0.39926921426E+02  0.89293516433E+02  0.41800000000E+01 0. -1.
         -5    1    3    3    0  502  0.42360292449E+02 -0.29097394433E+01  0.72541918561E+02  0.84158560518E+02  0.41800000000E+01 0. -1.
        -11    1    4    4    0    0 -0.53968787872E+02 -0.14076154155E+02  0.69544532345E+02  0.89147126478E+02  0.00000000000E+00 0.  1.
         11    1    4    4    0    0 -0.53117457689E+02 -0.29621526587E+02 -0.24028104878E+02  0.65393034588E+02  0.00000000000E+00 0. -1.
</event>
<event>
 8    1  0.6627806E-009  0.1599617E+03  0.7561462E-02  0.1188740E+00
          2   -1    0    0  501    0  0.00000000000E+00  0.00000000000E+00  0.17306656630E+03  0.17306656630E+03  0.00000000000E+00 0. -1.
         -2   -1    0    0    0  501 -0.00000000000E+00 -0.00000000000E+00 -0.18655914978E+03  0.18655914978E+03  0.00000000000E+00 0.  1.
         25    2    1    2    0    0  0.11262856957E+03  0.82802492324E+02 -0.68487041681E+01  0.18771191477E+03  0.12508961099E+03 0.  0.
         23    2    1    2    0    0 -0.11262856957E+03 -0.82802492324E+02 -0.66438793168E+01  0.17191380131E+03  0.99843710517E+02 0.  0.
          5    1    3    3  502    0  0.89672522844E+02  0.15709809208E+01  0.31166957131E+02  0.95039365271E+02  0.41800000000E+01 0.  1.
         -5    1    3    3    0  502  0.22956046728E+02  0.81231511403E+02 -0.38015661299E+02  0.92672549497E+02  0.41800000000E+01 0.  1.
        -11    1    4    4    0    0 -0.34193833627E+02 -0.39787024593E+01 -0.42853531120E+02  0.54967931204E+02  0.00000000000E+00 0.  1.
         11    1    4    4    0    0 -0.78434735945E+02 -0.78823789864E+02  0.36209651803E+02  0.11694587011E+03  0.00000000000E+00 0. -1.
</event>
<event>
 8    1  0.6627806E-009  0.1239123E+03  0.7561462E-02  0.1236779E+00
         -1   -1    0    0    0  501 -0.00000000000E+00  0.00000000000E+00  0.45972004214E+02  0.45972004214E+02  0.00000000000E+00 0.  1.
          1   -1    0    0  501    0  0.00000000000E+00 -0.00000000000E+00 -0.44491888023E+03  0.44491888023E+03  0.00000000000E+00 0. -1.
         25    2    1    2    0    0 -0.20965657022E+02 -0.86778154735E+02 -0.18026624037E+03  0.23688280571E+03  0.12509012475E+03 0.  0.
         23    2    1    2    0    0  0.20965657022E+02  0.86778154735E+02 -0.21868063565E+03  0.25400807874E+03  0.93428457883E+02 0.  0.
          5    1    3    3  502    0 -0.24798866954E+02 -0.10075101074E+03 -0.19165931898E+03  0.21798283630E+03  0.41800000000E+01 0. -1.
         -5    1    3    3    0  502  0.38332099326E+01  0.13972856009E+02  0.11393078613E+02  0.18899969410E+02  0.41800000000E+01 0. -1.
        -11    1    4    4    0    0 -0.34017986589E+02  0.56982499680E+02 -0.12152558585E+03  0.13846550725E+03  0.00000000000E+00 0.  1.
         11    1    4    4    0    0  0.54983643610E+02  0.29795655055E+02 -0.97155049794E+02  0.11554257148E+03  0.00000000000E+00 0. -1.
</event>
<event>
 8    1  0.6627806E-009  0.1047073E+03  0.7561462E-02  0.1270697E+00
         -2   -1    0    0    0  501 -0.00000000000E+00  0.00000000000E+00  0.18634566436E+03  0.18634566436E+03  0.00000000000E+00 0.  1.
          2   -1    0    0  501    0  0.00000000000E+00 -0.00000000000E+00 -0.95261755605E+02  0.95261755605E+02  0.00000000000E+00 0. -1.
         25    2    1    2    0    0  0.44576356506E+02  0.30694991427E+02 -0.91084095595E+01  0.13659029768E+03  0.12507882410E+03 0.  0.
         23    2    1    2    0    0 -0.44576356506E+02 -0.30694991427E+02  0.10019231832E+03  0.14501712229E+03  0.89789927326E+02 0.  0.
          5    1    3    3  502    0  0.72786598083E+02  0.38307338181E+02 -0.41956173836E+02  0.92429075198E+02  0.41800000000E+01 0. -1.
         -5    1    3    3    0  502 -0.28210241577E+02 -0.76123467539E+01  0.32847764277E+02  0.44161222480E+02  0.41800000000E+01 0. -1.
        -11    1    4    4    0    0 -0.37427730669E+02 -0.58158737378E+02  0.43736765562E+02  0.81830180363E+02  0.00000000000E+00 0. -1.
         11    1    4    4    0    0 -0.71486258362E+01  0.27463745951E+02  0.56455552758E+02  0.63186941928E+02  0.00000000000E+00 0.  1.
</event>
<event>
 8    1  0.6627806E-009  0.2049713E+03  0.7561462E-02  0.1145611E+00
         -1   -1    0    0    0  501 -0.00000000000E+00  0.00000000000E+00  0.34615540870E+03  0.34615540870E+03  0.00000000000E+00 0.  1.
          1   -1    0    0  501    0  0.00000000000E+00 -0.00000000000E+00 -0.21328696204E+03  0.21328696204E+03  0.00000000000E+00 0. -1.
         25    2    1    2    0    0 -0.17889456119E+03  0.47422057285E+02 -0.10422471007E+03  0.24650350584E+03  0.12509625359E+03 0.  0.
         23    2    1    2    0    0  0.17889456119E+03 -0.47422057285E+02  0.23709315673E+03  0.31293886490E+03  0.86402850974E+02 0.  0.
          5    1    3    3  502    0 -0.53707306298E+02 -0.36541448765E+02 -0.62029696676E+02  0.89916115894E+02  0.41800000000E+01 0.  1.
         -5    1    3    3    0  502 -0.12518725489E+03  0.83963506050E+02 -0.42195013389E+02  0.15658738995E+03  0.41800000000E+01 0.  1.
        -11    1    4    4    0    0  0.55972507720E+02 -0.43808756154E+02  0.42713532904E+02  0.82925114588E+02  0.00000000000E+00 0. -1.
         11    1    4    4    0    0  0.12292205347E+03 -0.36133011312E+01  0.19437962382E+03  0.23001375031E+03  0.00000000000E+00 0.  1.
</event>
<event>
 8    1  0.6627806E-009  0.9300856E+02  0.7561462E-02  0.1295725E+00
         -3   -1    0    0    0  501 -0.00000000000E+00  0.00000000000E+00  0.35939390169E+03  0.35939390169E+03  0.00000000000E+00 0. -1.
          3   -1    0    0  501    0  0.00000000000E+00 -0.00000000000E+00 -0.38177666015E+02  0.38177666015E+02  0.00000000000E+00 0.  1.
         25    2    1    2    0    0  0.19627127348E+02 -0.26664180797E+02  0.22832512871E+03  0.26244156822E+03  0.12508800768E+03 0.  0.
         23    2    1    2    0    0 -0.19627127348E+02  0.26664180797E+02  0.92891106964E+02  0.13512999948E+03  0.92385909865E+02 0.  0.
          5    1    3    3  502    0  0.45166698913E+02 -0.62601001387E+02  0.18493277609E+03  0.20044081455E+03  0.41800000000E+01 0.  1.
         -5    1    3    3    0  502 -0.25539571565E+02  0.35936820590E+02  0.43392352620E+02  0.62000753671E+02  0.41800000000E+01 0.  1.
        -11    1    4    4    0    0  0.16191661823E+02 -0.46516600734E+01 -0.11507027315E+02  0.20401459057E+02  0.00000000000E+00 0.  1.
         11    1    4    4    0    0 -0.35818789171E+02  0.31315840870E+02  0.10439813428E+03  0.11472854042E+03  0.00000000000E+00 0. -1.
</event>
<event>
 8    1  0.6627806E-009  0.1091397E+03  0.7561462E-02  0.1262171E+00
          1   -1    0    0  501    0  0.00000000000E+00  0.00000000000E+00  0.12260812598E+03  0.12260812598E+03  0.00000000000E+00 0. -1.
         -1   -1    0    0    0  501 -0.00000000000E+00 -0.00000000000E+00 -0.26973515142E+03  0.26973515142E+03  0.00000000000E+00 0.  1.
         25    2    1    2    0    0 -0.51175291967E+02  0.67740572836E+02 -0.20504567963E+03  0.25475289741E+03  0.12509041645E+03 0.  0.
         23    2    1    2    0    0  0.51175291967E+02 -0.67740572836E+02  0.57918654197E+02  0.13759037999E+03  0.91481399457E+02 0.  0.
          5    1    3    3  502    0 -0.27027251090E+02 -0.25131570548E+02 -0.12282108217E+03  0.12831429680E+03  0.41800000000E+01 0. -1.
         -5    1    3    3    0  502 -0.24148040877E+02  0.92872143384E+02 -0.82224597461E+02  0.12643860060E+03  0.41800000000E+01 0. -1.
        -11    1    4    4    0    0  0.10307265076E+02 -0.17645432315E+02  0.69030428764E+02  0.71991673756E+02  0.00000000000E+00 0. -1.
         11    1    4    4    0    0  0.40868026892E+02 -0.50095140522E+02 -0.11111774567E+02  0.65598706237E+02  0.00000000000E+00 0.  1.
</event>
<event>
 8    1  0.6627806E-009  0.1244237E+03  0.7561462E-02  0.1235973E+00
         -1   -1    0    0    0  501 -0.00000000000E+00  0.00000000000E+00  0.43543063930E+03  0.43543063930E+03  0.00000000000E+00 0.  1.
          1   -1    0    0  501    0  0.00000000000E+00 -0.00000000000E+00 -0.46877638431E+02  0.46877638431E+02  0.00000000000E+00 0. -1.
         25    2    1    2    0    0  0.16506944477E+02  0.89418999004E+02  0.23079352225E+03  0.27781463574E+03  0.12508831009E+03 0.  0.
         23    2    1    2    0    0 -0.16506944477E+02 -0.89418999004E+02  0.15775947862E+03  0.20449364199E+03  0.93066427466E+02 0.  0.
          5    1    3    3  502    0  0.24026225705E+02  0.10593316491E+03  0.23482275942E+03  0.25876301067E+03  0.41800000000E+01 0. -1.
         -5    1    3    3    0  502 -0.75192812283E+01 -0.16514165903E+02 -0.40292371720E+01  0.19051625071E+02  0.41800000000E+01 0. -1.
        -11    1    4    4    0    0  0.31260070090E+02 -0.19495984430E+02  0.17814190156E+02  0.40922252649E+02  0.00000000000E+00 0.  1.
         11    1    4    4    0    0 -0.47767014567E+02 -0.69923014574E+02  0.13994528847E+03  0.16357138934E+03  0.00000000000E+00 0. -1.
</event>
<event>
 7    1  0.2476529E-008  0.5476653E+02  0.7561462E-02  0.1421206E+00
          1   -1    0    0  501    0  0.00000000000E+00  0.00000000000E+00  0.18076287979E+03  0.18076287979E+03  0.00000000000E+00 0.  1.
         -1   -1    0    0    0  501 -0.00000000000E+00 -0.00000000000E+00 -0.46699112491E+02  0.46699112491E+02  0.00000000000E+00 0. -1.
         25    2    1    2    0    0 -0.16108446200E+02 -0.31262096895E+02  0.66430748990E+02  0.14593676099E+03  0.12509073928E+03 0.  0.
          5    1    3    3  502    0 -0.34902102114E+02 -0.12661786829E+02  0.97802197431E+02  0.10469584423E+03  0.41800000000E+01 0.  1.
         -5    1    3    3    0  502  0.18793655913E+02 -0.18600310066E+02 -0.31371448441E+02  0.41240916751E+02  0.41800000000E+01 0.  1.
        -11    1    1    2    0    0 -0.30627179425E+01  0.25066611628E+02  0.40542502443E+02  0.47764105394E+02  0.00000000000E+00 0.  1.
         11    1    1    2    0    0  0.19171164143E+02  0.61954852669E+01  0.27090515866E+02  0.33761125902E+02  0.00000000000E+00 0. -1.
</event>
<event>
 8    1  0.6627806E-009  0.1111927E+03  0.7561462E-02  0.1258377E+00
          1   -1    0    0  501    0  0.00000000000E+00  0.00000000000E+00  0.57783593339E+02  0.57783593339E+02  0.00000000000E+00 0. -1.
         -1   -1    0    0    0  501 -0.00000000000E+00 -0.00000000000E+00 -0.24501878130E+03  0.24501878130E+03  0.00000000000E+00 0.  1.
         25    2    1    2    0    0  0.30796355867E+02  0.11574867690E+02 -0.61356171440E+02  0.14315454388E+03  0.12508497336E+03 0.  0.
         23    2    1    2    0    0 -0.30796355867E+02 -0.11574867690E+02 -0.12587901652E+03  0.15964783077E+03  0.92517619787E+02 0.  0.
          5    1    3    3  502    0  0.37232858341E+02 -0.52639508287E+02 -0.28555094857E+02  0.70640423379E+02  0.41800000000E+01 0.  1.
         -5    1    3    3    0  502 -0.64365024745E+01  0.64214375977E+02 -0.32801076584E+02  0.72514120496E+02  0.41800000000E+01 0.  1.
        -11    1    4    4    0    0  0.20794803697E+02  0.22992451237E+02 -0.68101469755E+02  0.74825709870E+02  0.00000000000E+00 0.  1.
         11    1    4    4    0    0 -0.51591159564E+02 -0.34567318927E+02 -0.57777546767E+02  0.84822120897E+02  0.00000000000E+00 0. -1.
</event>
<event>
 8    1  0.6627806E-009  0.2800694E+03  0.7561462E-02  0.1095651E+00
         -1   -1    0    0    0  501 -0.00000000000E+00  0.00000000000E+00  0.16628666934E+03  0.16628666934E+03  0.00000000000E+00 0.  1.
          1   -1    0    0  501    0  0.00000000000E+00 -0.00000000000E+00 -0.47899376254E+03  0.47899376254E+03  0.00000000000E+00 0. -1.
         25    2    1    2    0    0 -0.23123569727E+03  0.11380751586E+03 -0.12055928919E+03  0.31081340500E+03  0.12509329382E+03 0.  0.
         23    2    1    2    0    0  0.23123569727E+03 -0.11380751586E+03 -0.19214780402E+03  0.33446702689E+03  0.92332633054E+02 0.  0.
          5    1    3    3  502    0 -0.23814856575E+03  0.12773353530E+03 -0.11569036878E+03  0.29399375714E+03  0.41800000000E+01 0.  1.
         -5    1    3    3    0  502  0.69128684751E+01 -0.13926019445E+02 -0.48689204063E+01  0.16819647858E+02  0.41800000000E+01 0.  1.
        -11    1    4    4    0    0  0.32333678239E+02 -0.59279555772E+02 -0.47319934317E+02  0.82454282271E+02  0.00000000000E+00 0.  1.
         11    1    4    4    0    0  0.19890201903E+03 -0.54527960084E+02 -0.14482786970E+03  0.25201274462E+03  0.00000000000E+00 0. -1.
</event>
<event>
 8    1  0.6627806E-009  0.1952414E+03  0.7561462E-02  0.1153817E+00
          2   -1    0    0  501    0  0.00000000000E+00  0.00000000000E+00  0.23142134140E+04  0.23142134140E+04  0.00000000000E+00 0. -1.
         -2   -1    0    0    0  501 -0.00000000000E+00 -0.00000000000E+00 -0.25861787716E+02  0.25861787716E+02  0.00000000000E+00 0.  1.
         25    2    1    2    0    0  0.10099382651E+03 -0.13521890901E+03  0.18448907389E+04  0.18568125033E+04  0.12508767907E+03 0.  0.
         23    2    1    2    0    0 -0.10099382651E+03  0.13521890901E+03  0.44346088738E+03  0.48326269845E+03  0.91658991522E+02 0.  0.
          5    1    3    3  502    0  0.97476172536E+02 -0.39227914592E+02  0.69514271842E+03  0.70305142406E+03  0.41800000000E+01 0.  1.
         -5    1    3    3    0  502  0.35176539760E+01 -0.95990994419E+02  0.11497480205E+04  0.11537610793E+04  0.41800000000E+01 0.  1.
        -11    1    4    4    0    0 -0.87500762402E+02  0.45826152211E+02  0.27286453564E+03  0.29019213370E+03  0.00000000000E+00 0.  1.
         11    1    4    4    0    0 -0.13493064110E+02  0.89392756800E+02  0.17059635174E+03  0.19307056476E+03  0.00000000000E+00 0. -1.
</event>
<event>
 8    1  0.6627806E-009  0.9959325E+02  0.7561462E-02  0.1281154E+00
          1   -1    0    0  501    0  0.00000000000E+00  0.00000000000E+00  0.27719360157E+02  0.27719360157E+02  0.00000000000E+00 0. -1.
         -1   -1    0    0    0  501 -0.00000000000E+00 -0.00000000000E+00 -0.49843221081E+03  0.49843221081E+03  0.00000000000E+00 0.  1.
         25    2    1    2    0    0  0.10098244283E+02  0.45882344927E+02 -0.26090606526E+03  0.29313075922E+03  0.12508598242E+03 0.  0.
         23    2    1    2    0    0 -0.10098244283E+02 -0.45882344927E+02 -0.20980678539E+03  0.23302081175E+03  0.89847912595E+02 0.  0.
          5    1    3    3  502    0 -0.31769462682E+02 -0.56899740739E+01 -0.20089068220E+03  0.20350973726E+03  0.41800000000E+01 0. -1.
         -5    1    3    3    0  502  0.41867706965E+02  0.51572319001E+02 -0.60015383065E+02  0.89621021965E+02  0.41800000000E+01 0. -1.
        -11    1    4    4    0    0 -0.20080107609E+02  0.22970825874E+02 -0.47804294922E+02  0.56710847075E+02  0.00000000000E+00 0. -1.
         11    1    4    4    0    0  0.99818633265E+01 -0.68853170801E+02 -0.16200249047E+03  0.17630996467E+03  0.00000000000E+00 0.  1.
</event>
<event>
 8    1  0.6627806E-009  0.9704510E+02  0.7561462E-02  0.1286635E+00
          3   -1    0    0  501    0  0.00000000000E+00  0.00000000000E+00  0.52236635817E+02  0.52236635817E+02  0.00000000000E+00 0. -1.
         -3   -1    0    0    0  501 -0.00000000000E+00 -0.00000000000E+00 -0.26083928243E+03  0.26083928243E+03  0.00000000000E+00 0.  1.
         25    2    1    2    0    0  0.20845477590E+02 -0.22840758092E+02 -0.15861814937E+03  0.20436221933E+03  0.12509182712E+03 0.  0.
         23    2    1    2    0    0 -0.20845477590E+02  0.22840758092E+02 -0.49984497245E+02  0.10871369892E+03  0.91454820555E+02 0.  0.
          5    1    3    3  502    0  0.97337061377E+01  0.38540969815E+02 -0.12924896088E+03  0.13528827621E+03  0.41800000000E+01 0. -1.
         -5    1    3    3    0  502  0.11111771452E+02 -0.61381727907E+02 -0.29369188485E+02  0.69073943119E+02  0.41800000000E+01 0. -1.
        -11    1    4    4    0    0  0.11275295711E+01  0.53703314173E+02 -0.45814375413E+02  0.70599392848E+02  0.00000000000E+00 0. -1.
         11    1    4    4    0    0 -0.21973007161E+02 -0.30862556081E+02 -0.41701218323E+01  0.38114306076E+02  0.00000000000E+00 0.  1.
</event>
<event>
 8    1  0.6627806E-009  0.2732751E+03  0.7561462E-02  0.1099420E+00
          1   -1    0    0  501    0  0.00000000000E+00  0.00000000000E+00  0.10514024878E+04  0.10514024878E+04  0.00000000000E+00 0. -1.
         -1   -1    0    0    0  501 -0.00000000000E+00 -0.00000000000E+00 -0.10260556039E+03  0.10260556039E+03  0.00000000000E+00 0.  1.
         25    2    1    2    0    0 -0.21655671768E+03  0.14128892908E+03  0.18428487718E+03  0.34127498728E+03  0.12509327535E+03 0.  0.
         23    2    1    2    0    0  0.21655671768E+03 -0.14128892908E+03  0.76451205026E+03  0.81273306093E+03  0.95900885793E+02 0.  0.
          5    1    3    3  502    0 -0.18185771988E+03  0.48753611051E+02  0.12063184522E+03  0.22364851744E+03  0.41800000000E+01 0. -1.
         -5    1    3    3    0  502 -0.34698997795E+02  0.92535318028E+02  0.63653031958E+02  0.11762646984E+03  0.41800000000E+01 0. -1.
        -11    1    4    4    0    0  0.54347905353E+02 -0.45857886489E+02  0.10439881598E+03  0.12631608507E+03  0.00000000000E+00 0.  1.
         11    1    4    4    0    0  0.16220881232E+03 -0.95431042591E+02  0.66011323428E+03  0.68641697587E+03  0.00000000000E+00 0. -1.
</event>
<event>
 8    1  0.6627806E-009  0.1173705E+03  0.7561462E-02  0.1247499E+00
          1   -1    0    0  501    0  0.00000000000E+00  0.00000000000E+00  0.60227778186E+03  0.60227778186E+03  0.00000000000E+00 0. -1.
         -1   -1    0    0    0  501 -0.00000000000E+00 -0.00000000000E+00 -0.29037356592E+02  0.29037356592E+02  0.00000000000E+00 0.  1.
         25    2    1    2    0    0 -0.18977942318E+02 -0.65715184061E+02  0.41932297557E+03  0.44289652338E+03  0.12508766874E+03 0.  0.
         23    2    1    2    0    0  0.18977942318E+02  0.65715184061E+02  0.15391744970E+03  0.18841861507E+03  0.84453214701E+02 0.  0.
          5    1    3    3  502    0 -0.60481616269E+02 -0.72837422530E+02  0.34038774238E+03  0.35333355854E+03  0.41800000000E+01 0.  1.
         -5    1    3    3    0  502  0.41503673951E+02  0.71222384690E+01  0.78935233190E+02  0.89562964840E+02  0.41800000000E+01 0.  1.
        -11    1    4    4    0    0 -0.16942090202E+02 -0.55688865268E+01  0.35591137865E+01  0.18185549442E+02  0.00000000000E+00 0.  1.
         11    1    4    4    0    0  0.35920032520E+02  0.71284070588E+02  0.15035833591E+03  0.17023306563E+03  0.00000000000E+00 0. -1.
</event>
<event>
 8    1  0.6627806E-009  0.1403823E+03  0.7561462E-02  0.1212816E+00
         -2   -1    0    0    0  501 -0.00000000000E+00  0.00000000000E+00  0.27395373915E+02  0.27395373915E+02  0.00000000000E+00 0.  1.
          2   -1    0    0  501    0  0.00000000000E+00 -0.00000000000E+00 -0.99656920142E+03  0.99656920142E+03  0.00000000000E+00 0. -1.
         25    2    1    2    0    0 -0.88848242560E+02 -0.51035463324E+02 -0.73252778211E+03  0.75016196390E+03  0.12508953513E+03 0.  0.
         23    2    1    2    0    0  0.88848242560E+02  0.51035463324E+02 -0.23664604539E+03  0.27380261143E+03  0.92021141616E+02 0.  0.
          5    1    3    3  502    0 -0.81814611069E+01  0.33957891010E+02 -0.29882550909E+03  0.30088906917E+03  0.41800000000E+01 0.  1.
         -5    1    3    3    0  502 -0.80666781453E+02 -0.84993354334E+02 -0.43370227302E+03  0.44927289472E+03  0.41800000000E+01 0.  1.
        -11    1    4    4    0    0  0.88304630892E+02  0.11796440204E+02 -0.11192034492E+03  0.14304903861E+03  0.00000000000E+00 0.  1.
         11    1    4    4    0    0  0.54361166747E+00  0.39239023120E+02 -0.12472570047E+03  0.13075357283E+03  0.00000000000E+00 0. -1.
</event>
<event>
 8    1  0.6627806E-009  0.1182840E+03  0.7561462E-02  0.1245955E+00
          2   -1    0    0  501    0  0.00000000000E+00  0.00000000000E+00  0.42466919342E+03  0.42466919342E+03  0.00000000000E+00 0.  1.
         -2   -1    0    0    0  501 -0.00000000000E+00 -0.00000000000E+00 -0.35178248195E+02  0.35178248195E+02  0.00000000000E+00 0. -1.
         25    2    1    2    0    0 -0.53019314730E+02 -0.17839080326E+02  0.20174075670E+03  0.24387639009E+03  0.12508828965E+03 0.  0.
         23    2    1    2    0    0  0.53019314730E+02  0.17839080326E+02  0.18775018852E+03  0.21597105152E+03  0.90906992499E+02 0.  0.
          5    1    3    3  502    0  0.30822201583E+02 -0.39434867138E+02  0.69090992230E+02  0.85417530191E+02  0.41800000000E+01 0.  1.
         -5    1    3    3    0  502 -0.83841516314E+02  0.21595786812E+02  0.13264976447E+03  0.15845885990E+03  0.41800000000E+01 0.  1.
        -11    1    4    4    0    0  0.34619397393E+02  0.51058699501E+02  0.15104468559E+03  0.16315633765E+03  0.00000000000E+00 0.  1.
         11    1    4    4    0    0  0.18399917337E+02 -0.33219619175E+02  0.36705502934E+02  0.52814713875E+02  0.00000000000E+00 0. -1.
</event>
<event>
 8    1  0.6627806E-009  0.1414254E+03  0.7561462E-02  0.1211424E+00
         -2   -1    0    0    0  501 -0.00000000000E+00  0.00000000000E+00  0.88071890416E+02  0.88071890416E+02  0.00000000000E+00 0.  1.
          2   -1    0    0  501    0  0.00000000000E+00 -0.00000000000E+00 -0.27118056385E+03  0.27118056385E+03  0.00000000000E+00 0. -1.
         25    2    1    2    0    0  0.84410372896E+02  0.68212737868E+02 -0.10911054906E+03  0.19832039478E+03  0.12509108046E+03 0.  0.
         23    2    1    2    0    0 -0.84410372896E+02 -0.68212737868E+02 -0.73998124375E+02  0.16093205948E+03  0.92980195191E+02 0.  0.
          5    1    3    3  502    0  0.64225337188E+02 -0.90133505437E+01 -0.98044847229E+02  0.11762822320E+03  0.41800000000E+01 0.  1.
         -5    1    3    3    0  502  0.20185035708E+02  0.77226088412E+02 -0.11065701828E+02  0.80692171584E+02  0.41800000000E+01 0.  1.
        -11    1    4    4    0    0 -0.59215656677E+02  0.60380797316E+01 -0.11410010497E+02  0.60606441424E+02  0.00000000000E+00 0.  1.
         11    1    4    4    0    0 -0.25194716219E+02 -0.74250817600E+02 -0.62588113878E+02  0.10032561806E+03  0.00000000000E+00 0. -1.
</event>
<event>
 8    1  0.6627806E-009  0.1035163E+03  0.7561462E-02  0.1273071E+00
          1   -1    0    0  501    0  0.00000000000E+00  0.00000000000E+00  0.44021244536E+03  0.44021244536E+03  0.00000000000E+00 0. -1.
         -1   -1    0    0    0  501 -0.00000000000E+00 -0.00000000000E+00 -0.30905378736E+02  0.30905378736E+02  0.00000000000E+00 0.  1.
         25    2    1    2    0    0 -0.27030676294E+02  0.32038415133E+02  0.24481480898E+03  0.27809891206E+03  0.12509035411E+03 0.  0.
         23    2    1    2    0    0  0.27030676294E+02 -0.32038415133E+02  0.16449225765E+03  0.19301891204E+03  0.91877527568E+02 0.  0.
          5    1    3    3  502    0  0.43353254081E+02  0.37333883123E+02  0.77193700631E+02  0.96175169798E+02  0.41800000000E+01 0. -1.
         -5    1    3    3    0  502 -0.70383930375E+02 -0.52954679900E+01  0.16762110834E+03  0.18192374226E+03  0.41800000000E+01 0. -1.
        -11    1    4    4    0    0  0.48194737725E+02 -0.31900726934E+02  0.16164119730E+03  0.17166323365E+03  0.00000000000E+00 0. -1.
         11    1    4    4    0    0 -0.21164061431E+02 -0.13768819897E+00  0.28510603537E+01  0.21355678388E+02  0.00000000000E+00 0.  1.
</event>
<event>
 8    1  0.6627806E-009  0.1227519E+03  0.7561462E-02  0.1238625E+00
          1   -1    0    0  501    0  0.00000000000E+00  0.00000000000E+00  0.99987655572E+03  0.99987655572E+03  0.00000000000E+00 0. -1.
         -1   -1    0    0    0  501 -0.00000000000E+00 -0.00000000000E+00 -0.15763430239E+02  0.15763430239E+02  0.00000000000E+00 0.  1.
         25    2    1    2    0    0  0.57701868665E+02  0.32642954860E+02  0.53071143502E+03  0.54927007456E+03  0.12509164400E+03 0.  0.
         23    2    1    2    0    0 -0.57701868665E+02 -0.32642954860E+02  0.45340169047E+03  0.46636991141E+03  0.86791319819E+02 0.  0.
          5    1    3    3  502    0 -0.21251887660E+02 -0.28896633886E+02  0.83530660178E+02  0.91002756930E+02  0.41800000000E+01 0. -1.
         -5    1    3    3    0  502  0.78953756325E+02  0.61539588745E+02  0.44718077484E+03  0.45826731763E+03  0.41800000000E+01 0. -1.
        -11    1    4    4    0    0 -0.20092297098E+02  0.30016038770E+02  0.15359852549E+03  0.15778837099E+03  0.00000000000E+00 0.  1.
         11    1    4    4    0    0 -0.37609571566E+02 -0.62658993630E+02  0.29980316498E+03  0.30858154042E+03  0.00000000000E+00 0. -1.
</event>
<event>
 8    1  0.6627806E-009  0.9155593E+02  0.7561462E-02  0.1299127E+00
         -1   -1    0    0    0  501 -0.00000000000E+00  0.00000000000E+00  0.56930909424E+02  0.56930909424E+02  0.00000000000E+00 0.  1.
          1   -1    0    0  501    0  0.00000000000E+00 -0.00000000000E+00 -0.32071074994E+03  0.32071074994E+03  0.00000000000E+00 0. -1.
         25    2    1    2    0    0  0.17974230554E+02 -0.15525185987E+02 -0.53455490460E+02  0.13809074576E+03  0.12508980870E+03 0.  0.
         23    2    1    2    0    0 -0.17974230554E+02  0.15525185987E+02 -0.21032435005E+03  0.23955091360E+03  0.11217933687E+03 0.  0.
          5    1    3    3  502    0 -0.46789459712E+01  0.25312811355E+02 -0.80047082250E+02  0.84188115140E+02  0.41800000000E+01 0.  1.
         -5    1    3    3    0  502  0.22653176525E+02 -0.40837997342E+02  0.26591591790E+02  0.53902630617E+02  0.41800000000E+01 0.  1.
        -11    1    4    4    0    0 -0.12728469900E+02  0.62042142516E+02 -0.86768286970E+02  0.10742428505E+03  0.00000000000E+00 0.  1.
         11    1    4    4    0    0 -0.52457606539E+01 -0.46516956529E+02 -0.12355606308E+03  0.13212662856E+03  0.00000000000E+00 0. -1.
</event>
<event>
 8    1  0.6627806E-009  0.8487696E+02  0.7561462E-02  0.1315755E+00
          3   -1    0    0  501    0  0.00000000000E+00  0.00000000000E+00  0.59269282478E+02  0.59269282478E+02  0.00000000000E+00 0. -1.
         -3   -1    0    0    0  501 -0.00000000000E+00 -0.00000000000E+00 -0.32206678803E+03  0.32206678803E+03  0.00000000000E+00 0.  1.
         25    2    1    2    0    0 -0.50226244138E+02 -0.61461012584E+02 -0.10515729600E+03  0.18167540333E+03  0.12509102128E+03 0.  0.
         23    2    1    2    0    0  0.50226244138E+02  0.61461012584E+02 -0.15764020956E+03  0.19966066719E+03  0.93347815636E+02 0.  0.
          5    1    3    3  502    0 -0.35743601204E+02 -0.11946429565E+02  0.22383861404E+02  0.44032168442E+02  0.41800000000E+01 0. -1.
         -5    1    3    3    0  502 -0.14482642934E+02 -0.49514583019E+02 -0.12754115740E+03  0.13764323488E+03  0.41800000000E+01 0. -1.
        -11    1    4    4    0    0  0.41003991247E+02  0.42857468617E+02 -0.16675099507E+03  0.17698583071E+03  0.00000000000E+00 0.  1.
         11    1    4    4    0    0  0.92222528909E+01  0.18603543966E+02  0.91107855153E+01  0.22674836476E+02  0.00000000000E+00 0. -1.
</event>
<event>
 7    1  0.6627806E-009  0.8591471E+02  0.7561462E-02  0.1313058E+00
          2   -1    0    0  501    0  0.00000000000E+00  0.00000000000E+00  0.83679631717E+02  0.83679631717E+02  0.00000000000E+00 0. -1.
         -2   -1    0    0    0  501 -0.00000000000E+00 -0.00000000000E+00 -0.13051247058E+03  0.13051247058E+03  0.00000000000E+00 0.  1.
         23    2    1    2    0    0  0.24746835714E+01 -0.12673822495E+02 -0.33606783834E+02  0.87651885207E+02  0.79916751844E+02 0.  0.
          5    1    1    2  502    0 -0.60126522901E+02  0.25973996364E+01 -0.27275057131E+02  0.66206845436E+02  0.41800000000E+01 0. -1.
         -5    1    1    2    0  502  0.57651839330E+02  0.10076422858E+02  0.14049002098E+02  0.60333371658E+02  0.41800000000E+01 0. -1.
        -11    1    3    3    0    0  0.18000342809E+02  0.13427699378E+02  0.17317920180E+02  0.28358875351E+02  0.00000000000E+00 0. -1.
         11    1    3    3    0    0 -0.15525659237E+02 -0.26101521873E+02 -0.50924704014E+02  0.59293009856E+02  0.00000000000E+00 0.  1.
</event>
<event>
 8    1  0.6627806E-009  0.1307633E+03  0.7561462E-02  0.1226328E+00
         -1   -1    0    0    0  501 -0.00000000000E+00  0.00000000000E+00  0.64151250594E+02  0.64151250594E+02  0.00000000000E+00 0.  1.
          1   -1    0    0  501    0  0.00000000000E+00 -0.00000000000E+00 -0.37128860852E+03  0.37128860852E+03  0.00000000000E+00 0. -1.
         25    2    1    2    0    0  0.82050281093E+02 -0.60609219584E+02 -0.10639593748E+03  0.19330737783E+03  0.12506766444E+03 0.  0.
         23    2    1    2    0    0 -0.82050281093E+02  0.60609219584E+02 -0.20074142045E+03  0.24213248128E+03  0.89024123033E+02 0.  0.
          5    1    3    3  502    0  0.11164825807E+03 -0.51724759246E+02 -0.10545674655E+03  0.16210916705E+03  0.41800000000E+01 0.  1.
         -5    1    3    3    0  502 -0.29597976974E+02 -0.88844603378E+01 -0.93919092280E+00  0.31198210782E+02  0.41800000000E+01 0.  1.
        -11    1    4    4    0    0 -0.42704147583E+02  0.11364245256E+02 -0.16251027995E+03  0.16841134576E+03  0.00000000000E+00 0. -1.
         11    1    4    4    0    0 -0.39346133510E+02  0.49244974328E+02 -0.38231140498E+02  0.73721135521E+02  0.00000000000E+00 0.  1.
</event>
<event>
 8    1  0.6627806E-009  0.7407801E+02  0.7561462E-02  0.1346750E+00
         -2   -1    0    0    0  501 -0.00000000000E+00  0.00000000000E+00  0.61637461151E+03  0.61637461151E+03  0.00000000000E+00 0. -1.
          2   -1    0    0  501    0  0.00000000000E+00 -0.00000000000E+00 -0.19791194224E+02  0.19791194224E+02  0.00000000000E+00 0.  1.
         25    2    1    2    0    0 -0.13233245303E+02  0.26395564910E+02  0.42152101349E+03  0.44068119022E+03  0.12509237375E+03 0.  0.
         23    2    1    2    0    0  0.13233245303E+02 -0.26395564910E+02  0.17506240380E+03  0.19548461552E+03  0.81826310271E+02 0.  0.
          5    1    3    3  502    0  0.35224729998E+02  0.64788820091E+01  0.33830097067E+02  0.49443962048E+02  0.41800000000E+01 0. -1.
         -5    1    3    3    0  502 -0.48457975301E+02  0.19916682901E+02  0.38769091642E+03  0.39123722817E+03  0.41800000000E+01 0. -1.
        -11    1    4    4    0    0  0.82386789924E+01  0.15390029928E+02  0.22249981345E+01  0.17597712051E+02  0.00000000000E+00 0.  1.
         11    1    4    4    0    0  0.49945663105E+01 -0.41785594839E+02  0.17283740566E+03  0.17788690347E+03  0.00000000000E+00 0. -1.
</event>
<event>
 8    1  0.6627806E-009  0.1636444E+03  0.7561462E-02  0.1184643E+00
          3   -1    0    0  501    0  0.00000000000E+00  0.00000000000E+00  0.14915766817E+03  0.14915766817E+03  0.00000000000E+00 0. -1.
         -3   -1    0    0    0  501 -0.00000000000E+00 -0.00000000000E+00 -0.24669886939E+03  0.24669886939E+03  0.00000000000E+00 0.  1.
         25    2    1    2    0    0 -0.78649557370E+02  0.97425486274E+02 -0.14983119016E+03  0.23189256838E+03  0.12508916609E+03 0.  0.
         23    2    1    2    0    0  0.78649557370E+02 -0.97425486274E+02  0.52289988952E+02  0.16396396918E+03  0.92045977612E+02 0.  0.
          5    1    3    3  502    0 -0.95772171095E+01  0.10209030948E+03 -0.11549878842E+03  0.15450435885E+03  0.41800000000E+01 0. -1.
         -5    1    3    3    0  502 -0.69072340261E+02 -0.46648232033E+01 -0.34332401739E+02  0.77388209527E+02  0.41800000000E+01 0. -1.
        -11    1    4    4    0    0 -0.20447298185E+02 -0.26378611431E+02  0.13588282759E+02  0.36035601458E+02  0.00000000000E+00 0.  1.
         11    1    4    4    0    0  0.99096855555E+02 -0.71046874844E+02  0.38701706193E+02  0.12792836772E+03  0.00000000000E+00 0. -1.
</event>
<event>
 8    1  0.6627806E-009  0.9170707E+02  0.7561462E-02  0.1298770E+00
         -1   -1    0    0    0  501 -0.00000000000E+00  0.00000000000E+00  0.93218691652E+02  0.93218691652E+02  0.00000000000E+00 0.  1.
          1   -1    0    0  501    0  0.00000000000E+00 -0.00000000000E+00 -0.22885874595E+03  0.22885874595E+03  0.00000000000E+00 0. -1.
         25    2    1    2    0    0 -0.29388294300E+02  0.47344433328E+02 -0.16204279291E+03  0.21215597248E+03  0.12508845955E+03 0.  0.
         23    2    1    2    0    0  0.29388294300E+02 -0.47344433328E+02  0.26402738611E+02  0.10992146513E+03  0.90997014681E+02 0.  0.
          5    1    3    3  502    0  0.24375085143E+02  0.18850239248E+01  0.95933789668E+01  0.26593296354E+02  0.41800000000E+01 0.  1.
         -5    1    3    3    0  502 -0.53763379444E+02  0.45459409403E+02 -0.17163617188E+03  0.18556267612E+03  0.41800000000E+01 0.  1.
        -11    1    4    4    0    0 -0.15436840554E+02 -0.39717338152E+02  0.43920259061E+02  0.61194380070E+02  0.00000000000E+00 0.  1.
         11    1    4    4    0    0  0.44825134855E+02 -0.76270951753E+01 -0.17517520450E+02  0.48727085058E+02  0.00000000000E+00 0. -1.
</event>
<event>
 8    1  0.6627806E-009  0.1824142E+03  0.7561462E-02  0.1165487E+00
         -2   -1    0    0    0  501 -0.00000000000E+00  0.00000000000E+00  0.91644987593E+02  0.91644987593E+02  0.00000000000E+00 0.  1.
          2   -1    0    0  501    0  0.00000000000E+00 -0.00000000000E+00 -0.41047258930E+03  0.41047258930E+03  0.00000000000E+00 0. -1.
         25    2    1    2    0    0 -0.15132022133E+03 -0.34003506048E+02 -0.21938311018E+03  0.29636288933E+03  0.12509182760E+03 0.  0.
         23    2    1    2    0    0  0.15132022133E+03  0.34003506048E+02 -0.99444491528E+02  0.20575468757E+03  0.91606423104E+02 0.  0.
          5    1    3    3  502    0 -0.83605058671E+02 -0.69088567713E+02 -0.18058927094E+03  0.21069644800E+03  0.41800000000E+01 0. -1.
         -5    1    3    3    0  502 -0.67715162658E+02  0.35085061664E+02 -0.38793839245E+02  0.85666441324E+02  0.41800000000E+01 0. -1.
        -11    1    4    4    0    0  0.19553165592E+02 -0.28107106453E+02 -0.22955663782E+02  0.41222545015E+02  0.00000000000E+00 0.  1.
         11    1    4    4    0    0  0.13176705574E+03  0.62110612501E+02 -0.76488827746E+02  0.16453214255E+03  0.00000000000E+00 0. -1.
</event>
<event>
 8    1  0.6627806E-009  0.6267227E+02  0.7561462E-02  0.1386948E+00
         -2   -1    0    0    0  501 -0.00000000000E+00  0.00000000000E+00  0.84183287924E+02  0.84183287924E+02  0.00000000000E+00 0. -1.
          2   -1    0    0  501    0  0.00000000000E+00 -0.00000000000E+00 -0.15631456517E+03  0.15631456517E+03  0.00000000000E+00 0.  1.
         25    2    1    2    0    0 -0.20694909875E+02  0.18300034826E+02 -0.14190570197E+02  0.12888713165E+03  0.12508936747E+03 0.  0.
         23    2    1    2    0    0  0.20694909875E+02 -0.18300034826E+02 -0.57940707046E+02  0.11161072144E+03  0.91305295781E+02 0.  0.
          5    1    3    3  502    0 -0.33972247211E+02  0.17388582801E+01  0.50299067600E+02  0.60865473054E+02  0.41800000000E+01 0. -1.
         -5    1    3    3    0  502  0.13277337336E+02  0.16561176546E+02 -0.64489637797E+02  0.68021658599E+02  0.41800000000E+01 0. -1.
        -11    1    4    4    0    0  0.26850758552E+02  0.18190128203E+02  0.10260680281E+02  0.34016548306E+02  0.00000000000E+00 0. -1.
         11    1    4    4    0    0 -0.61558486767E+01 -0.36490163029E+02 -0.68201387327E+02  0.77594173133E+02  0.00000000000E+00 0.  1.
</event>
<event>
 8    1  0.6627806E-009  0.1373257E+03  0.7561462E-02  0.1216973E+00
         -2   -1    0    0    0  501 -0.00000000000E+00  0.00000000000E+00  0.38129654915E+02  0.38129654915E+02  0.00000000000E+00 0.  1.
          2   -1    0    0  501    0  0.00000000000E+00 -0.00000000000E+00 -0.62220327976E+03  0.62220327976E+03  0.00000000000E+00 0. -1.
         25    2    1    2    0    0 -0.82255575822E+02 -0.65352168182E+02 -0.25153897502E+03  0.29993787444E+03  0.12511589399E+03 0.  0.
         23    2    1    2    0    0  0.82255575822E+02  0.65352168182E+02 -0.33253464983E+03  0.36039506024E+03  0.90930855421E+02 0.  0.
          5    1    3    3  502    0  0.12587118007E+02  0.10284093933E+02 -0.11915067991E+03  0.12032686753E+03  0.41800000000E+01 0. -1.
         -5    1    3    3    0  502 -0.94842693829E+02 -0.75636262115E+02 -0.13238829511E+03  0.17961100690E+03  0.41800000000E+01 0. -1.
        -11    1    4    4    0    0  0.21615954698E+02 -0.21547567163E+02 -0.10591146224E+03  0.11022152686E+03  0.00000000000E+00 0. -1.
         11    1    4    4    0    0  0.60639621124E+02  0.86899735345E+02 -0.22662318758E+03  0.25017353338E+03  0.00000000000E+00 0.  1.
</event>
<event>
 8    1  0.6627806E-009  0.2391364E+03  0.7561462E-02  0.1120369E+00
         -1   -1    0    0    0  501 -0.00000000000E+00  0.00000000000E+00  0.11317224055E+03  0.11317224055E+03  0.00000000000E+00 0.  1.
          1   -1    0    0  501    0  0.00000000000E+00 -0.00000000000E+00 -0.54873159324E+03  0.54873159324E+03  0.00000000000E+00 0. -1.
         25    2    1    2    0    0  0.18932719502E+03  0.11742682254E+03 -0.25222539942E+03  0.35902320091E+03  0.12508461638E+03 0.  0.
         23    2    1    2    0    0 -0.18932719502E+03 -0.11742682254E+03 -0.18333395327E+03  0.30288063289E+03  0.92149302389E+02 0.  0.
          5    1    3    3  502    0 -0.13442145397E+02  0.32858227836E+02 -0.36649390458E+02  0.51195748167E+02  0.41800000000E+01 0. -1.
         -5    1    3    3    0  502  0.20276934041E+03  0.84568594708E+02 -0.21557600896E+03  0.30782745274E+03  0.41800000000E+01 0. -1.
        -11    1    4    4    0    0 -0.12951779391E+03 -0.80797030164E+02 -0.66275147735E+02  0.16641939259E+03  0.00000000000E+00 0.  1.
         11    1    4    4    0    0 -0.59809401108E+02 -0.36629792380E+02 -0.11705880553E+03  0.13646124030E+03  0.00000000000E+00 0. -1.
</event>
<event>
 8    1  0.6627806E-009  0.8825238E+02  0.7561462E-02  0.1307140E+00
         -2   -1    0    0    0  501 -0.00000000000E+00  0.00000000000E+00  0.75787658680E+02  0.75787658680E+02  0.00000000000E+00 0. -1.
          2   -1    0    0  501    0  0.00000000000E+00 -0.00000000000E+00 -0.17914697096E+03  0.17914697096E+03  0.00000000000E+00 0.  1.
         25    2    1    2    0    0 -0.22582177494E+02  0.21145481190E+02 -0.27887795185E+02  0.13183527583E+03  0.12508287140E+03 0.  0.
         23    2    1    2    0    0  0.22582177494E+02 -0.21145481190E+02 -0.75471517098E+02  0.12309935381E+03  0.92197694656E+02 0.  0.
          5    1    3    3  502    0 -0.49225217488E+02  0.12540615698E+02  0.35701771151E+02  0.62229237037E+02  0.41800000000E+01 0.  1.
         -5    1    3    3    0  502  0.26643039994E+02  0.86048654926E+01 -0.63589566335E+02  0.69606038797E+02  0.41800000000E+01 0.  1.
        -11    1    4    4    0    0  0.48476910084E+02  0.16784886852E+02 -0.38495889371E+02  0.64137950827E+02  0.00000000000E+00 0.  1.
         11    1    4    4    0    0 -0.25894732589E+02 -0.37930368042E+02 -0.36975627727E+02  0.58961402981E+02  0.00000000000E+00 0. -1.
</event>
<event>
 7    1  0.6627806E-009  0.8852552E+02  0.7561462E-02  0.1306462E+00
         -2   -1    0    0    0  501 -0.00000000000E+00  0.00000000000E+00  0.59456166515E+01  0.59456166515E+01  0.00000000000E+00 0.  1.
          2   -1    0    0  501    0  0.00000000000E+00 -0.00000000000E+00 -0.14957577520E+04  0.14957577520E+04  0.00000000000E+00 0. -1.
         25    2    1    2    0    0 -0.44650047488E+02 -0.44650232433E+01 -0.12838904594E+04  0.12907500671E+04  0.12508981069E+03 0.  0.
          5    1    3    3  502    0 -0.19069601378E+02  0.59454105371E+02 -0.70276830407E+03  0.70554886574E+03  0.41800000000E+01 0.  1.
         -5    1    3    3    0  502 -0.25580446110E+02 -0.63919128615E+02 -0.58112215532E+03  0.58520120133E+03  0.41800000000E+01 0.  1.
        -11    1    1    2    0    0  0.27268894439E+02 -0.97604677000E+00 -0.13503647412E+03  0.13776572365E+03  0.00000000000E+00 0.  1.
         11    1    1    2    0    0  0.17381153048E+02  0.54410700134E+01 -0.70885201849E+02  0.73187577944E+02  0.00000000000E+00 0. -1.
</event>
<event>
 8    1  0.6627806E-009  0.1602123E+03  0.7561462E-02  0.1188457E+00
         -2   -1    0    0    0  501 -0.00000000000E+00  0.00000000000E+00  0.97683880795E+03  0.97683880795E+03  0.00000000000E+00 0.  1.
          2   -1    0    0  501    0  0.00000000000E+00 -0.00000000000E+00 -0.41246231079E+02  0.41246231079E+02  0.00000000000E+00 0. -1.
         25    2    1    2    0    0  0.12364081785E+03  0.71710592089E+02  0.71294342450E+03  0.73781127375E+03  0.12509072020E+03 0.  0.
         23    2    1    2    0    0 -0.12364081785E+03 -0.71710592089E+02  0.22264915237E+03  0.28027376528E+03  0.92473118225E+02 0.  0.
          5    1    3    3  502    0  0.43763035337E+02  0.56470151591E+02  0.55989652296E+03  0.56445165436E+03  0.41800000000E+01 0. -1.
         -5    1    3    3    0  502  0.79877782515E+02  0.15240440499E+02  0.15304690154E+03  0.17335961940E+03  0.41800000000E+01 0. -1.
        -11    1    4    4    0    0 -0.59044062243E+02 -0.82998975956E+02  0.15940688510E+03  0.18917078610E+03  0.00000000000E+00 0.  1.
         11    1    4    4    0    0 -0.64596755609E+02  0.11288383867E+02  0.63242267267E+02  0.91102979175E+02  0.00000000000E+00 0. -1.
</event>
<event>
 8    1  0.6627806E-009  0.2113193E+03  0.7561462E-02  0.1140525E+00
          2   -1    0    0  501    0  0.00000000000E+00  0.00000000000E+00  0.56770434795E+03  0.56770434795E+03  0.00000000000E+00 0. -1.
         -2   -1    0    0    0  501 -0.00000000000E+00 -0.00000000000E+00 -0.87828202675E+02  0.87828202675E+02  0.00000000000E+00 0.  1.
         25    2    1    2    0    0  0.18881755854E+03  0.11837227201E+01  0.31848406845E+03  0.39080844415E+03  0.12508263888E+03 0.  0.
         23    2    1    2    0    0 -0.18881755854E+03 -0.11837227201E+01  0.16139207683E+03  0.26472410648E+03  0.91531297793E+02 0.  0.
          5    1    3    3  502    0  0.96238604827E+02 -0.48286574919E+02  0.94131261435E+02  0.14307910104E+03  0.41800000000E+01 0.  1.
         -5    1    3    3    0  502  0.92578953714E+02  0.49470297639E+02  0.22435280701E+03  0.24772934310E+03  0.41800000000E+01 0.  1.
        -11    1    4    4    0    0 -0.84394224865E+01  0.26075891117E+02  0.20619168876E+02  0.34297610333E+02  0.00000000000E+00 0. -1.
         11    1    4    4    0    0 -0.18037813605E+03 -0.27259613837E+02  0.14077290795E+03  0.23042649615E+03  0.00000000000E+00 0.  1.
</event>
<event>
 8    1  0.6627806E-009  0.1051471E+03  0.7561462E-02  0.1269830E+00
          2   -1    0    0  501    0  0.00000000000E+00  0.00000000000E+00  0.46366754751E+03  0.46366754751E+03  0.00000000000E+00 0. -1.
         -2   -1    0    0    0  501 -0.00000000000E+00 -0.00000000000E+00 -0.40501807764E+02  0.40501807764E+02  0.00000000000E+00 0.  1.
         25    2    1    2    0    0  0.67051735572E+01  0.75914492165E+02  0.17024853182E+03  0.22458968324E+03  0.12509194122E+03 0.  0.
         23    2    1    2    0    0 -0.67051735572E+01 -0.75914492165E+02  0.25291720793E+03  0.27957967204E+03  0.91595357288E+02 0.  0.
          5    1    3    3  502    0 -0.16300212211E+02  0.69426506259E+02  0.22550338336E+02  0.74911460062E+02  0.41800000000E+01 0.  1.
         -5    1    3    3    0  502  0.23005385768E+02  0.64879859062E+01  0.14769819348E+03  0.14967822318E+03  0.41800000000E+01 0.  1.
        -11    1    4    4    0    0  0.12984475064E+02 -0.89649534082E+02  0.22618511914E+03  0.24365004345E+03  0.00000000000E+00 0. -1.
         11    1    4    4    0    0 -0.19689648621E+02  0.13735041917E+02  0.26732088791E+02  0.35929628587E+02  0.00000000000E+00 0.  1.
</event>
<event>
 8    1  0.6627806E-009  0.1357289E+03  0.7561462E-02  0.1219194E+00
         -2   -1    0    0    0  501 -0.00000000000E+00  0.00000000000E+00  0.71678729942E+02  0.71678729942E+02  0.00000000000E+00 0.  1.
          2   -1    0    0  501    0  0.00000000000E+00 -0.00000000000E+00 -0.33948300657E+03  0.33948300657E+03  0.00000000000E+00 0. -1.
         25    2    1    2    0    0  0.86386963718E+02  0.68875481662E+02 -0.16054511566E+03  0.23158926498E+03  0.12510920837E+03 0.  0.
         23    2    1    2    0    0 -0.86386963718E+02 -0.68875481662E+02 -0.10725916097E+03  0.17957247153E+03  0.92386175620E+02 0.  0.
          5    1    3    3  502    0 -0.65509981829E+01  0.66455645714E+02 -0.10084660955E+03  0.12102387980E+03  0.41800000000E+01 0. -1.
         -5    1    3    3    0  502  0.92937961901E+02  0.24198359478E+01 -0.59698506105E+02  0.11056538518E+03  0.41800000000E+01 0. -1.
        -11    1    4    4    0    0 -0.10779745933E+02 -0.29568385563E+01  0.16710251027E+02  0.20104186281E+02  0.00000000000E+00 0.  1.
         11    1    4    4    0    0 -0.75607217785E+02 -0.65918643105E+02 -0.12396941200E+03  0.15946828525E+03  0.00000000000E+00 0. -1.
</event>
<event>
 8    1  0.6627806E-009  0.1019232E+03  0.7561462E-02  0.1276303E+00
          1   -1    0    0  501    0  0.00000000000E+00  0.00000000000E+00  0.41332090872E+03  0.41332090872E+03  0.00000000000E+00 0. -1.
         -1   -1    0    0    0  501 -0.00000000000E+00 -0.00000000000E+00 -0.53265343538E+02  0.53265343538E+02  0.00000000000E+00 0.  1.
         25    2    1    2    0    0  0.18644723032E+02 -0.64788969586E+02  0.76828916375E+02  0.16154085582E+03  0.12509008526E+03 0.  0.
         23    2    1    2    0    0 -0.18644723032E+02  0.64788969586E+02  0.28322664881E+03  0.30504539645E+03  0.91050112677E+02 0.  0.
          5    1    3    3  502    0 -0.35267074654E+02 -0.55981060505E+02  0.83202593179E+02  0.10638510047E+03  0.41800000000E+01 0. -1.
         -5    1    3    3    0  502  0.53911797685E+02 -0.88079090810E+01 -0.63736768042E+01  0.55155755348E+02  0.41800000000E+01 0. -1.
        -11    1    4    4    0    0  0.16423688086E+02  0.19958063078E+02  0.13080402294E+02  0.28968236680E+02  0.00000000000E+00 0.  1.
         11    1    4    4    0    0 -0.35068411118E+02  0.44830906509E+02  0.27014624652E+03  0.27607715977E+03  0.00000000000E+00 0. -1.
</event>
<event>
 8    1  0.6627806E-009  0.1352610E+03  0.7561462E-02  0.1219852E+00
         -1   -1    0    0    0  501 -0.00000000000E+00  0.00000000000E+00  0.33175755878E+02  0.33175755878E+02  0.00000000000E+00 0.  1.
          1   -1    0    0  501    0  0.00000000000E+00 -0.00000000000E+00 -0.97781943242E+03  0.97781943242E+03  0.00000000000E+00 0. -1.
         25    2    1    2    0    0  0.22330216015E+02 -0.91726099930E+02 -0.79725826370E+03  0.81251503624E+03  0.12509048373E+03 0.  0.
         23    2    1    2    0    0 -0.22330216015E+02  0.91726099930E+02 -0.14738541284E+03  0.19848015206E+03  0.93592707445E+02 0.  0.
          5    1    3    3  502    0  0.52854514956E+02 -0.10499145805E+03 -0.51445031741E+03  0.52772474596E+03  0.41800000000E+01 0. -1.
         -5    1    3    3    0  502 -0.30524298941E+02  0.13265358124E+02 -0.28280794629E+03  0.28479029028E+03  0.41800000000E+01 0. -1.
        -11    1    4    4    0    0  0.62675269747E+01 -0.11036274542E+02  0.39844083751E+01  0.13302509547E+02  0.00000000000E+00 0.  1.
         11    1    4    4    0    0 -0.28597742989E+02  0.10276237447E+03 -0.15136982121E+03  0.18517764251E+03  0.00000000000E+00 0. -1.
</event>
<event>
 8    1  0.6627806E-009  0.1568880E+03  0.7561462E-02  0.1192256E+00
         -1   -1    0    0    0  501 -0.00000000000E+00  0.00000000000E+00  0.87002813406E+02  0.87002813406E+02  0.00000000000E+00 0.  1.
          1   -1    0    0  501    0  0.00000000000E+00 -0.00000000000E+00 -0.40992983012E+03  0.40992983012E+03  0.00000000000E+00 0. -1.
         25    2    1    2    0    0  0.13893527249E+03  0.30965904969E+02 -0.92602920441E+02  0.21091553818E+03  0.12509263032E+03 0.  0.
         23    2    1    2    0    0 -0.13893527249E+03 -0.30965904969E+02 -0.23032409627E+03  0.28601710534E+03  0.92166686017E+02 0.  0.
          5    1    3    3  502    0  0.12247627772E+03  0.44496968793E+02 -0.11914977840E+03  0.17661982031E+03  0.41800000000E+01 0. -1.
         -5    1    3    3    0  502  0.16458994776E+02 -0.13531063824E+02  0.26546857954E+02  0.34295717874E+02  0.41800000000E+01 0. -1.
        -11    1    4    4    0    0 -0.10811982527E+03 -0.56203830785E+02 -0.13053675644E+03  0.17857382785E+03  0.00000000000E+00 0. -1.
         11    1    4    4    0    0 -0.30815447220E+02  0.25237925817E+02 -0.99787339834E+02  0.10744327749E+03  0.00000000000E+00 0.  1.
</event>
<event>
 8    1  0.6627806E-009  0.1440815E+03  0.7561462E-02  0.1207940E+00
         -2   -1    0    0    0  501 -0.00000000000E+00  0.00000000000E+00  0.63022232606E+03  0.63022232606E+03  0.00000000000E+00 0.  1.
          2   -1    0    0  501    0  0.00000000000E+00 -0.00000000000E+00 -0.49162081122E+02  0.49162081122E+02  0.00000000000E+00 0. -1.
         25    2    1    2    0    0  0.52066430370E+02 -0.94351513540E+02  0.14106704337E+03  0.21716434787E+03  0.12508925606E+03 0.  0.
         23    2    1    2    0    0 -0.52066430370E+02  0.94351513540E+02  0.43999320157E+03  0.46222005931E+03  0.91870803448E+02 0.  0.
          5    1    3    3  502    0 -0.21425286147E+02 -0.87371911369E+02  0.64867623405E+02  0.11098727291E+03  0.41800000000E+01 0. -1.
         -5    1    3    3    0  502  0.73491716517E+02 -0.69796021704E+01  0.76199419966E+02  0.10617707496E+03  0.41800000000E+01 0. -1.
        -11    1    4    4    0    0 -0.63050367968E+02  0.93984852728E+02  0.43612328597E+03  0.45056855417E+03  0.00000000000E+00 0.  1.
         11    1    4    4    0    0  0.10983937598E+02  0.36666081172E+00  0.38699155987E+01  0.11651505141E+02  0.00000000000E+00 0. -1.
</event>
<event>
 8    1  0.6627806E-009  0.2217661E+03  0.7561462E-02  0.1132573E+00
          1   -1    0    0  501    0  0.00000000000E+00  0.00000000000E+00  0.39627502793E+03  0.39627502793E+03  0.00000000000E+00 0. -1.
         -1   -1    0    0    0  501 -0.00000000000E+00 -0.00000000000E+00 -0.13868126456E+03  0.13868126456E+03  0.00000000000E+00 0.  1.
         25    2    1    2    0    0 -0.19247028502E+03 -0.71184051468E+02  0.16353880234E+03  0.29068557021E+03  0.12506470748E+03 0.  0.
         23    2    1    2    0    0  0.19247028502E+03  0.71184051468E+02  0.94054961033E+02  0.24427072228E+03  0.93326685731E+02 0.  0.
          5    1    3    3  502    0 -0.11124963855E+03 -0.97858065843E+02  0.13493000663E+03  0.20044017117E+03  0.41800000000E+01 0.  1.
         -5    1    3    3    0  502 -0.81220646469E+02  0.26674014375E+02  0.28608795711E+02  0.90245399039E+02  0.41800000000E+01 0.  1.
        -11    1    4    4    0    0  0.11971432250E+03  0.66182502849E+02  0.16448954974E+02  0.13777594425E+03  0.00000000000E+00 0.  1.
         11    1    4    4    0    0  0.72755962521E+02  0.50015486190E+01  0.77606006059E+02  0.10649477803E+03  0.00000000000E+00 0. -1.
</event>
<event>
 8    1  0.6627806E-009  0.1318361E+03  0.7561462E-02  0.1224756E+00
          2   -1    0    0  501    0  0.00000000000E+00  0.00000000000E+00  0.29385417625E+03  0.29385417625E+03  0.00000000000E+00 0.  1.
         -2   -1    0    0    0  501 -0.00000000000E+00 -0.00000000000E+00 -0.13062159302E+03  0.13062159302E+03  0.00000000000E+00 0. -1.
         25    2    1    2    0    0  0.81901381838E+02  0.16808617741E+02 -0.56744831517E+02  0.16081593157E+03  0.12510564322E+03 0.  0.
         23    2    1    2    0    0 -0.81901381838E+02 -0.16808617741E+02  0.21997741475E+03  0.26365983770E+03  0.11889525238E+03 0.  0.
          5    1    3    3  502    0  0.79895800178E+02 -0.39897072508E+02 -0.52698645507E+02  0.10377733336E+03  0.41800000000E+01 0.  1.
         -5    1    3    3    0  502  0.20055816600E+01  0.56705690249E+02 -0.40461860103E+01  0.57038598209E+02  0.41800000000E+01 0.  1.
        -11    1    4    4    0    0 -0.36118793710E+02  0.33564200939E+02  0.21419116139E+02  0.53757802968E+02  0.00000000000E+00 0.  1.
         11    1    4    4    0    0 -0.45782588128E+02 -0.50372818681E+02  0.19855829861E+03  0.20990203473E+03  0.00000000000E+00 0. -1.
</event>
<event>
 8    1  0.6627806E-009  0.1103295E+03  0.7561462E-02  0.1259961E+00
          1   -1    0    0  501    0  0.00000000000E+00  0.00000000000E+00  0.60697330472E+03  0.60697330472E+03  0.00000000000E+00 0. -1.
         -1   -1    0    0    0  501 -0.00000000000E+00 -0.00000000000E+00 -0.25746324734E+02  0.25746324734E+02  0.00000000000E+00 0.  1.
         25    2    1    2    0    0  0.31859538066E+02 -0.38836336515E+02  0.39613731253E+03  0.41844397645E+03  0.12508916760E+03 0.  0.
         23    2    1    2    0    0 -0.31859538066E+02  0.38836336515E+02  0.18508966746E+03  0.21427565300E+03  0.95564529353E+02 0.  0.
          5    1    3    3  502    0  0.72867915274E+02  0.65261904962E+01  0.22770500399E+03  0.23920569700E+03  0.41800000000E+01 0. -1.
         -5    1    3    3    0  502 -0.41008377208E+02 -0.45362527011E+02  0.16843230854E+03  0.17923827945E+03  0.41800000000E+01 0. -1.
        -11    1    4    4    0    0 -0.40230668796E+02 -0.58225284982E+01  0.24680614192E+02  0.47555664929E+02  0.00000000000E+00 0.  1.
         11    1    4    4    0    0  0.83711307304E+01  0.44658865013E+02  0.16040905326E+03  0.16671998807E+03  0.00000000000E+00 0. -1.
</event>
<event>
 8    1  0.6627806E-009  0.1742788E+03  0.7561462E-02  0.1173458E+00
         -1   -1    0    0    0  501 -0.00000000000E+00  0.00000000000E+00  0.53664882195E+02  0.53664882195E+02  0.00000000000E+00 0.  1.
          1   -1    0    0  501    0  0.00000000000E+00 -0.00000000000E+00 -0.68439274121E+03  0.68439274121E+03  0.00000000000E+00 0. -1.
         25    2    1    2    0    0  0.10682655500E+03  0.11089578170E+03 -0.39877723820E+03  0.44539878174E+03  0.12508797631E+03 0.  0.
         23    2    1    2    0    0 -0.10682655500E+03 -0.11089578170E+03 -0.23195062081E+03  0.29265884166E+03  0.90212636902E+02 0.  0.
          5    1    3    3  502    0 -0.67513125842E+01  0.74482765999E+02 -0.19973794699E+03  0.21332131286E+03  0.41800000000E+01 0.  1.
         -5    1    3    3    0  502  0.11357786758E+03  0.36413015700E+02 -0.19903929121E+03  0.23207746888E+03  0.41800000000E+01 0.  1.
        -11    1    4    4    0    0 -0.55750157370E+02 -0.65072642587E+02 -0.19873968082E+03  0.21642548277E+03  0.00000000000E+00 0.  1.
         11    1    4    4    0    0 -0.51076397626E+02 -0.45823139112E+02 -0.33210939990E+02  0.76233358890E+02  0.00000000000E+00 0. -1.
</event>
<event>
 8    1  0.6627806E-009  0.1486731E+03  0.7561462E-02  0.1202113E+00
          2   -1    0    0  501    0  0.00000000000E+00  0.00000000000E+00  0.33654568391E+02  0.33654568391E+02  0.00000000000E+00 0. -1.
         -2   -1    0    0    0  501 -0.00000000000E+00 -0.00000000000E+00 -0.88746454836E+03  0.88746454836E+03  0.00000000000E+00 0.  1.
         25    2    1    2    0    0  0.67279721526E+02 -0.11026827499E+03 -0.56686311925E+03  0.59469840841E+03  0.12508696017E+03 0.  0.
         23    2    1    2    0    0 -0.67279721526E+02  0.11026827499E+03 -0.28694686073E+03  0.32642070835E+03  0.86754392155E+02 0.  0.
          5    1    3    3  502    0  0.82843849735E+02 -0.12149402496E+03 -0.39128960961E+03  0.41802982253E+03  0.41800000000E+01 0.  1.
         -5    1    3    3    0  502 -0.15564128209E+02  0.11225749967E+02 -0.17557350964E+03  0.17666858588E+03  0.41800000000E+01 0.  1.
        -11    1    4    4    0    0 -0.37881835939E+02  0.79372126309E+02 -0.26342050367E+03  0.27771447510E+03  0.00000000000E+00 0.  1.
         11    1    4    4    0    0 -0.29397885586E+02  0.30896148680E+02 -0.23526357059E+02  0.48706233242E+02  0.00000000000E+00 0. -1.
</event>
<event>
 8    1  0.6627806E-009  0.1748920E+03  0.7561462E-02  0.1172840E+00
          2   -1    0    0  501    0  0.00000000000E+00  0.00000000000E+00  0.73744582804E+03  0.73744582804E+03  0.00000000000E+00 0. -1.
         -2   -1    0    0    0  501 -0.00000000000E+00 -0.00000000000E+00 -0.47000588509E+02  0.47000588509E+02  0.00000000000E+00 0.  1.
         25    2    1    2    0    0  0.54618984708E+02 -0.13737796862E+03  0.30689690401E+03  0.36289126644E+03  0.12509365219E+03 0.  0.
         23    2    1    2    0    0 -0.54618984708E+02  0.13737796862E+03  0.38354833552E+03  0.42155515010E+03  0.93506572750E+02 0.  0.
          5    1    3    3  502    0 -0.11271991554E+02  0.12817541733E+02  0.85738584642E+02  0.87520994430E+02  0.41800000000E+01 0.  1.
         -5    1    3    3    0  502  0.65890976263E+02 -0.15019551035E+03  0.22115831937E+03  0.27537027201E+03  0.41800000000E+01 0.  1.
        -11    1    4    4    0    0  0.17682801565E+02  0.58631286658E+02  0.87543795064E+02  0.10683737783E+03  0.00000000000E+00 0.  1.
         11    1    4    4    0    0 -0.72301786273E+02  0.78746681960E+02  0.29600454046E+03  0.31471777228E+03  0.00000000000E+00 0. -1.
</event>
<event>
 8    1  0.6627806E-009  0.1148065E+03  0.7561462E-02  0.1251919E+00
          2   -1    0    0  501    0  0.00000000000E+00  0.00000000000E+00  0.82926808439E+02  0.82926808439E+02  0.00000000000E+00 0. -1.
         -2   -1    0    0    0  501 -0.00000000000E+00 -0.00000000000E+00 -0.20679264036E+03  0.20679264036E+03  0.00000000000E+00 0.  1.
         25    2    1    2    0    0  0.44620902585E+02  0.50209387741E+02 -0.37714791139E+02  0.14690718247E+03  0.12508919708E+03 0.  0.
         23    2    1    2    0    0 -0.44620902585E+02 -0.50209387741E+02 -0.86151040784E+02  0.14281226633E+03  0.91985509839E+02 0.  0.
          5    1    3    3  502    0  0.78081622198E+01  0.72915545516E+02  0.18606359847E+02  0.75771453740E+02  0.41800000000E+01 0.  1.
         -5    1    3    3    0  502  0.36812740365E+02 -0.22706157774E+02 -0.56321150986E+02  0.71135728733E+02  0.41800000000E+01 0.  1.
        -11    1    4    4    0    0 -0.72733469341E+02 -0.34453970372E+02 -0.51797421990E+02  0.95708968031E+02  0.00000000000E+00 0. -1.
         11    1    4    4    0    0  0.28112566756E+02 -0.15755417369E+02 -0.34353618795E+02  0.47103298296E+02  0.00000000000E+00 0.  1.
</event>
<event>
 8    1  0.6627806E-009  0.8835580E+02  0.7561462E-02  0.1306883E+00
         -2   -1    0    0    0  501 -0.00000000000E+00  0.00000000000E+00  0.20042983469E+03  0.20042983469E+03  0.00000000000E+00 0.  1.
          2   -1    0    0  501    0  0.00000000000E+00 -0.00000000000E+00 -0.62277523331E+02  0.62277523331E+02  0.00000000000E+00 0. -1.
         25    2    1    2    0    0 -0.16425892015E+02  0.23735291130E+02  0.75909339359E+02  0.14914124981E+03  0.12509080949E+03 0.  0.
         23    2    1    2    0    0  0.16425892015E+02 -0.23735291130E+02  0.62242971996E+02  0.11356610821E+03  0.90498062945E+02 0.  0.
          5    1    3    3  502    0 -0.23979723984E+02  0.65286124927E+02  0.80487664768E+02  0.10645676047E+03  0.41800000000E+01 0.  1.
         -5    1    3    3    0  502  0.75538319685E+01 -0.41550833797E+02 -0.45783254091E+01  0.42684489339E+02  0.41800000000E+01 0.  1.
        -11    1    4    4    0    0 -0.14530510922E+02 -0.29706758242E+02 -0.10161044432E+02  0.34595867627E+02  0.00000000000E+00 0. -1.
         11    1    4    4    0    0  0.30956402937E+02  0.59714671127E+01  0.72404016428E+02  0.78970240579E+02  0.00000000000E+00 0.  1.
</event>
<event>
 8    1  0.6627806E-009  0.1998707E+03  0.7561462E-02  0.1149848E+00
          1   -1    0    0  501    0  0.00000000000E+00  0.00000000000E+00  0.29758460333E+03  0.29758460333E+03  0.00000000000E+00 0. -1.
         -1   -1    0    0    0  501 -0.00000000000E+00 -0.00000000000E+00 -0.16062986755E+03  0.16062986755E+03  0.00000000000E+00 0.  1.
         25    2    1    2    0    0  0.40484580155E+01  0.17902964907E+03  0.13522463003E+03  0.25690600270E+03  0.12508792267E+03 0.  0.
         23    2    1    2    0    0 -0.40484580155E+01 -0.17902964907E+03  0.17301057493E+01  0.20130846818E+03  0.91946184463E+02 0.  0.
          5    1    3    3  502    0 -0.21957687731E+02  0.17368022446E+03  0.74123366045E+02  0.19015442728E+03  0.41800000000E+01 0.  1.
         -5    1    3    3    0  502  0.26006145746E+02  0.53494246078E+01  0.61101263989E+02  0.66751575422E+02  0.41800000000E+01 0.  1.
        -11    1    4    4    0    0  0.25888017185E+02 -0.12859548367E+02 -0.13253868182E+02  0.31799723894E+02  0.00000000000E+00 0.  1.
         11    1    4    4    0    0 -0.29936475200E+02 -0.16617010070E+03  0.14983973932E+02  0.16950874429E+03  0.00000000000E+00 0. -1.
</event>
<event>
 8    1  0.6627806E-009  0.1117802E+03  0.7561462E-02  0.1257308E+00
         -4   -1    0    0    0  501 -0.00000000000E+00  0.00000000000E+00  0.14533121585E+04  0.14533121585E+04  0.00000000000E+00 0.  1.
          4   -1    0    0  501    0  0.00000000000E+00 -0.00000000000E+00 -0.10502704910E+02  0.10502704910E+02  0.00000000000E+00 0. -1.
         25    2    1    2    0    0 -0.23614843715E+02  0.33799328245E+02  0.10166176853E+04  0.10251141602E+04  0.12508983934E+03 0.  0.
         23    2    1    2    0    0  0.23614843715E+02 -0.33799328245E+02  0.42619176833E+03  0.43870070327E+03  0.95492555846E+02 0.  0.
          5    1    3    3  502    0  0.50560411112E+02  0.19452211065E+02  0.34581301498E+03  0.35005550619E+03  0.41800000000E+01 0.  1.
         -5    1    3    3    0  502 -0.74175254828E+02  0.14347117180E+02  0.67080467031E+03  0.67505865397E+03  0.41800000000E+01 0.  1.
        -11    1    4    4    0    0  0.21049882538E+02  0.26142484275E+02  0.71692107681E+02  0.79159872048E+02  0.00000000000E+00 0. -1.
         11    1    4    4    0    0  0.25649611767E+01 -0.59941812520E+02  0.35449966065E+03  0.35954083122E+03  0.00000000000E+00 0.  1.
</event>
<event>
 8    1  0.6627806E-009  0.1444464E+03  0.7561462E-02  0.1207468E+00
          1   -1    0    0  501    0  0.00000000000E+00  0.00000000000E+00  0.37141894603E+03  0.37141894603E+03  0.00000000000E+00 0. -1.
         -1   -1    0    0    0  501 -0.00000000000E+00 -0.00000000000E+00 -0.11561420825E+03  0.11561420825E+03  0.00000000000E+00 0.  1.
         25    2    1    2    0    0 -0.45587506956E+01  0.12886335015E+03  0.27302331341E+03  0.32682605038E+03  0.12508793835E+03 0.  0.
         23    2    1    2    0    0  0.45587506956E+01 -0.12886335015E+03 -0.17218575632E+02  0.16020710391E+03  0.93505569752E+02 0.  0.
          5    1    3    3  502    0 -0.12518209427E+02  0.68679782585E+02  0.29652213852E+02  0.75962782266E+02  0.41800000000E+01 0. -1.
         -5    1    3    3    0  502  0.79594587309E+01  0.60183567567E+02  0.24337109956E+03  0.25086326811E+03  0.41800000000E+01 0. -1.
        -11    1    4    4    0    0  0.32398421003E+02 -0.70573886039E+01 -0.11618242692E+02  0.35134711905E+02  0.00000000000E+00 0.  1.
         11    1    4    4    0    0 -0.27839670308E+02 -0.12180596155E+03 -0.56003329393E+01  0.12507239200E+03  0.00000000000E+00 0. -1.
</event>
<event>
 8    1  0.6627806E-009  0.1414027E+03  0.7561462E-02  0.1211454E+00
          3   -1    0    0  501    0  0.00000000000E+00  0.00000000000E+00  0.14121918754E+03  0.14121918754E+03  0.00000000000E+00 0. -1.
         -3   -1    0    0    0  501 -0.00000000000E+00 -0.00000000000E+00 -0.16058660010E+03  0.16058660010E+03  0.00000000000E+00 0.  1.
         25    2    1    2    0    0  0.16073620734E+02  0.10053720959E+03  0.94346382189E+01  0.16155965935E+03  0.12508564800E+03 0.  0.
         23    2    1    2    0    0 -0.16073620734E+02 -0.10053720959E+03 -0.28802050786E+02  0.14024612829E+03  0.92050673959E+02 0.  0.
          5    1    3    3  502    0 -0.12289308253E+02  0.11344296281E+03 -0.22902927258E+02  0.11645750034E+03  0.41800000000E+01 0.  1.
         -5    1    3    3    0  502  0.28362928986E+02 -0.12905753221E+02  0.32337565477E+02  0.45102159015E+02  0.41800000000E+01 0.  1.
        -11    1    4    4    0    0  0.34014062001E+02 -0.71767057141E+02 -0.18957403555E+02  0.81650781099E+02  0.00000000000E+00 0.  1.
         11    1    4    4    0    0 -0.50087682735E+02 -0.28770152445E+02 -0.98446472310E+01  0.58595347192E+02  0.00000000000E+00 0. -1.
</event>
<event>
 8    1  0.6627806E-009  0.2579253E+03  0.7561462E-02  0.1108396E+00
         -2   -1    0    0    0  501 -0.00000000000E+00  0.00000000000E+00  0.36824108988E+02  0.36824108988E+02  0.00000000000E+00 0.  1.
          2   -1    0    0  501    0  0.00000000000E+00 -0.00000000000E+00 -0.19540421249E+04  0.19540421249E+04  0.00000000000E+00 0. -1.
         25    2    1    2    0    0 -0.19934469635E+02 -0.24378391868E+03 -0.93228328334E+03  0.97191921584E+03  0.12508740799E+03 0.  0.
         23    2    1    2    0    0  0.19934469635E+02  0.24378391868E+03 -0.98493473258E+03  0.10189470181E+04  0.91261251788E+02 0.  0.
          5    1    3    3  502    0  0.42342806864E+02 -0.82879809850E+02 -0.21783448603E+03  0.23692047585E+03  0.41800000000E+01 0.  1.
         -5    1    3    3    0  502 -0.62277276499E+02 -0.16090410883E+03 -0.71444879731E+03  0.73499873999E+03  0.41800000000E+01 0.  1.
        -11    1    4    4    0    0 -0.13866238144E+02  0.14565420001E+03 -0.42514761839E+03  0.44961974597E+03  0.00000000000E+00 0.  1.
         11    1    4    4    0    0  0.33800707779E+02  0.98129718673E+02 -0.55978711419E+03  0.56932727209E+03  0.00000000000E+00 0. -1.
</event>
<event>
 8    1  0.6627806E-009  0.1901128E+03  0.7561462E-02  0.1158360E+00
          2   -1    0    0  501    0  0.00000000000E+00  0.00000000000E+00  0.17425471104E+04  0.17425471104E+04  0.00000000000E+00 0.  1.
         -2   -1    0    0    0  501 -0.00000000000E+00 -0.00000000000E+00 -0.23474690050E+02  0.23474690050E+02  0.00000000000E+00 0. -1.
         25    2    1    2    0    0  0.16628636110E+03  0.25971356981E+02  0.10279168892E+04  0.10490882534E+04  0.12508943689E+03 0.  0.
         23    2    1    2    0    0 -0.16628636110E+03 -0.25971356981E+02  0.69115553116E+03  0.71693354697E+03  0.89286489769E+02 0.  0.
          5    1    3    3  502    0  0.15019547929E+03 -0.18245623341E+02  0.60945744440E+03  0.62797088604E+03  0.41800000000E+01 0. -1.
         -5    1    3    3    0  502  0.16090881811E+02  0.44216980323E+02  0.41845944476E+03  0.42111736741E+03  0.41800000000E+01 0. -1.
        -11    1    4    4    0    0 -0.63293335611E+02 -0.43980302262E+02  0.19096048940E+03  0.20592771021E+03  0.00000000000E+00 0. -1.
         11    1    4    4    0    0 -0.10299302549E+03  0.18008945281E+02  0.50019504176E+03  0.51100583676E+03  0.00000000000E+00 0.  1.
</event>
<event>
 8    1  0.6627806E-009  0.2387143E+03  0.7561462E-02  0.1120652E+00
          2   -1    0    0  501    0  0.00000000000E+00  0.00000000000E+00  0.16653361776E+04  0.16653361776E+04  0.00000000000E+00 0. -1.
         -2   -1    0    0    0  501 -0.00000000000E+00 -0.00000000000E+00 -0.38185322565E+02  0.38185322565E+02  0.00000000000E+00 0.  1.
         25    2    1    2    0    0 -0.19529553571E+03  0.10645601662E+03  0.99958276884E+03  0.10316402512E+04  0.12507064528E+03 0.  0.
         23    2    1    2    0    0  0.19529553571E+03 -0.10645601662E+03  0.62756808616E+03  0.67188124897E+03  0.90052652418E+02 0.  0.
          5    1    3    3  502    0  0.15241869320E+02  0.23593648153E+02  0.92864906034E+02  0.97109927331E+02  0.41800000000E+01 0. -1.
         -5    1    3    3    0  502 -0.21053740503E+03  0.82862368462E+02  0.90671786281E+03  0.93453032383E+03  0.41800000000E+01 0. -1.
        -11    1    4    4    0    0  0.47717976752E+02 -0.20364554804E+02  0.60831636376E+02  0.79951287556E+02  0.00000000000E+00 0.  1.
         11    1    4    4    0    0  0.14757755896E+03 -0.86091461812E+02  0.56673644978E+03  0.59192996141E+03  0.00000000000E+00 0. -1.
</event>
<event>
 8    1  0.6627806E-009  0.1698102E+03  0.7561462E-02  0.1178046E+00
          1   -1    0    0  501    0  0.00000000000E+00  0.00000000000E+00  0.11849523202E+03  0.11849523202E+03  0.00000000000E+00 0. -1.
         -1   -1    0    0    0  501 -0.00000000000E+00 -0.00000000000E+00 -0.29972863624E+03  0.29972863624E+03  0.00000000000E+00 0.  1.
         25    2    1    2    0    0 -0.11786584596E+03  0.98312216301E+02 -0.11471678899E+03  0.22883540203E+03  0.12509216613E+03 0.  0.
         23    2    1    2    0    0  0.11786584596E+03 -0.98312216301E+02 -0.66516615234E+02  0.18938846624E+03  0.88802486024E+02 0.  0.
          5    1    3    3  502    0 -0.13037331494E+03  0.10802130983E+03 -0.73760502072E+02  0.18472652406E+03  0.41800000000E+01 0. -1.
         -5    1    3    3    0  502  0.12507468980E+02 -0.97090935246E+01 -0.40956286922E+02  0.44108877970E+02  0.41800000000E+01 0. -1.
        -11    1    4    4    0    0  0.39354949946E+02 -0.26184800569E+02 -0.67939354154E+02  0.82766005757E+02  0.00000000000E+00 0.  1.
         11    1    4    4    0    0  0.78510896010E+02 -0.72127415732E+02  0.14227389203E+01  0.10662246048E+03  0.00000000000E+00 0. -1.
</event>
<event>
 8    1  0.6627806E-009  0.1010708E+03  0.7561462E-02  0.1278060E+00
          2   -1    0    0  501    0  0.00000000000E+00  0.00000000000E+00  0.72087539066E+03  0.72087539066E+03  0.00000000000E+00 0. -1.
         -2   -1    0    0    0  501 -0.00000000000E+00 -0.00000000000E+00 -0.31728428889E+02  0.31728428889E+02  0.00000000000E+00 0.  1.
         25    2    1    2    0    0  0.74823028979E+02  0.65850668511E+02  0.28412782764E+03  0.32605647523E+03  0.12509758748E+03 0.  0.
         23    2    1    2    0    0 -0.74823028979E+02 -0.65850668511E+02  0.40501913414E+03  0.42654734432E+03  0.89259967072E+02 0.  0.
          5    1    3    3  502    0  0.20640333511E+02  0.32182511479E+02  0.25123657753E+03  0.25416338780E+03  0.41800000000E+01 0.  1.
         -5    1    3    3    0  502  0.54182695468E+02  0.33668157032E+02  0.32891250113E+02  0.71893087429E+02  0.41800000000E+01 0.  1.
        -11    1    4    4    0    0 -0.27734752237E+02 -0.21869073141E+02  0.30925528343E+02  0.46945299498E+02  0.00000000000E+00 0.  1.
         11    1    4    4    0    0 -0.47088276742E+02 -0.43981595370E+02  0.37409360579E+03  0.37960204482E+03  0.00000000000E+00 0. -1.
</event>
<event>
 8    1  0.6627806E-009  0.1822367E+03  0.7561462E-02  0.1165656E+00
         -1   -1    0    0    0  501 -0.00000000000E+00  0.00000000000E+00  0.18332192884E+03  0.18332192884E+03  0.00000000000E+00 0.  1.
          1   -1    0    0  501    0  0.00000000000E+00 -0.00000000000E+00 -0.19842366690E+03  0.19842366690E+03  0.00000000000E+00 0. -1.
         25    2    1    2    0    0 -0.11516629919E+03 -0.10326191252E+03 -0.39780143333E+02  0.20287355307E+03  0.12509564216E+03 0.  0.
         23    2    1    2    0    0  0.11516629919E+03  0.10326191252E+03  0.24678405279E+02  0.17887204266E+03  0.86370625293E+02 0.  0.
          5    1    3    3  502    0 -0.13943843501E+03 -0.70423940867E+02 -0.41841168731E+02  0.16177380630E+03  0.41800000000E+01 0.  1.
         -5    1    3    3    0  502  0.24272135815E+02 -0.32837971651E+02  0.20610253980E+01  0.41099746774E+02  0.41800000000E+01 0.  1.
        -11    1    4    4    0    0  0.40027925640E+02  0.78372378640E+02  0.42514323293E+02  0.97733987179E+02  0.00000000000E+00 0.  1.
         11    1    4    4    0    0  0.75138373551E+02  0.24889533878E+02 -0.17835918014E+02  0.81138055485E+02  0.00000000000E+00 0. -1.
</event>
<event>
 8    1  0.6627806E-009  0.1239777E+03  0.7561462E-02  0.1236676E+00
          1   -1    0    0  501    0  0.00000000000E+00  0.00000000000E+00  0.51193326300E+03  0.51193326300E+03  0.00000000000E+00 0. -1.
         -1   -1    0    0    0  501 -0.00000000000E+00 -0.00000000000E+00 -0.48397955334E+02  0.48397955334E+02  0.00000000000E+00 0.  1.
         25    2    1    2    0    0 -0.65577336113E+01  0.10181231667E+03  0.16206353818E+03  0.22873852505E+03  0.12509184921E+03 0.  0.
         23    2    1    2    0    0  0.65577336113E+01 -0.10181231667E+03  0.30147176949E+03  0.33159269328E+03  0.93057695781E+02 0.  0.
          5    1    3    3  502    0 -0.21370244970E+02  0.25894597031E+02 -0.13824394912E+02  0.36548650046E+02  0.41800000000E+01 0.  1.
         -5    1    3    3    0  502  0.14812511359E+02  0.75917719639E+02  0.17588793309E+03  0.19218987501E+03  0.41800000000E+01 0.  1.
        -11    1    4    4    0    0  0.38422555103E+02 -0.10329831228E+02  0.11072519060E+03  0.11765655948E+03  0.00000000000E+00 0.  1.
         11    1    4    4    0    0 -0.31864821492E+02 -0.91482485442E+02  0.19074657889E+03  0.21393613381E+03  0.00000000000E+00 0. -1.
</event>
<event>
 8    1  0.6627806E-009  0.2610774E+03  0.7561462E-02  0.1106498E+00
          2   -1    0    0  501    0  0.00000000000E+00  0.00000000000E+00  0.26293776541E+03  0.26293776541E+03  0.00000000000E+00 0. -1.
         -2   -1    0    0    0  501 -0.00000000000E+00 -0.00000000000E+00 -0.29668758325E+03  0.29668758325E+03  0.00000000000E+00 0.  1.
         25    2    1    2    0    0  0.25279632923E+03  0.44863948730E+02 -0.26865383334E+02  0.28685843578E+03  0.12508898987E+03 0.  0.
         23    2    1    2    0    0 -0.25279632923E+03 -0.44863948730E+02 -0.68844345102E+01  0.27276691288E+03  0.91845714934E+02 0.  0.
          5    1    3    3  502    0  0.29279910167E+02  0.24379674424E+02 -0.47940279286E+02  0.61379348664E+02  0.41800000000E+01 0.  1.
         -5    1    3    3    0  502  0.22351641907E+03  0.20484274305E+02  0.21074895953E+02  0.22547908711E+03  0.41800000000E+01 0.  1.
        -11    1    4    4    0    0 -0.23289667053E+02 -0.15452550030E+02 -0.29064321938E+02  0.40322756647E+02  0.00000000000E+00 0.  1.
         11    1    4    4    0    0 -0.22950666218E+03 -0.29411398699E+02  0.22179887428E+02  0.23244415623E+03  0.00000000000E+00 0. -1.
</event>
<event>
 8    1  0.6627806E-009  0.1099024E+03  0.7561462E-02  0.1260751E+00
          2   -1    0    0  501    0  0.00000000000E+00  0.00000000000E+00  0.10132434757E+02  0.10132434757E+02  0.00000000000E+00 0. -1.
         -2   -1    0    0    0  501 -0.00000000000E+00 -0.00000000000E+00 -0.12920377581E+04  0.12920377581E+04  0.00000000000E+00 0.  1.
         25    2    1    2    0    0  0.26442315578E+02  0.15625386873E+02 -0.84191097406E+03  0.85170731012E+03  0.12509158683E+03 0.  0.
         23    2    1    2    0    0 -0.26442315578E+02 -0.15625386873E+02 -0.43999434933E+03  0.45046288279E+03  0.91533778239E+02 0.  0.
          5    1    3    3  502    0 -0.25276281813E+02  0.54035200309E+02 -0.51683120345E+03  0.52027940431E+03  0.41800000000E+01 0. -1.
         -5    1    3    3    0  502  0.51718597391E+02 -0.38409813435E+02 -0.32507977061E+03  0.33142790580E+03  0.41800000000E+01 0. -1.
        -11    1    4    4    0    0  0.10330697736E+02  0.32944585346E+02 -0.12789356922E+03  0.13247201240E+03  0.00000000000E+00 0.  1.
         11    1    4    4    0    0 -0.36773013314E+02 -0.48569972219E+02 -0.31210078011E+03  0.31799087039E+03  0.00000000000E+00 0. -1.
</event>
<event>
 8    1  0.6627806E-009  0.7680494E+02  0.7561462E-02  0.1338371E+00
          2   -1    0    0  501    0  0.00000000000E+00  0.00000000000E+00  0.20991952499E+03  0.20991952499E+03  0.00000000000E+00 0. -1.
         -2   -1    0    0    0  501 -0.00000000000E+00 -0.00000000000E+00 -0.62646055789E+02  0.62646055789E+02  0.00000000000E+00 0.  1.
         25    2    1    2    0    0  0.20114494203E+02  0.26455630703E+02  0.12589216732E+03  0.18052267063E+03  0.12504040765E+03 0.  0.
         23    2    1    2    0    0 -0.20114494203E+02 -0.26455630703E+02  0.21381301879E+02  0.92042910152E+02  0.83127877191E+02 0.  0.
          5    1    3    3  502    0 -0.23144099005E+02  0.96127354703E+01  0.13117652775E+03  0.13361439981E+03  0.41800000000E+01 0. -1.
         -5    1    3    3    0  502  0.43258593208E+02  0.16842895232E+02 -0.52843604328E+01  0.46908270820E+02  0.41800000000E+01 0. -1.
        -11    1    4    4    0    0  0.27848849993E+01  0.25061481624E+02 -0.10455481211E+02  0.27297445540E+02  0.00000000000E+00 0.  1.
         11    1    4    4    0    0 -0.22899379203E+02 -0.51517112327E+02  0.31836783090E+02  0.64745464612E+02  0.00000000000E+00 0. -1.
</event>
<event>
 8    1  0.6627806E-009  0.1784859E+03  0.7561462E-02  0.1169277E+00
          2   -1    0    0  501    0  0.00000000000E+00  0.00000000000E+00  0.19655662265E+03  0.19655662265E+03  0.00000000000E+00 0.  1.
         -2   -1    0    0    0  501 -0.00000000000E+00 -0.00000000000E+00 -0.19123767515E+03  0.19123767515E+03  0.00000000000E+00 0. -1.
         25    2    1    2    0    0 -0.38242598675E+02 -0.14973165846E+03 -0.39563816533E+02  0.20271860819E+03  0.12508985821E+03 0.  0.
         23    2    1    2    0    0  0.38242598675E+02  0.14973165846E+03  0.44882764031E+02  0.18507568961E+03  0.91413798080E+02 0.  0.
          5    1    3    3  502    0 -0.46745685468E+02 -0.15851924135E+03 -0.62215337475E+02  0.17664011324E+03  0.41800000000E+01 0. -1.
         -5    1    3    3    0  502  0.85030867936E+01  0.87875828824E+01  0.22651520943E+02  0.26078494952E+02  0.41800000000E+01 0. -1.
        -11    1    4    4    0    0 -0.23107012909E+02  0.90674176506E+02  0.32327370330E+02  0.98998985869E+02  0.00000000000E+00 0.  1.
         11    1    4    4    0    0  0.61349611584E+02  0.59057481958E+02  0.12555393701E+02  0.86076703746E+02  0.00000000000E+00 0. -1.
</event>
<event>
 8    1  0.6627806E-009  0.8087037E+02  0.7561462E-02  0.1326599E+00
          2   -1    0    0  501    0  0.00000000000E+00  0.00000000000E+00  0.74150838294E+02  0.74150838294E+02  0.00000000000E+00 0. -1.
         -2   -1    0    0    0  501 -0.00000000000E+00 -0.00000000000E+00 -0.17642748490E+03  0.17642748490E+03  0.00000000000E+00 0.  1.
         25    2    1    2    0    0 -0.50279291024E+01  0.18928209411E+02 -0.36959571839E+02  0.13189550164E+03  0.12508739433E+03 0.  0.
         23    2    1    2    0    0  0.50279291024E+01 -0.18928209411E+02 -0.65317074771E+02  0.11868282156E+03  0.97137709949E+02 0.  0.
          5    1    3    3  502    0 -0.40870351008E+02  0.52368980879E+02 -0.47257806054E+02  0.81631295364E+02  0.41800000000E+01 0. -1.
         -5    1    3    3    0  502  0.35842421905E+02 -0.33440771468E+02  0.10298234214E+02  0.50264206274E+02  0.41800000000E+01 0. -1.
        -11    1    4    4    0    0  0.19579476947E+02 -0.23631702429E+02  0.16914304269E+02  0.35041503480E+02  0.00000000000E+00 0. -1.
         11    1    4    4    0    0 -0.14551547844E+02  0.47034930185E+01 -0.82231379040E+02  0.83641318080E+02  0.00000000000E+00 0.  1.
</event>
<event>
 8    1  0.6627806E-009  0.1257667E+03  0.7561462E-02  0.1233876E+00
         -2   -1    0    0    0  501 -0.00000000000E+00  0.00000000000E+00  0.62495826775E+02  0.62495826775E+02  0.00000000000E+00 0.  1.
          2   -1    0    0  501    0  0.00000000000E+00 -0.00000000000E+00 -0.28193737784E+03  0.28193737784E+03  0.00000000000E+00 0. -1.
         25    2    1    2    0    0  0.20967334973E+02 -0.64496474125E+02 -0.16842673606E+03  0.22048596166E+03  0.12508824707E+03 0.  0.
         23    2    1    2    0    0 -0.20967334973E+02  0.64496474125E+02 -0.51014815003E+02  0.12394724296E+03  0.90338161248E+02 0.  0.
          5    1    3    3  502    0  0.70813242146E+02 -0.20199537779E+02 -0.10533236459E+03  0.12858816439E+03  0.41800000000E+01 0. -1.
         -5    1    3    3    0  502 -0.49845907173E+02 -0.44296936346E+02 -0.63094371474E+02  0.91897797271E+02  0.41800000000E+01 0. -1.
        -11    1    4    4    0    0  0.54802178270E+01  0.80078053045E+02 -0.26068484035E+02  0.84392495086E+02  0.00000000000E+00 0.  1.
         11    1    4    4    0    0 -0.26447552800E+02 -0.15581578920E+02 -0.24946330969E+02  0.39554747876E+02  0.00000000000E+00 0. -1.
</event>
<event>
 8    1  0.6627806E-009  0.2776327E+03  0.7561462E-02  0.1096989E+00
         -1   -1    0    0    0  501 -0.00000000000E+00  0.00000000000E+00  0.29238393974E+03  0.29238393974E+03  0.00000000000E+00 0.  1.
          1   -1    0    0  501    0  0.00000000000E+00 -0.00000000000E+00 -0.29651516476E+03  0.29651516476E+03  0.00000000000E+00 0. -1.
         25    2    1    2    0    0  0.18779002221E+03  0.19171722261E+03 -0.54371643145E+02  0.30103842809E+03  0.12508906316E+03 0.  0.
         23    2    1    2    0    0 -0.18779002221E+03 -0.19171722261E+03  0.50240418120E+02  0.28786067641E+03  0.91209010113E+02 0.  0.
          5    1    3    3  502    0  0.19421945423E+03  0.16073220868E+03 -0.18195926167E+02  0.25279359849E+03  0.41800000000E+01 0.  1.
         -5    1    3    3    0  502 -0.64294320180E+01  0.30985013931E+02 -0.36175716979E+02  0.48244829602E+02  0.41800000000E+01 0.  1.
        -11    1    4    4    0    0 -0.10457360550E+03 -0.78800580302E+02 -0.17479018871E+02  0.13210104664E+03  0.00000000000E+00 0. -1.
         11    1    4    4    0    0 -0.83216416710E+02 -0.11291664230E+03  0.67719436992E+02  0.15575962977E+03  0.00000000000E+00 0.  1.
</event>
<event>
 8    1  0.6627806E-009  0.2944624E+03  0.7561462E-02  0.1088042E+00
         -1   -1    0    0    0  501 -0.00000000000E+00  0.00000000000E+00  0.83811809510E+02  0.83811809510E+02  0.00000000000E+00 0.  1.
          1   -1    0    0  501    0  0.00000000000E+00 -0.00000000000E+00 -0.11418738735E+04  0.11418738735E+04  0.00000000000E+00 0. -1.
         25    2    1    2    0    0 -0.21953436341E+03 -0.18249562064E+03 -0.63450612769E+03  0.70692640094E+03  0.12508765727E+03 0.  0.
         23    2    1    2    0    0  0.21953436341E+03  0.18249562064E+03 -0.42355593628E+03  0.51875928205E+03  0.90617731614E+02 0.  0.
          5    1    3    3  502    0 -0.57944599479E+02 -0.83153025786E+02 -0.35425196026E+03  0.36848870546E+03  0.41800000000E+01 0.  1.
         -5    1    3    3    0  502 -0.16158976393E+03 -0.99342594858E+02 -0.28025416743E+03  0.33843769548E+03  0.41800000000E+01 0.  1.
        -11    1    4    4    0    0  0.42331889055E+02  0.86311621006E+02 -0.11133870692E+03  0.14709858058E+03  0.00000000000E+00 0.  1.
         11    1    4    4    0    0  0.17720247435E+03  0.96183999638E+02 -0.31221722936E+03  0.37166070146E+03  0.00000000000E+00 0. -1.
</event>
<event>
 8    1  0.6627806E-009  0.1295538E+03  0.7561462E-02  0.1228119E+00
          1   -1    0    0  501    0  0.00000000000E+00  0.00000000000E+00  0.21444373562E+03  0.21444373562E+03  0.00000000000E+00 0. -1.
         -1   -1    0    0    0  501 -0.00000000000E+00 -0.00000000000E+00 -0.10260949676E+03  0.10260949676E+03  0.00000000000E+00 0.  1.
         25    2    1    2    0    0 -0.84098544995E+02  0.39423781486E+02  0.16148532591E+02  0.15663745486E+03  0.12509083637E+03 0.  0.
         23    2    1    2    0    0  0.84098544995E+02 -0.39423781486E+02  0.95685706275E+02  0.16041577752E+03  0.89166515442E+02 0.  0.
          5    1    3    3  502    0  0.34033431426E+01  0.47624984681E+02 -0.30738875161E+02  0.56939202283E+02  0.41800000000E+01 0.  1.
         -5    1    3    3    0  502 -0.87501888137E+02 -0.82012031947E+01  0.46887407752E+02  0.99698252578E+02  0.41800000000E+01 0.  1.
        -11    1    4    4    0    0  0.60445519407E+02  0.16344968243E+02  0.71880045439E+02  0.95328693138E+02  0.00000000000E+00 0. -1.
         11    1    4    4    0    0  0.23653025588E+02 -0.55768749729E+02  0.23805660836E+02  0.65087084384E+02  0.00000000000E+00 0.  1.
</event>
<event>
 8    1  0.6627806E-009  0.6525383E+02  0.7561462E-02  0.1377019E+00
          1   -1    0    0  501    0  0.00000000000E+00  0.00000000000E+00  0.47850496359E+03  0.47850496359E+03  0.00000000000E+00 0. -1.
         -1   -1    0    0    0  501 -0.00000000000E+00 -0.00000000000E+00 -0.32564005674E+02  0.32564005674E+02  0.00000000000E+00 0.  1.
         25    2    1    2    0    0  0.24191227559E+02  0.15923998039E+02  0.36149800901E+03  0.38362801303E+03  0.12510336788E+03 0.  0.
         23    2    1    2    0    0 -0.24191227559E+02 -0.15923998039E+02  0.84442948897E+02  0.12744095623E+03  0.90949417269E+02 0.  0.
          5    1    3    3  502    0  0.61217546228E+01  0.16607692767E+02 -0.31929926421E+01  0.18465073536E+02  0.41800000000E+01 0.  1.
         -5    1    3    3    0  502  0.18069472937E+02 -0.68369472790E+00  0.36469100166E+03  0.36516293949E+03  0.41800000000E+01 0.  1.
        -11    1    4    4    0    0 -0.46380081629E+02  0.20818999396E+02  0.57550016657E+02  0.76788977887E+02  0.00000000000E+00 0. -1.
         11    1    4    4    0    0  0.22188854070E+02 -0.36742997434E+02  0.26892932240E+02  0.50651978341E+02  0.00000000000E+00 0.  1.
</event>
<event>
 8    1  0.6627806E-009  0.1891523E+03  0.7561462E-02  0.1159228E+00
          2   -1    0    0  501    0  0.00000000000E+00  0.00000000000E+00  0.28422990955E+03  0.28422990955E+03  0.00000000000E+00 0.  1.
         -2   -1    0    0    0  501 -0.00000000000E+00 -0.00000000000E+00 -0.15377738593E+03  0.15377738593E+03  0.00000000000E+00 0. -1.
         25    2    1    2    0    0  0.16753869803E+03  0.60831161974E+02  0.65784133293E+02  0.22747323791E+03  0.12508747407E+03 0.  0.
         23    2    1    2    0    0 -0.16753869803E+03 -0.60831161974E+02  0.64668390323E+02  0.21053405756E+03  0.91503787258E+02 0.  0.
          5    1    3    3  502    0  0.30393249966E+02 -0.21384921273E+02  0.55843572764E+02  0.67208939289E+02  0.41800000000E+01 0. -1.
         -5    1    3    3    0  502  0.13714544806E+03  0.82216083247E+02  0.99405605286E+01  0.16026429862E+03  0.41800000000E+01 0. -1.
        -11    1    4    4    0    0 -0.21916905574E+02 -0.20106976085E+02  0.50571226258E+02  0.58669328976E+02  0.00000000000E+00 0.  1.
         11    1    4    4    0    0 -0.14562179246E+03 -0.40724185889E+02  0.14097164064E+02  0.15186472859E+03  0.00000000000E+00 0. -1.
</event>
<event>
 8    1  0.6627806E-009  0.1466478E+03  0.7561462E-02  0.1204654E+00
          2   -1    0    0  501    0  0.00000000000E+00  0.00000000000E+00  0.13694771100E+04  0.13694771100E+04  0.00000000000E+00 0. -1.
         -2   -1    0    0    0  501 -0.00000000000E+00 -0.00000000000E+00 -0.24068620384E+02  0.24068620384E+02  0.00000000000E+00 0.  1.
         25    2    1    2    0    0 -0.48675581429E+02  0.93163065846E+02  0.10947541154E+04  0.11068802173E+04  0.12509425727E+03 0.  0.
         23    2    1    2    0    0  0.48675581429E+02 -0.93163065846E+02  0.25065437424E+03  0.28666551311E+03  0.91108901947E+02 0.  0.
          5    1    3    3  502    0  0.22317044230E+02  0.79722374410E+02  0.75286203581E+03  0.75741166139E+03  0.41800000000E+01 0.  1.
         -5    1    3    3    0  502 -0.70992625659E+02  0.13440691437E+02  0.34189207954E+03  0.34946855587E+03  0.41800000000E+01 0.  1.
        -11    1    4    4    0    0  0.56905823209E+02 -0.14217427328E+02  0.12438317764E+03  0.13751939076E+03  0.00000000000E+00 0.  1.
         11    1    4    4    0    0 -0.82302417796E+01 -0.78945638518E+02  0.12627119661E+03  0.14914612235E+03  0.00000000000E+00 0. -1.
</event>
<event>
 8    1  0.6627806E-009  0.1028312E+03  0.7561462E-02  0.1274453E+00
          1   -1    0    0  501    0  0.00000000000E+00  0.00000000000E+00  0.10831843130E+03  0.10831843130E+03  0.00000000000E+00 0. -1.
         -1   -1    0    0    0  501 -0.00000000000E+00 -0.00000000000E+00 -0.10937106318E+03  0.10937106318E+03  0.00000000000E+00 0.  1.
         25    2    1    2    0    0  0.14925996193E+02 -0.73698085161E+01  0.30479738891E+02  0.12982151369E+03  0.12509001357E+03 0.  0.
         23    2    1    2    0    0 -0.14925996193E+02  0.73698085161E+01 -0.31532370766E+02  0.87867980790E+02  0.80308107948E+02 0.  0.
          5    1    3    3  502    0 -0.18796240411E+02 -0.58876460693E+02  0.23057338987E+01  0.61988104392E+02  0.41800000000E+01 0.  1.
         -5    1    3    3    0  502  0.33722236604E+02  0.51506652177E+02  0.28174004992E+02  0.67833409300E+02  0.41800000000E+01 0.  1.
        -11    1    4    4    0    0 -0.47799060392E+02 -0.19626693252E+01 -0.18806969607E+02  0.51403349609E+02  0.00000000000E+00 0. -1.
         11    1    4    4    0    0  0.32873064199E+02  0.93324778414E+01 -0.12725401159E+02  0.36464631181E+02  0.00000000000E+00 0.  1.
</event>
<event>
 8    1  0.6627806E-009  0.1157619E+03  0.7561462E-02  0.1250257E+00
          1   -1    0    0  501    0  0.00000000000E+00  0.00000000000E+00  0.91129188886E+03  0.91129188886E+03  0.00000000000E+00 0. -1.
         -1   -1    0    0    0  501 -0.00000000000E+00 -0.00000000000E+00 -0.17235154772E+02  0.17235154772E+02  0.00000000000E+00 0.  1.
         25    2    1    2    0    0 -0.11341948259E+02  0.56740028475E+02  0.58273502117E+03  0.59880975287E+03  0.12507975305E+03 0.  0.
         23    2    1    2    0    0  0.11341948259E+02 -0.56740028475E+02  0.31132171293E+03  0.32971729076E+03  0.91892395040E+02 0.  0.
          5    1    3    3  502    0  0.48086657559E+02  0.35385401398E+02  0.15045663699E+03  0.16192320797E+03  0.41800000000E+01 0. -1.
         -5    1    3    3    0  502 -0.59428605818E+02  0.21354627076E+02  0.43227838418E+03  0.43688654490E+03  0.41800000000E+01 0. -1.
        -11    1    4    4    0    0 -0.98310450425E+00 -0.81090037000E+02  0.24142975699E+03  0.25468586171E+03  0.00000000000E+00 0.  1.
         11    1    4    4    0    0  0.12325052764E+02  0.24350008525E+02  0.69891955938E+02  0.75031429052E+02  0.00000000000E+00 0. -1.
</event>
<event>
 8    1  0.6627806E-009  0.1967402E+03  0.7561462E-02  0.1152519E+00
          1   -1    0    0  501    0  0.00000000000E+00  0.00000000000E+00  0.28445260398E+04  0.28445260398E+04  0.00000000000E+00 0. -1.
         -1   -1    0    0    0  501 -0.00000000000E+00 -0.00000000000E+00 -0.18371346324E+02  0.18371346324E+02  0.00000000000E+00 0.  1.
         25    2    1    2    0    0 -0.17005937487E+03 -0.88954912374E+01  0.21358742586E+04  0.21463003165E+04  0.12508748766E+03 0.  0.
         23    2    1    2    0    0  0.17005937487E+03  0.88954912374E+01  0.69028043490E+03  0.71659706959E+03  0.89582144369E+02 0.  0.
          5    1    3    3  502    0 -0.12722378267E+03  0.44734037750E+02  0.16613183186E+04  0.16667882449E+04  0.41800000000E+01 0.  1.
         -5    1    3    3    0  502 -0.42835592206E+02 -0.53629528987E+02  0.47455593997E+03  0.47951207169E+03  0.41800000000E+01 0.  1.
        -11    1    4    4    0    0  0.10595584433E+03 -0.35580820003E+02  0.46291338250E+03  0.47621574459E+03  0.00000000000E+00 0. -1.
         11    1    4    4    0    0  0.64103530546E+02  0.44476311240E+02  0.22736705240E+03  0.24038132500E+03  0.00000000000E+00 0.  1.
</event>
<event>
 8    1  0.6627806E-009  0.8372971E+02  0.7561462E-02  0.1318788E+00
         -1   -1    0    0    0  501 -0.00000000000E+00  0.00000000000E+00  0.12028431676E+02  0.12028431676E+02  0.00000000000E+00 0.  1.
          1   -1    0    0  501    0  0.00000000000E+00 -0.00000000000E+00 -0.10751635582E+04  0.10751635582E+04  0.00000000000E+00 0. -1.
         25    2    1    2    0    0  0.20702513097E+02  0.18144963705E+02 -0.73397967226E+03  0.74507078187E+03  0.12508587834E+03 0.  0.
         23    2    1    2    0    0 -0.20702513097E+02 -0.18144963705E+02 -0.32915545430E+03  0.34212120803E+03  0.89139071876E+02 0.  0.
          5    1    3    3  502    0 -0.13980576194E+02  0.33136269535E+02 -0.60411705172E+02  0.70430926383E+02  0.41800000000E+01 0. -1.
         -5    1    3    3    0  502  0.34683089292E+02 -0.14991305830E+02 -0.67356796708E+03  0.67463985549E+03  0.41800000000E+01 0. -1.
        -11    1    4    4    0    0  0.29847695773E+02 -0.28910710563E+02 -0.15258174705E+03  0.15813887461E+03  0.00000000000E+00 0.  1.
         11    1    4    4    0    0 -0.50550208871E+02  0.10765746858E+02 -0.17657370724E+03  0.18398233342E+03  0.00000000000E+00 0. -1.
</event>
<event>
 8    1  0.6627806E-009  0.2693155E+03  0.7561462E-02  0.1101672E+00
         -2   -1    0    0    0  501 -0.00000000000E+00  0.00000000000E+00  0.50785988633E+03  0.50785988633E+03  0.00000000000E+00 0. -1.
          2   -1    0    0  501    0  0.00000000000E+00 -0.00000000000E+00 -0.17539643263E+03  0.17539643263E+03  0.00000000000E+00 0.  1.
         25    2    1    2    0    0  0.70997883363E+02  0.24510552173E+03  0.54445130067E+02  0.28936005067E+03  0.12509016952E+03 0.  0.
         23    2    1    2    0    0 -0.70997883363E+02 -0.24510552173E+03  0.27801832363E+03  0.39389626829E+03  0.11288341629E+03 0.  0.
          5    1    3    3  502    0 -0.11157902429E+02  0.84239509187E+02 -0.29613345666E+02  0.90084495537E+02  0.41800000000E+01 0.  1.
         -5    1    3    3    0  502  0.82155785792E+02  0.16086601255E+03  0.84058475733E+02  0.19927555513E+03  0.41800000000E+01 0.  1.
        -11    1    4    4    0    0  0.78928926061E+00 -0.16618976093E+03  0.20820990163E+03  0.26640387150E+03  0.00000000000E+00 0.  1.
         11    1    4    4    0    0 -0.71787172623E+02 -0.78915760802E+02  0.69808422000E+02  0.12749239679E+03  0.00000000000E+00 0. -1.
</event>
<event>
 8    1  0.6627806E-009  0.1239481E+03  0.7561462E-02  0.1236722E+00
         -1   -1    0    0    0  501 -0.00000000000E+00  0.00000000000E+00  0.16360799796E+02  0.16360799796E+02  0.00000000000E+00 0.  1.
          1   -1    0    0  501    0  0.00000000000E+00 -0.00000000000E+00 -0.11886818091E+04  0.11886818091E+04  0.00000000000E+00 0. -1.
         25    2    1    2    0    0  0.94013066750E+00 -0.57052046336E+02 -0.90849696449E+03  0.91883926396E+03  0.12507213383E+03 0.  0.
         23    2    1    2    0    0 -0.94013066750E+00  0.57052046336E+02 -0.26382404481E+03  0.28620334494E+03  0.95149399352E+02 0.  0.
          5    1    3    3  502    0  0.87952425793E+01  0.39383564743E+02 -0.28057845971E+03  0.28349632435E+03  0.41800000000E+01 0.  1.
         -5    1    3    3    0  502 -0.78551119118E+01 -0.96435611079E+02 -0.62791850478E+03  0.63534293961E+03  0.41800000000E+01 0.  1.
        -11    1    4    4    0    0 -0.47037496970E+02  0.38523766421E+02 -0.13204501936E+03  0.14537019584E+03  0.00000000000E+00 0.  1.
         11    1    4    4    0    0  0.46097366302E+02  0.18528279915E+02 -0.13177902545E+03  0.14083314910E+03  0.00000000000E+00 0. -1.
</event>
<event>
 8    1  0.6627806E-009  0.1340809E+03  0.7561462E-02  0.1221523E+00
         -1   -1    0    0    0  501 -0.00000000000E+00  0.00000000000E+00  0.91744716563E+02  0.91744716563E+02  0.00000000000E+00 0.  1.
          1   -1    0    0  501    0  0.00000000000E+00 -0.00000000000E+00 -0.26591348334E+03  0.26591348334E+03  0.00000000000E+00 0. -1.
         25    2    1    2    0    0 -0.11132064450E+03  0.89394967022E+01 -0.10413738568E+03  0.19739441207E+03  0.12509100018E+03 0.  0.
         23    2    1    2    0    0  0.11132064450E+03 -0.89394967022E+01 -0.70031381091E+02  0.16026378783E+03  0.91147610287E+02 0.  0.
          5    1    3    3  502    0 -0.48697116921E+02 -0.23934709738E+02  0.17037161095E+02  0.57026456884E+02  0.41800000000E+01 0. -1.
         -5    1    3    3    0  502 -0.62623527575E+02  0.32874206440E+02 -0.12117454678E+03  0.14036795518E+03  0.41800000000E+01 0. -1.
        -11    1    4    4    0    0  0.11173401094E+03 -0.34797618862E+02 -0.65169413394E+02  0.13394930355E+03  0.00000000000E+00 0. -1.
         11    1    4    4    0    0 -0.41336643995E+00  0.25858122160E+02 -0.48619676975E+01  0.26314484288E+02  0.00000000000E+00 0.  1.
</event>
<event>
 8    1  0.6627806E-009  0.1042636E+03  0.7561462E-02  0.1271577E+00
         -2   -1    0    0    0  501 -0.00000000000E+00  0.00000000000E+00  0.28855732129E+02  0.28855732129E+02  0.00000000000E+00 0.  1.
          2   -1    0    0  501    0  0.00000000000E+00 -0.00000000000E+00 -0.51313087979E+03  0.51313087979E+03  0.00000000000E+00 0. -1.
         25    2    1    2    0    0 -0.10928198287E+01  0.37873851817E+02 -0.29918514375E+03  0.32648863841E+03  0.12508979918E+03 0.  0.
         23    2    1    2    0    0  0.10928198287E+01 -0.37873851817E+02 -0.18509000390E+03  0.21549797351E+03  0.10366023410E+03 0.  0.
          5    1    3    3  502    0 -0.36166767551E+02  0.49362326130E+02 -0.27593176358E+03  0.28266673817E+03  0.41800000000E+01 0.  1.
         -5    1    3    3    0  502  0.35073947722E+02 -0.11488474313E+02 -0.23253380177E+02  0.43821900238E+02  0.41800000000E+01 0.  1.
        -11    1    4    4    0    0  0.32859816053E+02  0.23867339173E+02 -0.60526293880E+02  0.72889297164E+02  0.00000000000E+00 0.  1.
         11    1    4    4    0    0 -0.31766996224E+02 -0.61741190990E+02 -0.12456371002E+03  0.14260867634E+03  0.00000000000E+00 0. -1.
</event>
<event>
 8    1  0.6627806E-009  0.1227214E+03  0.7561462E-02  0.1238674E+00
         -2   -1    0    0    0  501 -0.00000000000E+00  0.00000000000E+00  0.16465679621E+02  0.16465679621E+02  0.00000000000E+00 0.  1.
          2   -1    0    0  501    0  0.00000000000E+00 -0.00000000000E+00 -0.12800663932E+04  0.12800663932E+04  0.00000000000E+00 0. -1.
         25    2    1    2    0    0  0.56872420465E+02 -0.65313152156E+02 -0.79682223648E+03  0.81121804714E+03  0.12509501753E+03 0.  0.
         23    2    1    2    0    0 -0.56872420465E+02  0.65313152156E+02 -0.46677847706E+03  0.48531402563E+03  0.10073369238E+03 0.  0.
          5    1    3    3  502    0  0.23728073523E+02 -0.83106490204E+02 -0.72394654272E+03  0.72909929317E+03  0.41800000000E+01 0.  1.
         -5    1    3    3    0  502  0.33144346942E+02  0.17793338048E+02 -0.72875693758E+02  0.82118753971E+02  0.41800000000E+01 0.  1.
        -11    1    4    4    0    0  0.86171456585E+01  0.53903842274E+02 -0.31385384683E+03  0.31856571784E+03  0.00000000000E+00 0. -1.
         11    1    4    4    0    0 -0.65489566123E+02  0.11409309882E+02 -0.15292463022E+03  0.16674830779E+03  0.00000000000E+00 0.  1.
</event>
<event>
 8    1  0.6627806E-009  0.1156799E+03  0.7561462E-02  0.1250399E+00
          2   -1    0    0  501    0  0.00000000000E+00  0.00000000000E+00  0.84480604472E+03  0.84480604472E+03  0.00000000000E+00 0. -1.
         -2   -1    0    0    0  501 -0.00000000000E+00 -0.00000000000E+00 -0.24246505219E+02  0.24246505219E+02  0.00000000000E+00 0.  1.
         25    2    1    2    0    0 -0.60229003201E+02  0.30272533278E+02  0.61931386750E+03  0.63540485700E+03  0.12508279951E+03 0.  0.
         23    2    1    2    0    0  0.60229003201E+02 -0.30272533278E+02  0.20124567201E+03  0.23364769294E+03  0.97711129435E+02 0.  0.
          5    1    3    3  502    0  0.20116965461E+02 -0.13166041858E+02  0.35280902848E+03  0.35365197573E+03  0.41800000000E+01 0. -1.
         -5    1    3    3    0  502 -0.80345968661E+02  0.43438575136E+02  0.26650483901E+03  0.28175288128E+03  0.41800000000E+01 0. -1.
        -11    1    4    4    0    0 -0.21903837914E+02 -0.24977322795E+02  0.35667217421E+02  0.48742129293E+02  0.00000000000E+00 0.  1.
         11    1    4    4    0    0  0.82132841115E+02 -0.52952104829E+01  0.16557845458E+03  0.18490556364E+03  0.00000000000E+00 0. -1.
</event>
<event>
 8    1  0.6627806E-009  0.1186823E+03  0.7561462E-02  0.1245287E+00
          1   -1    0    0  501    0  0.00000000000E+00  0.00000000000E+00  0.36847215085E+03  0.36847215085E+03  0.00000000000E+00 0. -1.
         -1   -1    0    0    0  501 -0.00000000000E+00 -0.00000000000E+00 -0.42750809859E+02  0.42750809859E+02  0.00000000000E+00 0.  1.
         25    2    1    2    0    0  0.32157860601E+02  0.77105443248E+01  0.11752885755E+03  0.17479576125E+03  0.12508775041E+03 0.  0.
         23    2    1    2    0    0 -0.32157860601E+02 -0.77105443248E+01  0.20819248344E+03  0.23642719946E+03  0.10705199667E+03 0.  0.
          5    1    3    3  502    0  0.31277198826E+01  0.64891829666E+02  0.57637839846E+02  0.86950130369E+02  0.41800000000E+01 0.  1.
         -5    1    3    3    0  502  0.29030140718E+02 -0.57181285341E+02  0.59891017705E+02  0.87845630883E+02  0.41800000000E+01 0.  1.
        -11    1    4    4    0    0 -0.11442882096E+02 -0.55102009045E+02  0.76726959810E+02  0.95153545984E+02  0.00000000000E+00 0.  1.
         11    1    4    4    0    0 -0.20714978505E+02  0.47391464721E+02  0.13146552363E+03  0.14127365348E+03  0.00000000000E+00 0. -1.
</event>
<event>
 8    1  0.6627806E-009  0.1264290E+03  0.7561462E-02  0.1232853E+00
          2   -1    0    0  501    0  0.00000000000E+00  0.00000000000E+00  0.10402325052E+04  0.10402325052E+04  0.00000000000E+00 0. -1.
         -2   -1    0    0    0  501 -0.00000000000E+00 -0.00000000000E+00 -0.19069933740E+02  0.19069933740E+02  0.00000000000E+00 0.  1.
         25    2    1    2    0    0 -0.35214187088E+02  0.63349823708E+02  0.75558959674E+03  0.76929595542E+03  0.12508952468E+03 0.  0.
         23    2    1    2    0    0  0.35214187088E+02 -0.63349823708E+02  0.26557297473E+03  0.29000648354E+03  0.91222346212E+02 0.  0.
          5    1    3    3  502    0  0.42667443034E+02  0.21539904058E+02  0.39969667459E+03  0.40256599738E+03  0.41800000000E+01 0.  1.
         -5    1    3    3    0  502 -0.77881630122E+02  0.41809919650E+02  0.35589292215E+03  0.36672995804E+03  0.41800000000E+01 0.  1.
        -11    1    4    4    0    0  0.15807626083E+01 -0.79192236828E+02  0.17437541000E+03  0.19152204259E+03  0.00000000000E+00 0.  1.
         11    1    4    4    0    0  0.33633424480E+02  0.15842413120E+02  0.91197564733E+02  0.98484440949E+02  0.00000000000E+00 0. -1.
</event>
<event>
 8    1  0.6627806E-009  0.1508373E+03  0.7561462E-02  0.1199448E+00
          1   -1    0    0  501    0  0.00000000000E+00  0.00000000000E+00  0.22904127050E+02  0.22904127050E+02  0.00000000000E+00 0. -1.
         -1   -1    0    0    0  501 -0.00000000000E+00 -0.00000000000E+00 -0.12092516238E+04  0.12092516238E+04  0.00000000000E+00 0.  1.
         25    2    1    2    0    0 -0.11090415351E+03 -0.51581023471E+02 -0.52183652850E+03  0.55038280830E+03  0.12509012729E+03 0.  0.
         23    2    1    2    0    0  0.11090415351E+03  0.51581023471E+02 -0.66451096823E+03  0.68177294253E+03  0.90990027052E+02 0.  0.
          5    1    3    3  502    0 -0.43809168154E+02 -0.81074222093E+02 -0.37550038555E+03  0.38666559797E+03  0.41800000000E+01 0.  1.
         -5    1    3    3    0  502 -0.67094985358E+02  0.29493198623E+02 -0.14633614294E+03  0.16371721033E+03  0.41800000000E+01 0.  1.
        -11    1    4    4    0    0  0.74217264963E+02  0.63255583950E+02 -0.58895520005E+03  0.59697378417E+03  0.00000000000E+00 0.  1.
         11    1    4    4    0    0  0.36686888549E+02 -0.11674560480E+02 -0.75555768179E+02  0.84799158363E+02  0.00000000000E+00 0. -1.
</event>
<event>
 8    1  0.6627806E-009  0.1020165E+03  0.7561462E-02  0.1276112E+00
          2   -1    0    0  501    0  0.00000000000E+00  0.00000000000E+00  0.18086465768E+03  0.18086465768E+03  0.00000000000E+00 0. -1.
         -2   -1    0    0    0  501 -0.00000000000E+00 -0.00000000000E+00 -0.84694518654E+02  0.84694518654E+02  0.00000000000E+00 0.  1.
         25    2    1    2    0    0 -0.25718375308E+02 -0.45357922983E+02  0.23116754159E+02  0.13747847961E+03  0.12508865667E+03 0.  0.
         23    2    1    2    0    0  0.25718375308E+02  0.45357922983E+02  0.73053384871E+02  0.12808069673E+03  0.91373364983E+02 0.  0.
          5    1    3    3  502    0 -0.46012694693E+02 -0.80655855566E+02  0.25784075876E+02  0.96461526417E+02  0.41800000000E+01 0.  1.
         -5    1    3    3    0  502  0.20294319384E+02  0.35297932582E+02 -0.26673217168E+01  0.41016953190E+02  0.41800000000E+01 0.  1.
        -11    1    4    4    0    0 -0.13311162519E+02  0.56105375933E+01 -0.16926729982E+02  0.22252626083E+02  0.00000000000E+00 0.  1.
         11    1    4    4    0    0  0.39029537827E+02  0.39747385390E+02  0.89980114853E+02  0.10582807065E+03  0.00000000000E+00 0. -1.
</event>
<event>
 8    1  0.6627806E-009  0.1255258E+03  0.7561462E-02  0.1234250E+00
         -1   -1    0    0    0  501 -0.00000000000E+00  0.00000000000E+00  0.18837194793E+03  0.18837194793E+03  0.00000000000E+00 0.  1.
          1   -1    0    0  501    0  0.00000000000E+00 -0.00000000000E+00 -0.11455785433E+03  0.11455785433E+03  0.00000000000E+00 0. -1.
         25    2    1    2    0    0 -0.33861366764E+02  0.72746659087E+02  0.95675311452E+02  0.17675121385E+03  0.12509419574E+03 0.  0.
         23    2    1    2    0    0  0.33861366764E+02 -0.72746659087E+02 -0.21861217859E+02  0.12617858841E+03  0.94891805545E+02 0.  0.
          5    1    3    3  502    0  0.49347895154E+01  0.95925188001E+02  0.38048819424E+02  0.10339815714E+03  0.41800000000E+01 0. -1.
         -5    1    3    3    0  502 -0.38796156280E+02 -0.23178528914E+02  0.57626492028E+02  0.73353056706E+02  0.41800000000E+01 0. -1.
        -11    1    4    4    0    0 -0.32860229764E+00  0.15179700537E+02 -0.27774481112E+02  0.31653642585E+02  0.00000000000E+00 0. -1.
         11    1    4    4    0    0  0.34189969062E+02 -0.87926359624E+02  0.59132632529E+01  0.94524945826E+02  0.00000000000E+00 0.  1.
</event>
<event>
 8    1  0.6627806E-009  0.1394856E+03  0.7561462E-02  0.1214023E+00
         -2   -1    0    0    0  501 -0.00000000000E+00  0.00000000000E+00  0.73340010858E+02  0.73340010858E+02  0.00000000000E+00 0.  1.
          2   -1    0    0  501    0  0.00000000000E+00 -0.00000000000E+00 -0.28068851101E+03  0.28068851101E+03  0.00000000000E+00 0. -1.
         25    2    1    2    0    0 -0.28846948639E+01  0.96218685950E+02 -0.12777906359E+03  0.20310976487E+03  0.12513884489E+03 0.  0.
         23    2    1    2    0    0  0.28846948639E+01 -0.96218685950E+02 -0.79569436557E+02  0.15091875700E+03  0.84727911516E+02 0.  0.
          5    1    3    3  502    0 -0.37960450650E+02  0.11196019599E+03 -0.86506729618E+02  0.14655022337E+03  0.41800000000E+01 0.  1.
         -5    1    3    3    0  502  0.35075755787E+02 -0.15741510045E+02 -0.41272333975E+02  0.56559541496E+02  0.41800000000E+01 0.  1.
        -11    1    4    4    0    0  0.35863736857E+02 -0.74017985989E+02 -0.74256077071E+02  0.11080990413E+03  0.00000000000E+00 0.  1.
         11    1    4    4    0    0 -0.32979041993E+02 -0.22200699961E+02 -0.53133594862E+01  0.40108852870E+02  0.00000000000E+00 0. -1.
</event>
<event>
 8    1  0.6627806E-009  0.1185284E+03  0.7561462E-02  0.1245545E+00
          1   -1    0    0  501    0  0.00000000000E+00  0.00000000000E+00  0.85758807612E+02  0.85758807612E+02  0.00000000000E+00 0. -1.
         -1   -1    0    0    0  501 -0.00000000000E+00 -0.00000000000E+00 -0.29124970891E+03  0.29124970891E+03  0.00000000000E+00 0.  1.
         25    2    1    2    0    0 -0.51318477035E+01  0.83161862475E+02 -0.17078227569E+02  0.15126541898E+03  0.12508928768E+03 0.  0.
         23    2    1    2    0    0  0.51318477035E+01 -0.83161862475E+02 -0.18841267373E+03  0.22574309754E+03  0.92295066135E+02 0.  0.
          5    1    3    3  502    0 -0.51697352813E+02  0.66198318372E+01  0.17503013491E+02  0.55138610271E+02  0.41800000000E+01 0.  1.
         -5    1    3    3    0  502  0.46565505109E+02  0.76542030638E+02 -0.34581241060E+02  0.96126808714E+02  0.41800000000E+01 0.  1.
        -11    1    4    4    0    0  0.23678301879E+02 -0.26888930108E+02 -0.92013325070E+01  0.36991094363E+02  0.00000000000E+00 0. -1.
         11    1    4    4    0    0 -0.18546454176E+02 -0.56272932367E+02 -0.17921134123E+03  0.18875200318E+03  0.00000000000E+00 0.  1.
</event>
<event>
 8    1  0.6627806E-009  0.1474076E+03  0.7561462E-02  0.1203695E+00
          4   -1    0    0  501    0  0.00000000000E+00  0.00000000000E+00  0.93545123732E+02  0.93545123732E+02  0.00000000000E+00 0. -1.
         -4   -1    0    0    0  501 -0.00000000000E+00 -0.00000000000E+00 -0.28432158391E+03  0.28432158391E+03  0.00000000000E+00 0.  1.
         25    2    1    2    0    0 -0.67018454335E+02 -0.10072259972E+03 -0.10982361346E+03  0.20578850297E+03  0.12510462247E+03 0.  0.
         23    2    1    2    0    0  0.67018454335E+02  0.10072259972E+03 -0.80952846718E+02  0.17207820468E+03  0.91766169239E+02 0.  0.
          5    1    3    3  502    0 -0.28759361770E+02 -0.11019444423E+03 -0.31865709404E+02  0.11833347906E+03  0.41800000000E+01 0.  1.
         -5    1    3    3    0  502 -0.38259092564E+02  0.94718445147E+01 -0.77957904055E+02  0.87455023909E+02  0.41800000000E+01 0.  1.
        -11    1    4    4    0    0  0.67332722290E+02  0.35731887195E+02 -0.74799309283E+02  0.10679606698E+03  0.00000000000E+00 0.  1.
         11    1    4    4    0    0 -0.31426795554E+00  0.64990712525E+02 -0.61535374348E+01  0.65282137694E+02  0.00000000000E+00 0. -1.
</event>
<event>
 8    1  0.6627806E-009  0.1043023E+03  0.7561462E-02  0.1271500E+00
         -2   -1    0    0    0  501 -0.00000000000E+00  0.00000000000E+00  0.10920406776E+02  0.10920406776E+02  0.00000000000E+00 0. -1.
          2   -1    0    0  501    0  0.00000000000E+00 -0.00000000000E+00 -0.11704746948E+04  0.11704746948E+04  0.00000000000E+00 0.  1.
         25    2    1    2    0    0  0.61835912026E+01  0.80379393389E+01 -0.82151033654E+03  0.83104150447E+03  0.12509158182E+03 0.  0.
         23    2    1    2    0    0 -0.61835912026E+01 -0.80379393389E+01 -0.33804395147E+03  0.35035359709E+03  0.91493631473E+02 0.  0.
          5    1    3    3  502    0 -0.53468917484E+02 -0.21233693424E+02 -0.32378761058E+03  0.32888551813E+03  0.41800000000E+01 0.  1.
         -5    1    3    3    0  502  0.59652508687E+02  0.29271632763E+02 -0.49772272597E+03  0.50215598634E+03  0.41800000000E+01 0.  1.
        -11    1    4    4    0    0  0.38463803472E+02 -0.96899237920E+01 -0.23066639688E+03  0.23405201442E+03  0.00000000000E+00 0.  1.
         11    1    4    4    0    0 -0.44647394675E+02  0.16519844531E+01 -0.10737755459E+03  0.11630158268E+03  0.00000000000E+00 0. -1.
</event>
<event>
 8    1  0.6627806E-009  0.1239735E+03  0.7561462E-02  0.1236682E+00
         -1   -1    0    0    0  501 -0.00000000000E+00  0.00000000000E+00  0.52946119099E+02  0.52946119099E+02  0.00000000000E+00 0. -1.
          1   -1    0    0  501    0  0.00000000000E+00 -0.00000000000E+00 -0.51170443089E+03  0.51170443089E+03  0.00000000000E+00 0.  1.
         25    2    1    2    0    0  0.86704374592E+02 -0.95606048479E+01 -0.95137819060E+02  0.17974712734E+03  0.12509504960E+03 0.  0.
         23    2    1    2    0    0 -0.86704374592E+02  0.95606048479E+01 -0.36362049273E+03  0.38490342265E+03  0.91223507358E+02 0.  0.
          5    1    3    3  502    0  0.94181854021E+02  0.28137004380E+02 -0.28027026095E+02  0.10229809008E+03  0.41800000000E+01 0. -1.
         -5    1    3    3    0  502 -0.74774794295E+01 -0.37697609228E+02 -0.67110792965E+02  0.77449037260E+02  0.41800000000E+01 0. -1.
        -11    1    4    4    0    0 -0.22063508204E+01  0.24923620685E+02 -0.24285553794E+02  0.34868939977E+02  0.00000000000E+00 0. -1.
         11    1    4    4    0    0 -0.84498023771E+02 -0.15363015837E+02 -0.33933493894E+03  0.35003448268E+03  0.00000000000E+00 0.  1.
</event>
<event>
 8    1  0.6627806E-009  0.1940936E+03  0.7561462E-02  0.1154820E+00
         -2   -1    0    0    0  501 -0.00000000000E+00  0.00000000000E+00  0.38606840263E+02  0.38606840263E+02  0.00000000000E+00 0.  1.
          2   -1    0    0  501    0  0.00000000000E+00 -0.00000000000E+00 -0.12193019136E+04  0.12193019136E+04  0.00000000000E+00 0. -1.
         25    2    1    2    0    0  0.12373255957E+03 -0.13265603338E+03 -0.47620780177E+03  0.52471873848E+03  0.12509402288E+03 0.  0.
         23    2    1    2    0    0 -0.12373255957E+03  0.13265603338E+03 -0.70448727158E+03  0.73319001539E+03  0.91421624166E+02 0.  0.
          5    1    3    3  502    0  0.60885372469E+01 -0.34741726030E+02 -0.14640321891E+02  0.38417043593E+02  0.41800000000E+01 0. -1.
         -5    1    3    3    0  502  0.11764402232E+03 -0.97914307350E+02 -0.46156747988E+03  0.48630169489E+03  0.41800000000E+01 0. -1.
        -11    1    4    4    0    0 -0.11405784956E+02 -0.11900823829E+02 -0.29236801015E+02  0.33563552730E+02  0.00000000000E+00 0. -1.
         11    1    4    4    0    0 -0.11232677461E+03  0.14455685721E+03 -0.67525047056E+03  0.69962646266E+03  0.00000000000E+00 0.  1.
</event>
<event>
 8    1  0.6627806E-009  0.1032232E+03  0.7561462E-02  0.1273660E+00
          2   -1    0    0  501    0  0.00000000000E+00  0.00000000000E+00  0.19662742424E+03  0.19662742424E+03  0.00000000000E+00 0. -1.
         -2   -1    0    0    0  501 -0.00000000000E+00 -0.00000000000E+00 -0.70193837399E+02  0.70193837399E+02  0.00000000000E+00 0.  1.
         25    2    1    2    0    0  0.12171049964E+02  0.16409517028E+02  0.11263637628E+03  0.16956570822E+03  0.12509264341E+03 0.  0.
         23    2    1    2    0    0 -0.12171049964E+02 -0.16409517028E+02  0.13797210557E+02  0.97255553417E+02  0.94079078147E+02 0.  0.
          5    1    3    3  502    0  0.45769867156E+02  0.52042301736E+02  0.94300121166E+02  0.11710365990E+03  0.41800000000E+01 0.  1.
         -5    1    3    3    0  502 -0.33598817191E+02 -0.35632784708E+02  0.18336255119E+02  0.52462048325E+02  0.41800000000E+01 0.  1.
        -11    1    4    4    0    0  0.10505379726E+02 -0.47909692561E+02  0.27332819309E+02  0.56149663007E+02  0.00000000000E+00 0.  1.
         11    1    4    4    0    0 -0.22676429691E+02  0.31500175533E+02 -0.13535608752E+02  0.41105890410E+02  0.00000000000E+00 0. -1.
</event>
<event>
 8    1  0.6627806E-009  0.1637669E+03  0.7561462E-02  0.1184508E+00
         -2   -1    0    0    0  501 -0.00000000000E+00  0.00000000000E+00  0.19318148619E+03  0.19318148619E+03  0.00000000000E+00 0.  1.
          2   -1    0    0  501    0  0.00000000000E+00 -0.00000000000E+00 -0.19778660189E+03  0.19778660189E+03  0.00000000000E+00 0. -1.
         25    2    1    2    0    0  0.32252785555E+02  0.13220941946E+03 -0.90018315665E+02  0.20559756445E+03  0.12508992198E+03 0.  0.
         23    2    1    2    0    0 -0.32252785555E+02 -0.13220941946E+03  0.85413199966E+02  0.18537052364E+03  0.92451303591E+02 0.  0.
          5    1    3    3  502    0 -0.37402438089E+02  0.17257763510E+02  0.38803283412E+01  0.41584878555E+02  0.41800000000E+01 0.  1.
         -5    1    3    3    0  502  0.69655223644E+02  0.11495165595E+03 -0.93898644006E+02  0.16401268589E+03  0.41800000000E+01 0.  1.
        -11    1    4    4    0    0  0.20487526883E+02 -0.26263064401E+02 -0.83983273948E+01  0.34351407723E+02  0.00000000000E+00 0. -1.
         11    1    4    4    0    0 -0.52740312437E+02 -0.10594635506E+03  0.93811527361E+02  0.15101911592E+03  0.00000000000E+00 0.  1.
</event>
<event>
 8    1  0.6627806E-009  0.9943316E+02  0.7561462E-02  0.1281492E+00
         -1   -1    0    0    0  501 -0.00000000000E+00  0.00000000000E+00  0.75826147170E+02  0.75826147170E+02  0.00000000000E+00 0.  1.
          1   -1    0    0  501    0  0.00000000000E+00 -0.00000000000E+00 -0.25115950023E+03  0.25115950023E+03  0.00000000000E+00 0. -1.
         25    2    1    2    0    0 -0.58304254851E+02  0.11819331772E+02 -0.23559507532E+02  0.14050573526E+03  0.12509088100E+03 0.  0.
         23    2    1    2    0    0  0.58304254851E+02 -0.11819331772E+02 -0.15177384553E+03  0.18647991214E+03  0.90555920341E+02 0.  0.
          5    1    3    3  502    0 -0.40353514136E+02  0.41550548529E+02  0.38212829198E+02  0.69516522507E+02  0.41800000000E+01 0. -1.
         -5    1    3    3    0  502 -0.17950740715E+02 -0.29731216757E+02 -0.61772336730E+02  0.70989212752E+02  0.41800000000E+01 0. -1.
        -11    1    4    4    0    0  0.18794946341E+02  0.37902178304E+02 -0.41722089805E+02  0.59418498011E+02  0.00000000000E+00 0.  1.
         11    1    4    4    0    0  0.39509308511E+02 -0.49721510076E+02 -0.11005175572E+03  0.12706141413E+03  0.00000000000E+00 0. -1.
</event>
<event>
 8    1  0.6627806E-009  0.1395273E+03  0.7561462E-02  0.1213966E+00
          1   -1    0    0  501    0  0.00000000000E+00  0.00000000000E+00  0.40146619119E+03  0.40146619119E+03  0.00000000000E+00 0. -1.
         -1   -1    0    0    0  501 -0.00000000000E+00 -0.00000000000E+00 -0.53391190793E+02  0.53391190793E+02  0.00000000000E+00 0.  1.
         25    2    1    2    0    0 -0.37902449348E+02 -0.85662844227E+02  0.23485532121E+03  0.28209709344E+03  0.12508808768E+03 0.  0.
         23    2    1    2    0    0  0.37902449348E+02  0.85662844227E+02  0.11321967919E+03  0.17276028854E+03  0.90844388901E+02 0.  0.
          5    1    3    3  502    0 -0.64392645330E+02 -0.22875774025E+01  0.68753777160E+02  0.94319669511E+02  0.41800000000E+01 0.  1.
         -5    1    3    3    0  502  0.26490195982E+02 -0.83375266824E+02  0.16610154405E+03  0.18777742393E+03  0.41800000000E+01 0.  1.
        -11    1    4    4    0    0  0.56470172088E+02  0.22026437615E+02  0.34124496216E+02  0.69559510720E+02  0.00000000000E+00 0. -1.
         11    1    4    4    0    0 -0.18567722739E+02  0.63636406611E+02  0.79095182971E+02  0.10320077782E+03  0.00000000000E+00 0.  1.
</event>
<event>
 8    1  0.6627806E-009  0.1499773E+03  0.7561462E-02  0.1200501E+00
          2   -1    0    0  501    0  0.00000000000E+00  0.00000000000E+00  0.65978638739E+02  0.65978638739E+02  0.00000000000E+00 0. -1.
         -2   -1    0    0    0  501 -0.00000000000E+00 -0.00000000000E+00 -0.37600926499E+03  0.37600926499E+03  0.00000000000E+00 0.  1.
         25    2    1    2    0    0  0.55645559249E+02 -0.88664258914E+02 -0.22887008085E+03  0.28104646422E+03  0.12509125496E+03 0.  0.
         23    2    1    2    0    0 -0.55645559249E+02  0.88664258914E+02 -0.81160545397E+02  0.16094143951E+03  0.91418454092E+02 0.  0.
          5    1    3    3  502    0 -0.56904218343E+01 -0.10029516937E+03 -0.14118725461E+03  0.17332863343E+03  0.41800000000E+01 0. -1.
         -5    1    3    3    0  502  0.61335981083E+02  0.11630910460E+02 -0.87682826242E+02  0.10771783080E+03  0.41800000000E+01 0. -1.
        -11    1    4    4    0    0 -0.44187936430E+02  0.10669273921E+03 -0.77981314892E+02  0.13934489513E+03  0.00000000000E+00 0.  1.
         11    1    4    4    0    0 -0.11457622819E+02 -0.18028480297E+02 -0.31792305056E+01  0.21596544378E+02  0.00000000000E+00 0. -1.
</event>
<event>
 8    1  0.6627806E-009  0.1113440E+03  0.7561462E-02  0.1258101E+00
          2   -1    0    0  501    0  0.00000000000E+00  0.00000000000E+00  0.16512628323E+03  0.16512628323E+03  0.00000000000E+00 0. -1.
         -2   -1    0    0    0  501 -0.00000000000E+00 -0.00000000000E+00 -0.10547608297E+03  0.10547608297E+03  0.00000000000E+00 0.  1.
         25    2    1    2    0    0  0.25500591127E+02  0.64543098238E+02  0.66727276611E+02  0.15784914844E+03  0.12509089711E+03 0.  0.
         23    2    1    2    0    0 -0.25500591127E+02 -0.64543098238E+02 -0.70770763482E+01  0.11275321777E+03  0.88583923086E+02 0.  0.
          5    1    3    3  502    0  0.74639891555E+02  0.22016355755E+02  0.36337536594E+02  0.85986756526E+02  0.41800000000E+01 0.  1.
         -5    1    3    3    0  502 -0.49139300428E+02  0.42526742484E+02  0.30389740016E+02  0.71862391910E+02  0.41800000000E+01 0.  1.
        -11    1    4    4    0    0  0.68123404803E+01 -0.35632355036E+02  0.36371881132E+02  0.51371066227E+02  0.00000000000E+00 0. -1.
         11    1    4    4    0    0 -0.32312931608E+02 -0.28910743202E+02 -0.43448957480E+02  0.61382151540E+02  0.00000000000E+00 0.  1.
</event>
<event>
 8    1  0.6627806E-009  0.1072875E+03  0.7561462E-02  0.1265677E+00
         -1   -1    0    0    0  501 -0.00000000000E+00  0.00000000000E+00  0.26014287106E+02  0.26014287106E+02  0.00000000000E+00 0.  1.
          1   -1    0    0  501    0  0.00000000000E+00 -0.00000000000E+00 -0.78234092834E+03  0.78234092834E+03  0.00000000000E+00 0. -1.
         25    2    1    2    0    0  0.66412229815E+02 -0.24944648884E+02 -0.58666247853E+03  0.60403040984E+03  0.12508817895E+03 0.  0.
         23    2    1    2    0    0 -0.66412229815E+02  0.24944648884E+02 -0.16966416270E+03  0.20432480560E+03  0.89049864147E+02 0.  0.
          5    1    3    3  502    0  0.96874659413E+02  0.57802065202E+01 -0.45915123161E+03  0.46931379301E+03  0.41800000000E+01 0. -1.
         -5    1    3    3    0  502 -0.30462429598E+02 -0.30724855404E+02 -0.12751124693E+03  0.13471661683E+03  0.41800000000E+01 0. -1.
        -11    1    4    4    0    0 -0.46338086168E+02  0.66549307839E+01 -0.17850517036E+02  0.50101370160E+02  0.00000000000E+00 0.  1.
         11    1    4    4    0    0 -0.20074143647E+02  0.18289718100E+02 -0.15181364566E+03  0.15422343544E+03  0.00000000000E+00 0. -1.
</event>
<event>
 8    1  0.6627806E-009  0.1241031E+03  0.7561462E-02  0.1236478E+00
         -3   -1    0    0    0  501 -0.00000000000E+00  0.00000000000E+00  0.30448347793E+03  0.30448347793E+03  0.00000000000E+00 0.  1.
          3   -1    0    0  501    0  0.00000000000E+00 -0.00000000000E+00 -0.51544601280E+02  0.51544601280E+02  0.00000000000E+00 0. -1.
         25    2    1    2    0    0  0.22107021382E+02  0.20812581046E+02  0.11392230818E+03  0.17189398844E+03  0.12508943615E+03 0.  0.
         23    2    1    2    0    0 -0.22107021382E+02 -0.20812581046E+02  0.13901656847E+03  0.18413409077E+03  0.11686690358E+03 0.  0.
          5    1    3    3  502    0 -0.50230268023E+02  0.24051535730E+02  0.43381305364E+02  0.70717510220E+02  0.41800000000E+01 0.  1.
         -5    1    3    3    0  502  0.72337289405E+02 -0.32389546836E+01  0.70541002820E+02  0.10117647822E+03  0.41800000000E+01 0.  1.
        -11    1    4    4    0    0  0.15681439246E+02  0.42941834676E+02  0.64306200691E+02  0.78899912227E+02  0.00000000000E+00 0.  1.
         11    1    4    4    0    0 -0.37788460628E+02 -0.63754415722E+02  0.74710367775E+02  0.10523417854E+03  0.00000000000E+00 0. -1.
</event>
<event>
 8    1  0.6627806E-009  0.9322802E+02  0.7561462E-02  0.1295218E+00
          2   -1    0    0  501    0  0.00000000000E+00  0.00000000000E+00  0.95477840859E+03  0.95477840859E+03  0.00000000000E+00 0. -1.
         -2   -1    0    0    0  501 -0.00000000000E+00 -0.00000000000E+00 -0.14445846679E+02  0.14445846679E+02  0.00000000000E+00 0.  1.
         25    2    1    2    0    0 -0.40104282868E+02  0.62418102959E+01  0.47285100570E+03  0.49079749830E+03  0.12508715779E+03 0.  0.
         23    2    1    2    0    0  0.40104282868E+02 -0.62418102959E+01  0.46748155621E+03  0.47842675697E+03  0.93305105371E+02 0.  0.
          5    1    3    3  502    0  0.21966877185E+02  0.87549291252E+01  0.36851062265E+03  0.36929222018E+03  0.41800000000E+01 0. -1.
         -5    1    3    3    0  502 -0.62071160053E+02 -0.25131188293E+01  0.10434038305E+03  0.12150527813E+03  0.41800000000E+01 0. -1.
        -11    1    4    4    0    0 -0.22326988312E+02 -0.26399397562E+02  0.12368366236E+03  0.12842535160E+03  0.00000000000E+00 0.  1.
         11    1    4    4    0    0  0.62431271181E+02  0.20157587266E+02  0.34379789385E+03  0.35000140537E+03  0.00000000000E+00 0. -1.
</event>
<event>
 8    1  0.6627806E-009  0.4269448E+02  0.7561462E-02  0.1489270E+00
          2   -1    0    0  501    0  0.00000000000E+00  0.00000000000E+00  0.14014501258E+03  0.14014501258E+03  0.00000000000E+00 0. -1.
         -2   -1    0    0    0  501 -0.00000000000E+00 -0.00000000000E+00 -0.94138702222E+02  0.94138702222E+02  0.00000000000E+00 0.  1.
         25    2    1    2    0    0  0.99236403785E+01 -0.16495035661E+02 -0.40061232684E+01  0.12662027066E+03  0.12508428790E+03 0.  0.
         23    2    1    2    0    0 -0.99236403785E+01  0.16495035661E+02  0.50012433632E+02  0.10766344415E+03  0.93378845826E+02 0.  0.
          5    1    3    3  502    0  0.21938045415E+02 -0.49488222447E+01 -0.62026497040E+02  0.66109964553E+02  0.41800000000E+01 0.  1.
         -5    1    3    3    0  502 -0.12014405036E+02 -0.11546213416E+02  0.58020373771E+02  0.60510306107E+02  0.41800000000E+01 0.  1.
        -11    1    4    4    0    0  0.31027412526E+01  0.27869425892E+02 -0.20708162851E+02  0.34859143872E+02  0.00000000000E+00 0.  1.
         11    1    4    4    0    0 -0.13026381631E+02 -0.11374390231E+02  0.70720596483E+02  0.72804300274E+02  0.00000000000E+00 0. -1.
</event>
<event>
 8    1  0.6627806E-009  0.1551929E+03  0.7561462E-02  0.1194233E+00
         -1   -1    0    0    0  501 -0.00000000000E+00  0.00000000000E+00  0.13101906351E+03  0.13101906351E+03  0.00000000000E+00 0.  1.
          1   -1    0    0  501    0  0.00000000000E+00 -0.00000000000E+00 -0.20319883663E+03  0.20319883663E+03  0.00000000000E+00 0. -1.
         25    2    1    2    0    0  0.11781484737E+03  0.15285607331E+02 -0.63377756422E+02  0.18378817339E+03  0.12508942648E+03 0.  0.
         23    2    1    2    0    0 -0.11781484737E+03 -0.15285607331E+02 -0.88020166929E+01  0.15042972675E+03  0.91856622730E+02 0.  0.
          5    1    3    3  502    0 -0.23801674215E+02  0.14351779955E+02 -0.23406811503E+02  0.36576556810E+02  0.41800000000E+01 0.  1.
         -5    1    3    3    0  502  0.14161652158E+03  0.93382737538E+00 -0.39970944919E+02  0.14721161658E+03  0.41800000000E+01 0.  1.
        -11    1    4    4    0    0 -0.87867617497E+02  0.24107124152E+02 -0.30933579271E+02  0.96222440033E+02  0.00000000000E+00 0. -1.
         11    1    4    4    0    0 -0.29947229870E+02 -0.39392731483E+02  0.22131562578E+02  0.54207286713E+02  0.00000000000E+00 0.  1.
</event>
<event>
 8    1  0.6627806E-009  0.2418159E+03  0.7561462E-02  0.1118589E+00
         -2   -1    0    0    0  501 -0.00000000000E+00  0.00000000000E+00  0.11549955302E+03  0.11549955302E+03  0.00000000000E+00 0.  1.
          2   -1    0    0  501    0  0.00000000000E+00 -0.00000000000E+00 -0.61839142730E+03  0.61839142730E+03  0.00000000000E+00 0. -1.
         25    2    1    2    0    0 -0.19883748941E+03 -0.12449327601E+03 -0.16684669385E+03  0.31387437591E+03  0.12507750252E+03 0.  0.
         23    2    1    2    0    0  0.19883748941E+03  0.12449327601E+03 -0.33604518042E+03  0.42001660441E+03  0.91938358292E+02 0.  0.
          5    1    3    3  502    0 -0.17037594073E+03 -0.10412618884E+03 -0.71351294140E+02  0.21208183316E+03  0.41800000000E+01 0.  1.
         -5    1    3    3    0  502 -0.28461548683E+02 -0.20367087168E+02 -0.95495399713E+02  0.10179254275E+03  0.41800000000E+01 0.  1.
        -11    1    4    4    0    0  0.17506743141E+03  0.13653987847E+03 -0.27519709153E+03  0.35358900314E+03  0.00000000000E+00 0.  1.
         11    1    4    4    0    0  0.23770058001E+02 -0.12046602466E+02 -0.60848088891E+02  0.66427601267E+02  0.00000000000E+00 0. -1.
</event>
<event>
 8    1  0.6627806E-009  0.1480001E+03  0.7561462E-02  0.1202952E+00
          2   -1    0    0  501    0  0.00000000000E+00  0.00000000000E+00  0.31855608470E+03  0.31855608470E+03  0.00000000000E+00 0.  1.
         -2   -1    0    0    0  501 -0.00000000000E+00 -0.00000000000E+00 -0.78498031956E+02  0.78498031956E+02  0.00000000000E+00 0. -1.
         25    2    1    2    0    0  0.85008878550E+02  0.77400124338E+02  0.12957352625E+03  0.21366753575E+03  0.12508888220E+03 0.  0.
         23    2    1    2    0    0 -0.85008878550E+02 -0.77400124338E+02  0.11048452650E+03  0.18338658091E+03  0.90589838180E+02 0.  0.
          5    1    3    3  502    0  0.10956159526E+02 -0.31716220867E+02  0.47424085610E+02  0.58244934489E+02  0.41800000000E+01 0. -1.
         -5    1    3    3    0  502  0.74052719024E+02  0.10911634521E+03  0.82149440635E+02  0.15542260126E+03  0.41800000000E+01 0. -1.
        -11    1    4    4    0    0 -0.29246609413E+02  0.60650502755E+01  0.68221506188E+02  0.74473638984E+02  0.00000000000E+00 0.  1.
         11    1    4    4    0    0 -0.55762269137E+02 -0.83465174614E+02  0.42263020310E+02  0.10891294192E+03  0.00000000000E+00 0. -1.
</event>
<event>
 8    1  0.6627806E-009  0.5556963E+02  0.7561462E-02  0.1417424E+00
          1   -1    0    0  501    0  0.00000000000E+00  0.00000000000E+00  0.29004944722E+03  0.29004944722E+03  0.00000000000E+00 0. -1.
         -1   -1    0    0    0  501 -0.00000000000E+00 -0.00000000000E+00 -0.42194242143E+02  0.42194242143E+02  0.00000000000E+00 0.  1.
         25    2    1    2    0    0 -0.94909813481E+01 -0.32353946026E+01  0.14827983084E+03  0.19425305779E+03  0.12508715250E+03 0.  0.
         23    2    1    2    0    0  0.94909813481E+01  0.32353946026E+01  0.99575374233E+02  0.13799063157E+03  0.95003224904E+02 0.  0.
          5    1    3    3  502    0 -0.30442303714E+02  0.43478310068E+01 -0.11332816876E+02  0.33038502209E+02  0.41800000000E+01 0.  1.
         -5    1    3    3    0  502  0.20951322366E+02 -0.75832256095E+01  0.15961264772E+03  0.16121455558E+03  0.41800000000E+01 0.  1.
        -11    1    4    4    0    0  0.33088854407E+02  0.61578166462E+01  0.10772053001E+03  0.11285611892E+03  0.00000000000E+00 0. -1.
         11    1    4    4    0    0 -0.23597873059E+02 -0.29224220436E+01 -0.81451557783E+01  0.25134512650E+02  0.00000000000E+00 0.  1.
</event>
<event>
 8    1  0.6627806E-009  0.1444190E+03  0.7561462E-02  0.1207504E+00
         -1   -1    0    0    0  501 -0.00000000000E+00  0.00000000000E+00  0.12939006392E+03  0.12939006392E+03  0.00000000000E+00 0.  1.
          1   -1    0    0  501    0  0.00000000000E+00 -0.00000000000E+00 -0.22808201764E+03  0.22808201764E+03  0.00000000000E+00 0. -1.
         25    2    1    2    0    0  0.78621477819E+02  0.75349070333E+02  0.28900000428E+02  0.16834977669E+03  0.12509043974E+03 0.  0.
         23    2    1    2    0    0 -0.78621477819E+02 -0.75349070333E+02 -0.12759195414E+03  0.18912230487E+03  0.87342545554E+02 0.  0.
          5    1    3    3  502    0  0.79734743129E+02 -0.87386768035E+01  0.24753478461E+02  0.84048800289E+02  0.41800000000E+01 0.  1.
         -5    1    3    3    0  502 -0.11132653104E+01  0.84087747137E+02  0.41465219662E+01  0.84300976403E+02  0.41800000000E+01 0.  1.
        -11    1    4    4    0    0 -0.29852017902E+02  0.50573905591E+01  0.42024157437E+00  0.30280303418E+02  0.00000000000E+00 0. -1.
         11    1    4    4    0    0 -0.48769459917E+02 -0.80406460892E+02 -0.12801219572E+03  0.15884200145E+03  0.00000000000E+00 0.  1.
</event>
<event>
 8    1  0.6627806E-009  0.1106328E+03  0.7561462E-02  0.1259403E+00
          2   -1    0    0  501    0  0.00000000000E+00  0.00000000000E+00  0.55454733680E+03  0.55454733680E+03  0.00000000000E+00 0. -1.
         -2   -1    0    0    0  501 -0.00000000000E+00 -0.00000000000E+00 -0.24270770950E+02  0.24270770950E+02  0.00000000000E+00 0.  1.
         25    2    1    2    0    0 -0.24250254801E+02  0.23921651027E+02  0.35535492586E+03  0.37826549593E+03  0.12508933542E+03 0.  0.
         23    2    1    2    0    0  0.24250254801E+02 -0.23921651027E+02  0.17492163999E+03  0.20055261182E+03  0.91997009320E+02 0.  0.
          5    1    3    3  502    0  0.32445346410E+02  0.55260235137E+02  0.19351585022E+03  0.20389274332E+03  0.41800000000E+01 0.  1.
         -5    1    3    3    0  502 -0.56695601211E+02 -0.31338584110E+02  0.16183907564E+03  0.17437275262E+03  0.41800000000E+01 0.  1.
        -11    1    4    4    0    0 -0.29753267243E+02  0.60614604548E+01  0.93794360490E+02  0.98586917358E+02  0.00000000000E+00 0. -1.
         11    1    4    4    0    0  0.54003522044E+02 -0.29983111482E+02  0.81127279499E+02  0.10196569446E+03  0.00000000000E+00 0.  1.
</event>
<event>
 8    1  0.6627806E-009  0.8467968E+02  0.7561462E-02  0.1316272E+00
          2   -1    0    0  501    0  0.00000000000E+00  0.00000000000E+00  0.28637776668E+02  0.28637776668E+02  0.00000000000E+00 0. -1.
         -2   -1    0    0    0  501 -0.00000000000E+00 -0.00000000000E+00 -0.54049191299E+03  0.54049191299E+03  0.00000000000E+00 0.  1.
         25    2    1    2    0    0  0.46660402298E+02 -0.52168118307E+01 -0.37999472119E+03  0.40279305339E+03  0.12506737168E+03 0.  0.
         23    2    1    2    0    0 -0.46660402298E+02  0.52168118307E+01 -0.13185941513E+03  0.16633663627E+03  0.89869699777E+02 0.  0.
          5    1    3    3  502    0  0.34766432569E+01  0.40619441613E+02 -0.40987497208E+02  0.57960964559E+02  0.41800000000E+01 0.  1.
         -5    1    3    3    0  502  0.43183759041E+02 -0.45836253443E+02 -0.33900722398E+03  0.34483208883E+03  0.41800000000E+01 0.  1.
        -11    1    4    4    0    0 -0.37966799944E+02 -0.16856739077E+02 -0.10727566579E+02  0.42903475792E+02  0.00000000000E+00 0. -1.
         11    1    4    4    0    0 -0.86936023532E+01  0.22073550908E+02 -0.12113184855E+03  0.12343316047E+03  0.00000000000E+00 0.  1.
</event>
<event>
 8    1  0.6627806E-009  0.9409065E+02  0.7561462E-02  0.1293237E+00
          1   -1    0    0  501    0  0.00000000000E+00  0.00000000000E+00  0.11144363285E+03  0.11144363285E+03  0.00000000000E+00 0. -1.
         -1   -1    0    0    0  501 -0.00000000000E+00 -0.00000000000E+00 -0.20083584855E+03  0.20083584855E+03  0.00000000000E+00 0.  1.
         25    2    1    2    0    0 -0.71389533231E+02  0.12017995093E+02  0.30318176930E+02  0.14767210876E+03  0.12508781792E+03 0.  0.
         23    2    1    2    0    0  0.71389533231E+02 -0.12017995093E+02 -0.11971039263E+03  0.16460737264E+03  0.86741635700E+02 0.  0.
          5    1    3    3  502    0 -0.77074620768E+02  0.24063408280E+02 -0.29637450375E+02  0.86112691569E+02  0.41800000000E+01 0. -1.
         -5    1    3    3    0  502  0.56850875370E+01 -0.12045413187E+02  0.59955627305E+02  0.61559417189E+02  0.41800000000E+01 0. -1.
        -11    1    4    4    0    0  0.42741028653E+02  0.22669605574E+02 -0.15018248806E+02  0.50658211027E+02  0.00000000000E+00 0. -1.
         11    1    4    4    0    0  0.28648504577E+02 -0.34687600667E+02 -0.10469214383E+03  0.11394916162E+03  0.00000000000E+00 0.  1.
</event>
<event>
 8    1  0.6627806E-009  0.2696188E+03  0.7561462E-02  0.1101498E+00
          2   -1    0    0  501    0  0.00000000000E+00  0.00000000000E+00  0.65382734971E+03  0.65382734971E+03  0.00000000000E+00 0.  1.
         -2   -1    0    0    0  501 -0.00000000000E+00 -0.00000000000E+00 -0.13726201150E+03  0.13726201150E+03  0.00000000000E+00 0. -1.
         25    2    1    2    0    0 -0.19214157528E+03 -0.17917578503E+03  0.14079612261E+03  0.32325531308E+03  0.12509237548E+03 0.  0.
         23    2    1    2    0    0  0.19214157528E+03  0.17917578503E+03  0.37576921560E+03  0.46783404814E+03  0.92972287849E+02 0.  0.
          5    1    3    3  502    0 -0.95269655565E+02 -0.10163491445E+03  0.52841183680E+01  0.13946812329E+03  0.41800000000E+01 0.  1.
         -5    1    3    3    0  502 -0.96871919711E+02 -0.77540870581E+02  0.13551200424E+03  0.18378718979E+03  0.41800000000E+01 0.  1.
        -11    1    4    4    0    0  0.20384717000E+02  0.68307267415E+02  0.12900183162E+03  0.14738687876E+03  0.00000000000E+00 0. -1.
         11    1    4    4    0    0  0.17175685828E+03  0.11086851762E+03  0.24676738398E+03  0.32044716938E+03  0.00000000000E+00 0.  1.
</event>
<event>
 8    1  0.6627806E-009  0.1033569E+03  0.7561462E-02  0.1273391E+00
         -2   -1    0    0    0  501 -0.00000000000E+00  0.00000000000E+00  0.22753129532E+02  0.22753129532E+02  0.00000000000E+00 0. -1.
          2   -1    0    0  501    0  0.00000000000E+00 -0.00000000000E+00 -0.53536344261E+03  0.53536344261E+03  0.00000000000E+00 0.  1.
         25    2    1    2    0    0  0.10274473977E+02  0.12831531519E+02 -0.29455376818E+03  0.32043758816E+03  0.12509241600E+03 0.  0.
         23    2    1    2    0    0 -0.10274473977E+02 -0.12831531519E+02 -0.21805654490E+03  0.23767898399E+03  0.93125880598E+02 0.  0.
          5    1    3    3  502    0 -0.42394766624E+02  0.34792354467E+02 -0.21819207402E+03  0.22501794979E+03  0.41800000000E+01 0.  1.
         -5    1    3    3    0  502  0.52669240602E+02 -0.21960822948E+02 -0.76361694164E+02  0.95419638365E+02  0.41800000000E+01 0.  1.
        -11    1    4    4    0    0 -0.97291405618E+00 -0.53128494195E+02 -0.12718805431E+03  0.13784188266E+03  0.00000000000E+00 0.  1.
         11    1    4    4    0    0 -0.93015599212E+01  0.40296962675E+02 -0.90868490594E+02  0.99837101324E+02  0.00000000000E+00 0. -1.
</event>
<event>
 8    1  0.6627806E-009  0.1534204E+03  0.7561462E-02  0.1196332E+00
         -2   -1    0    0    0  501 -0.00000000000E+00  0.00000000000E+00  0.37998565144E+03  0.37998565144E+03  0.00000000000E+00 0.  1.
          2   -1    0    0  501    0  0.00000000000E+00 -0.00000000000E+00 -0.88483425688E+02  0.88483425688E+02  0.00000000000E+00 0. -1.
         25    2    1    2    0    0  0.11378670720E+03  0.55081357656E+02  0.25279036902E+03  0.30908122011E+03  0.12508740647E+03 0.  0.
         23    2    1    2    0    0 -0.11378670720E+03 -0.55081357656E+02  0.38711856731E+02  0.15938785702E+03  0.89019719259E+02 0.  0.
          5    1    3    3  502    0  0.53649624481E+02  0.92411410295E+02  0.15146747145E+03  0.18541310166E+03  0.41800000000E+01 0.  1.
         -5    1    3    3    0  502  0.60137082720E+02 -0.37330052639E+02  0.10132289757E+03  0.12366811844E+03  0.41800000000E+01 0.  1.
        -11    1    4    4    0    0 -0.57624333498E+02 -0.13680835303E+02  0.62085702870E+02  0.85804216484E+02  0.00000000000E+00 0.  1.
         11    1    4    4    0    0 -0.56162373704E+02 -0.41400522353E+02 -0.23373846139E+02  0.73583640536E+02  0.00000000000E+00 0. -1.
</event>
<event>
 8    1  0.6627806E-009  0.1945297E+03  0.7561462E-02  0.1154438E+00
         -2   -1    0    0    0  501 -0.00000000000E+00  0.00000000000E+00  0.12970058092E+03  0.12970058092E+03  0.00000000000E+00 0.  1.
          2   -1    0    0  501    0  0.00000000000E+00 -0.00000000000E+00 -0.35447612820E+03  0.35447612820E+03  0.00000000000E+00 0. -1.
         25    2    1    2    0    0 -0.17807792731E+03  0.12501440346E+02 -0.17255278908E+03  0.27800776363E+03  0.12508324195E+03 0.  0.
         23    2    1    2    0    0  0.17807792731E+03 -0.12501440346E+02 -0.52222758197E+02  0.20616894548E+03  0.88940336199E+02 0.  0.
          5    1    3    3  502    0 -0.60341961593E+02  0.35592044558E+02 -0.29855667332E+01  0.70244800331E+02  0.41800000000E+01 0.  1.
         -5    1    3    3    0  502 -0.11773596571E+03 -0.23090604213E+02 -0.16956722235E+03  0.20776296330E+03  0.41800000000E+01 0.  1.
        -11    1    4    4    0    0  0.10551992795E+03 -0.50431845379E+02 -0.38677513757E+02  0.12318188298E+03  0.00000000000E+00 0.  1.
         11    1    4    4    0    0  0.72557999352E+02  0.37930405033E+02 -0.13545244440E+02  0.82987062503E+02  0.00000000000E+00 0. -1.
</event>
<event>
 8    1  0.6627806E-009  0.9214355E+02  0.7561462E-02  0.1297742E+00
         -1   -1    0    0    0  501 -0.00000000000E+00  0.00000000000E+00  0.30662368624E+02  0.30662368624E+02  0.00000000000E+00 0.  1.
          1   -1    0    0  501    0  0.00000000000E+00 -0.00000000000E+00 -0.61885822701E+03  0.61885822701E+03  0.00000000000E+00 0. -1.
         25    2    1    2    0    0 -0.46456452321E+02 -0.68729706193E+02 -0.28145910184E+03  0.31898692544E+03  0.12510578770E+03 0.  0.
         23    2    1    2    0    0  0.46456452321E+02  0.68729706193E+02 -0.30673675655E+03  0.33053367020E+03  0.91011509382E+02 0.  0.
          5    1    3    3  502    0 -0.42178323966E+01 -0.23271948847E+02  0.60991738821E+01  0.24779952286E+02  0.41800000000E+01 0.  1.
         -5    1    3    3    0  502 -0.42238619924E+02 -0.45457757346E+02 -0.28755827572E+03  0.29420697315E+03  0.41800000000E+01 0.  1.
        -11    1    4    4    0    0  0.40918097399E+02  0.14268836492E+02 -0.24156833198E+03  0.24542442708E+03  0.00000000000E+00 0.  1.
         11    1    4    4    0    0  0.55383549223E+01  0.54460869701E+02 -0.65168424565E+02  0.85109243118E+02  0.00000000000E+00 0. -1.
</event>
<event>
 8    1  0.6627806E-009  0.8950986E+02  0.7561462E-02  0.1304043E+00
          2   -1    0    0  501    0  0.00000000000E+00  0.00000000000E+00  0.10342940836E+04  0.10342940836E+04  0.00000000000E+00 0.  1.
         -2   -1    0    0    0  501 -0.00000000000E+00 -0.00000000000E+00 -0.22679459155E+02  0.22679459155E+02  0.00000000000E+00 0. -1.
         25    2    1    2    0    0  0.25909229535E+02 -0.70984597293E+02  0.82011380513E+03  0.83303317646E+03  0.12509004154E+03 0.  0.
         23    2    1    2    0    0 -0.25909229535E+02  0.70984597293E+02  0.19150081933E+03  0.22394036630E+03  0.88128443933E+02 0.  0.
          5    1    3    3  502    0  0.87478469293E+01 -0.28435640695E+02  0.74006114822E+03  0.74067070011E+03  0.41800000000E+01 0. -1.
         -5    1    3    3    0  502  0.17161382606E+02 -0.42548956598E+02  0.80052656910E+02  0.92362476358E+02  0.41800000000E+01 0. -1.
        -11    1    4    4    0    0 -0.47637582244E+02  0.64590565340E+02  0.18286190585E+03  0.19969916621E+03  0.00000000000E+00 0.  1.
         11    1    4    4    0    0  0.21728352709E+02  0.63940319530E+01  0.86389134762E+01  0.24241200096E+02  0.00000000000E+00 0. -1.
</event>
<event>
 8    1  0.6627806E-009  0.7246103E+02  0.7561462E-02  0.1351919E+00
          3   -1    0    0  501    0  0.00000000000E+00  0.00000000000E+00  0.23874974302E+02  0.23874974302E+02  0.00000000000E+00 0. -1.
         -3   -1    0    0    0  501 -0.00000000000E+00 -0.00000000000E+00 -0.62547995054E+03  0.62547995054E+03  0.00000000000E+00 0.  1.
         25    2    1    2    0    0 -0.53940201695E+02  0.32661340902E+01 -0.28852724271E+03  0.31908696655E+03  0.12509320304E+03 0.  0.
         23    2    1    2    0    0  0.53940201695E+02 -0.32661340902E+01 -0.31307773353E+03  0.33026795829E+03  0.90216650623E+02 0.  0.
          5    1    3    3  502    0 -0.53128739181E+02  0.10871916072E+02 -0.33434035754E+02  0.63844879456E+02  0.41800000000E+01 0.  1.
         -5    1    3    3    0  502 -0.81146251401E+00 -0.76057819813E+01 -0.25509320695E+03  0.25524208709E+03  0.41800000000E+01 0.  1.
        -11    1    4    4    0    0  0.47068642534E+02  0.24603176725E+02 -0.28572203949E+03  0.29061634033E+03  0.00000000000E+00 0.  1.
         11    1    4    4    0    0  0.68715591612E+01 -0.27869310816E+02 -0.27355694042E+02  0.39651617964E+02  0.00000000000E+00 0. -1.
</event>
<event>
 8    1  0.6627806E-009  0.8860031E+02  0.7561462E-02  0.1306277E+00
         -2   -1    0    0    0  501 -0.00000000000E+00  0.00000000000E+00  0.22684891304E+02  0.22684891304E+02  0.00000000000E+00 0.  1.
          2   -1    0    0  501    0  0.00000000000E+00 -0.00000000000E+00 -0.55285864438E+03  0.55285864438E+03  0.00000000000E+00 0. -1.
         25    2    1    2    0    0 -0.11289976258E+02 -0.30740375839E+02 -0.28801068235E+03  0.31570918391E+03  0.12509876651E+03 0.  0.
         23    2    1    2    0    0  0.11289976258E+02  0.30740375839E+02 -0.24216307072E+03  0.25983435178E+03  0.88309134706E+02 0.  0.
          5    1    3    3  502    0 -0.44143618883E+02 -0.24278944506E+02 -0.27489858999E+03  0.27950819918E+03  0.41800000000E+01 0. -1.
         -5    1    3    3    0  502  0.32853642625E+02 -0.64614313331E+01 -0.13112092369E+02  0.36200984723E+02  0.41800000000E+01 0. -1.
        -11    1    4    4    0    0 -0.76326929690E+00 -0.30489885947E+02 -0.60531679575E+02  0.67781265533E+02  0.00000000000E+00 0.  1.
         11    1    4    4    0    0  0.12053245555E+02  0.61230261786E+02 -0.18163139115E+03  0.19205308625E+03  0.00000000000E+00 0. -1.
</event>
<event>
 8    1  0.6627806E-009  0.1309498E+03  0.7561462E-02  0.1226053E+00
         -1   -1    0    0    0  501 -0.00000000000E+00  0.00000000000E+00  0.13237638943E+03  0.13237638943E+03  0.00000000000E+00 0.  1.
          1   -1    0    0  501    0  0.00000000000E+00 -0.00000000000E+00 -0.14675415440E+03  0.14675415440E+03  0.00000000000E+00 0. -1.
         25    2    1    2    0    0 -0.79301937943E+02  0.31429631793E+02 -0.27235928162E+02  0.15383703942E+03  0.12508964705E+03 0.  0.
         23    2    1    2    0    0  0.79301937943E+02 -0.31429631793E+02  0.12858163189E+02  0.12529350441E+03  0.90865344162E+02 0.  0.
          5    1    3    3  502    0  0.30138210801E+02  0.11113101805E+02 -0.27433288665E+02  0.42448445307E+02  0.41800000000E+01 0.  1.
         -5    1    3    3    0  502 -0.10944014874E+03  0.20316529988E+02  0.19736050303E+00  0.11138859411E+03  0.41800000000E+01 0.  1.
        -11    1    4    4    0    0  0.13363127339E+02  0.26929798581E+02 -0.14097958923E+02  0.33204512791E+02  0.00000000000E+00 0. -1.
         11    1    4    4    0    0  0.65938810604E+02 -0.58359430374E+02  0.26956122112E+02  0.92088991616E+02  0.00000000000E+00 0.  1.
</event>
<event>
 8    1  0.6627806E-009  0.1072596E+03  0.7561462E-02  0.1265731E+00
         -2   -1    0    0    0  501 -0.00000000000E+00  0.00000000000E+00  0.35745669583E+02  0.35745669583E+02  0.00000000000E+00 0.  1.
          2   -1    0    0  501    0  0.00000000000E+00 -0.00000000000E+00 -0.57211306759E+03  0.57211306759E+03  0.00000000000E+00 0. -1.
         25    2    1    2    0    0 -0.13440970669E+02 -0.28984193976E+02 -0.10702215377E+03  0.16769150566E+03  0.12508379783E+03 0.  0.
         23    2    1    2    0    0  0.13440970669E+02  0.28984193976E+02 -0.42934524424E+03  0.44016723151E+03  0.91592083465E+02 0.  0.
          5    1    3    3  502    0 -0.61753673027E+02 -0.30495277309E+02 -0.26966945475E+02  0.74082161272E+02  0.41800000000E+01 0. -1.
         -5    1    3    3    0  502  0.48312702358E+02  0.15110833331E+01 -0.80055208294E+02  0.93609344389E+02  0.41800000000E+01 0. -1.
        -11    1    4    4    0    0  0.59343997771E+01  0.62436870263E+02 -0.27639053372E+03  0.28341719602E+03  0.00000000000E+00 0.  1.
         11    1    4    4    0    0  0.75065708919E+01 -0.33452676287E+02 -0.15295471052E+03  0.15675003550E+03  0.00000000000E+00 0. -1.
</event>
<event>
 8    1  0.6627806E-009  0.1054186E+03  0.7561462E-02  0.1269297E+00
         -2   -1    0    0    0  501 -0.00000000000E+00  0.00000000000E+00  0.11286376581E+03  0.11286376581E+03  0.00000000000E+00 0.  1.
          2   -1    0    0  501    0  0.00000000000E+00 -0.00000000000E+00 -0.18715542717E+03  0.18715542717E+03  0.00000000000E+00 0. -1.
         25    2    1    2    0    0  0.66592323160E+02 -0.72731288830E+02 -0.55644018543E+02  0.16872324002E+03  0.12508755752E+03 0.  0.
         23    2    1    2    0    0 -0.66592323160E+02  0.72731288830E+02 -0.18647642825E+02  0.13129595295E+03  0.84655270365E+02 0.  0.
          5    1    3    3  502    0  0.37767446794E+02 -0.93858705999E+01  0.36267458511E+02  0.53359868357E+02  0.41800000000E+01 0.  1.
         -5    1    3    3    0  502  0.28824876366E+02 -0.63345418230E+02 -0.91911477054E+02  0.11536337167E+03  0.41800000000E+01 0.  1.
        -11    1    4    4    0    0 -0.41639636823E+02  0.26256625637E+02  0.31557657568E+02  0.58473545264E+02  0.00000000000E+00 0.  1.
         11    1    4    4    0    0 -0.24952686338E+02  0.46474663193E+02 -0.50205300393E+02  0.72822407691E+02  0.00000000000E+00 0. -1.
</event>
<event>
 8    1  0.6627806E-009  0.7908983E+02  0.7561462E-02  0.1331654E+00
         -2   -1    0    0    0  501 -0.00000000000E+00  0.00000000000E+00  0.15982459560E+03  0.15982459560E+03  0.00000000000E+00 0. -1.
          2   -1    0    0  501    0  0.00000000000E+00 -0.00000000000E+00 -0.95788393582E+02  0.95788393582E+02  0.00000000000E+00 0.  1.
         25    2    1    2    0    0 -0.53795024571E+02  0.31805635617E+02  0.34664572932E+02  0.14406514012E+03  0.12509048268E+03 0.  0.
         23    2    1    2    0    0  0.53795024571E+02 -0.31805635617E+02  0.29371629091E+02  0.11154784906E+03  0.87605518715E+02 0.  0.
          5    1    3    3  502    0  0.17187337379E+02  0.13096915655E+02 -0.35930458259E+02  0.42135543150E+02  0.41800000000E+01 0. -1.
         -5    1    3    3    0  502 -0.70982361950E+02  0.18708719962E+02  0.70595031191E+02  0.10192959697E+03  0.41800000000E+01 0. -1.
        -11    1    4    4    0    0  0.20834662143E+02 -0.14799936691E+02 -0.31318325952E+02  0.40422256408E+02  0.00000000000E+00 0.  1.
         11    1    4    4    0    0  0.32960362428E+02 -0.17005698926E+02  0.60689955043E+02  0.71125592654E+02  0.00000000000E+00 0. -1.
</event>
<event>
 8    1  0.6627806E-009  0.1487773E+03  0.7561462E-02  0.1201984E+00
          1   -1    0    0  501    0  0.00000000000E+00  0.00000000000E+00  0.65167354974E+03  0.65167354974E+03  0.00000000000E+00 0. -1.
         -1   -1    0    0    0  501 -0.00000000000E+00 -0.00000000000E+00 -0.41118068160E+02  0.41118068160E+02  0.00000000000E+00 0.  1.
         25    2    1    2    0    0  0.95021355587E+02  0.44882606738E+02  0.45059623541E+03  0.47929901117E+03  0.12508824221E+03 0.  0.
         23    2    1    2    0    0 -0.95021355587E+02 -0.44882606738E+02  0.15995924617E+03  0.21349260673E+03  0.94597179061E+02 0.  0.
          5    1    3    3  502    0 -0.13363002082E+02 -0.27960747029E+02  0.64198928254E+02  0.71409719143E+02  0.41800000000E+01 0.  1.
         -5    1    3    3    0  502  0.10838435767E+03  0.72843353767E+02  0.38639730715E+03  0.40788929203E+03  0.41800000000E+01 0.  1.
        -11    1    4    4    0    0 -0.32637234527E+02  0.25617505213E+02  0.23412907956E+02  0.47640423065E+02  0.00000000000E+00 0.  1.
         11    1    4    4    0    0 -0.62384121061E+02 -0.70500111951E+02  0.13654633822E+03  0.16585218366E+03  0.00000000000E+00 0. -1.
</event>
<event>
 8    1  0.6627806E-009  0.1791703E+03  0.7561462E-02  0.1168608E+00
          2   -1    0    0  501    0  0.00000000000E+00  0.00000000000E+00  0.11858497461E+04  0.11858497461E+04  0.00000000000E+00 0.  1.
         -2   -1    0    0    0  501 -0.00000000000E+00 -0.00000000000E+00 -0.37698272604E+02  0.37698272604E+02  0.00000000000E+00 0. -1.
         25    2    1    2    0    0 -0.57807435938E+01 -0.15708974752E+03  0.85828475740E+03  0.88148228969E+03  0.12509075294E+03 0.  0.
         23    2    1    2    0    0  0.57807435938E+01  0.15708974752E+03  0.28986671612E+03  0.34206572904E+03  0.90970567219E+02 0.  0.
          5    1    3    3  502    0 -0.31549660541E+02 -0.16680402779E+03  0.67185323398E+03  0.69298138877E+03  0.41800000000E+01 0.  1.
         -5    1    3    3    0  502  0.25768916947E+02  0.97142802777E+01  0.18643152342E+03  0.18850090092E+03  0.41800000000E+01 0.  1.
        -11    1    4    4    0    0  0.18272630825E+02  0.58296505045E+02  0.19569417431E+03  0.20500873493E+03  0.00000000000E+00 0.  1.
         11    1    4    4    0    0 -0.12491887231E+02  0.98793242471E+02  0.94172541804E+02  0.13705699411E+03  0.00000000000E+00 0. -1.
</event>
<event>
 8    1  0.6627806E-009  0.4237338E+02  0.7561462E-02  0.1491439E+00
         -1   -1    0    0    0  501 -0.00000000000E+00  0.00000000000E+00  0.17148375343E+03  0.17148375343E+03  0.00000000000E+00 0.  1.
          1   -1    0    0  501    0  0.00000000000E+00 -0.00000000000E+00 -0.90500527855E+02  0.90500527855E+02  0.00000000000E+00 0. -1.
         25    2    1    2    0    0  0.57105321429E+01  0.18021163879E+02  0.94052799631E+02  0.15764198886E+03  0.12509074709E+03 0.  0.
         23    2    1    2    0    0 -0.57105321429E+01 -0.18021163879E+02 -0.13069574052E+02  0.10434229243E+03  0.10177980005E+03 0.  0.
          5    1    3    3  502    0  0.13122210752E+00 -0.58001500739E+01  0.12088155751E+03  0.12109286646E+03  0.41800000000E+01 0.  1.
         -5    1    3    3    0  502  0.55793100354E+01  0.23821313952E+02 -0.26828757881E+02  0.36549122402E+02  0.41800000000E+01 0.  1.
        -11    1    4    4    0    0  0.13396002934E+02  0.11470346756E+02 -0.50207419090E+02  0.53214722409E+02  0.00000000000E+00 0. -1.
         11    1    4    4    0    0 -0.19106535077E+02 -0.29491510634E+02  0.37137845038E+02  0.51127570021E+02  0.00000000000E+00 0.  1.
</event>
<event>
 8    1  0.6627806E-009  0.9150478E+02  0.7561462E-02  0.1299248E+00
          2   -1    0    0  501    0  0.00000000000E+00  0.00000000000E+00  0.36565108270E+03  0.36565108270E+03  0.00000000000E+00 0. -1.
         -2   -1    0    0    0  501 -0.00000000000E+00 -0.00000000000E+00 -0.30947475287E+02  0.30947475287E+02  0.00000000000E+00 0.  1.
         25    2    1    2    0    0  0.83898462933E+00 -0.24815948666E+01  0.18796046695E+03  0.22579533162E+03  0.12509009728E+03 0.  0.
         23    2    1    2    0    0 -0.83898462933E+00  0.24815948666E+01  0.14674314047E+03  0.17080322637E+03  0.87368934156E+02 0.  0.
          5    1    3    3  502    0 -0.54176450434E+02 -0.13358791427E+02  0.14376668683E+03  0.15427208994E+03  0.41800000000E+01 0. -1.
         -5    1    3    3    0  502  0.55015435063E+02  0.10877196560E+02  0.44193780113E+02  0.71523241683E+02  0.41800000000E+01 0. -1.
        -11    1    4    4    0    0 -0.12145514385E+02  0.34651883579E+02  0.25116993664E+02  0.44487413119E+02  0.00000000000E+00 0.  1.
         11    1    4    4    0    0  0.11306529756E+02 -0.32170288713E+02  0.12162614680E+03  0.12631581325E+03  0.00000000000E+00 0. -1.
</event>
<event>
 8    1  0.6627806E-009  0.1738250E+03  0.7561462E-02  0.1173917E+00
         -2   -1    0    0    0  501 -0.00000000000E+00  0.00000000000E+00  0.98217629061E+02  0.98217629061E+02  0.00000000000E+00 0.  1.
          2   -1    0    0  501    0  0.00000000000E+00 -0.00000000000E+00 -0.75443229558E+03  0.75443229558E+03  0.00000000000E+00 0. -1.
         25    2    1    2    0    0 -0.33329369187E+02  0.13443361100E+03 -0.11662962560E+02  0.18699427797E+03  0.12509033807E+03 0.  0.
         23    2    1    2    0    0  0.33329369187E+02 -0.13443361100E+03 -0.64455170396E+03  0.66565564668E+03  0.92017923560E+02 0.  0.
          5    1    3    3  502    0 -0.16731294217E+02 -0.22466758501E+02 -0.66027712220E+01  0.29081960587E+02  0.41800000000E+01 0.  1.
         -5    1    3    3    0  502 -0.16598074970E+02  0.15690036951E+03 -0.50601913376E+01  0.15791231738E+03  0.41800000000E+01 0.  1.
        -11    1    4    4    0    0 -0.13655949412E+02 -0.10536416247E+03 -0.49373724184E+03  0.50503916251E+03  0.00000000000E+00 0. -1.
         11    1    4    4    0    0  0.46985318599E+02 -0.29069448530E+02 -0.15081446212E+03  0.16061648417E+03  0.00000000000E+00 0.  1.
</event>
<event>
 8    1  0.6627806E-009  0.1020645E+03  0.7561462E-02  0.1276014E+00
         -4   -1    0    0    0  501 -0.00000000000E+00  0.00000000000E+00  0.63749535923E+02  0.63749535923E+02  0.00000000000E+00 0. -1.
          4   -1    0    0  501    0  0.00000000000E+00 -0.00000000000E+00 -0.19124793829E+03  0.19124793829E+03  0.00000000000E+00 0.  1.
         25    2    1    2    0    0 -0.33988633018E+01 -0.32108773134E+01 -0.54134514841E+02  0.13636151904E+03  0.12506820608E+03 0.  0.
         23    2    1    2    0    0  0.33988633018E+01  0.32108773134E+01 -0.73363887530E+02  0.11863595518E+03  0.93114810113E+02 0.  0.
          5    1    3    3  502    0 -0.45186136426E+02  0.32697296532E+02 -0.58498812069E+02  0.80935057541E+02  0.41800000000E+01 0.  1.
         -5    1    3    3    0  502  0.41787273124E+02 -0.35908173845E+02  0.43642972286E+01  0.55426461499E+02  0.41800000000E+01 0.  1.
        -11    1    4    4    0    0  0.26184822526E+02 -0.37825571599E+02 -0.31645644539E+02  0.55837851103E+02  0.00000000000E+00 0.  1.
         11    1    4    4    0    0 -0.22785959224E+02  0.41036448912E+02 -0.41718242991E+02  0.62798104074E+02  0.00000000000E+00 0. -1.
</event>
<event>
 8    1  0.6627806E-009  0.7608700E+02  0.7561462E-02  0.1340538E+00
         -2   -1    0    0    0  501 -0.00000000000E+00  0.00000000000E+00  0.21508489847E+03  0.21508489847E+03  0.00000000000E+00 0.  1.
          2   -1    0    0  501    0  0.00000000000E+00 -0.00000000000E+00 -0.66109694905E+02  0.66109694905E+02  0.00000000000E+00 0. -1.
         25    2    1    2    0    0  0.18576565448E+02 -0.31733572394E+02  0.12963322196E+03  0.18386287312E+03  0.12509466606E+03 0.  0.
         23    2    1    2    0    0 -0.18576565448E+02  0.31733572394E+02  0.19341981604E+02  0.97331720252E+02  0.88018424856E+02 0.  0.
          5    1    3    3  502    0  0.29597703416E+02  0.11636563446E+01  0.14326369826E+03  0.14635346864E+03  0.41800000000E+01 0. -1.
         -5    1    3    3    0  502 -0.11021137968E+02 -0.32897228738E+02 -0.13630476297E+02  0.37509404486E+02  0.41800000000E+01 0. -1.
        -11    1    4    4    0    0 -0.29729801891E+02 -0.19057468183E+02  0.27417027563E+02  0.44707288158E+02  0.00000000000E+00 0.  1.
         11    1    4    4    0    0  0.11153236443E+02  0.50791040577E+02 -0.80750459590E+01  0.52624432095E+02  0.00000000000E+00 0. -1.
</event>
<event>
 8    1  0.6627806E-009  0.1101547E+03  0.7561462E-02  0.1260284E+00
         -1   -1    0    0    0  501 -0.00000000000E+00  0.00000000000E+00  0.33845472814E+02  0.33845472814E+02  0.00000000000E+00 0.  1.
          1   -1    0    0  501    0  0.00000000000E+00 -0.00000000000E+00 -0.59116921254E+03  0.59116921254E+03  0.00000000000E+00 0. -1.
         25    2    1    2    0    0  0.71847803699E+02 -0.46566888554E+02 -0.23458275057E+03  0.27929841688E+03  0.12509179348E+03 0.  0.
         23    2    1    2    0    0 -0.71847803699E+02  0.46566888554E+02 -0.32274098915E+03  0.34571626848E+03  0.89595815782E+02 0.  0.
          5    1    3    3  502    0  0.40174634992E+02 -0.50905010148E+02 -0.23815373242E+03  0.24686027226E+03  0.41800000000E+01 0.  1.
         -5    1    3    3    0  502  0.31673168707E+02  0.43381215931E+01  0.35709818437E+01  0.32438144617E+02  0.41800000000E+01 0.  1.
        -11    1    4    4    0    0 -0.92840149980E+02  0.39993917247E+02 -0.27914376044E+03  0.29688389289E+03  0.00000000000E+00 0.  1.
         11    1    4    4    0    0  0.20992346281E+02  0.65729713070E+01 -0.43597228711E+02  0.48832375587E+02  0.00000000000E+00 0. -1.
</event>
<event>
 8    1  0.6627806E-009  0.6890649E+02  0.7561462E-02  0.1363852E+00
          2   -1    0    0  501    0  0.00000000000E+00  0.00000000000E+00  0.89886941547E+02  0.89886941547E+02  0.00000000000E+00 0. -1.
         -2   -1    0    0    0  501 -0.00000000000E+00 -0.00000000000E+00 -0.14077008116E+03  0.14077008116E+03  0.00000000000E+00 0.  1.
         25    2    1    2    0    0 -0.35685056981E+02  0.45453401479E+01 -0.37152969878E+02  0.13535960694E+03  0.12509115321E+03 0.  0.
         23    2    1    2    0    0  0.35685056981E+02 -0.45453401479E+01 -0.13730169739E+02  0.95297415774E+02  0.87172223118E+02 0.  0.
          5    1    3    3  502    0 -0.23365147718E+02 -0.26896013965E+02 -0.75804947502E+02  0.83864105318E+02  0.41800000000E+01 0. -1.
         -5    1    3    3    0  502 -0.12319909263E+02  0.31441354113E+02  0.38651977624E+02  0.51495501618E+02  0.41800000000E+01 0. -1.
        -11    1    4    4    0    0 -0.43254953012E+01 -0.23320069244E+02  0.26478169572E+02  0.35547559734E+02  0.00000000000E+00 0. -1.
         11    1    4    4    0    0  0.40010552282E+02  0.18774729096E+02 -0.40208339312E+02  0.59749856040E+02  0.00000000000E+00 0.  1.
</event>
<event>
 8    1  0.6627806E-009  0.1409940E+03  0.7561462E-02  0.1211998E+00
          2   -1    0    0  501    0  0.00000000000E+00  0.00000000000E+00  0.28946977218E+03  0.28946977218E+03  0.00000000000E+00 0. -1.
         -2   -1    0    0    0  501 -0.00000000000E+00 -0.00000000000E+00 -0.10304598538E+03  0.10304598538E+03  0.00000000000E+00 0.  1.
         25    2    1    2    0    0 -0.75400648624E+02 -0.10980882850E+03  0.10456511367E+03  0.21053318185E+03  0.12508845284E+03 0.  0.
         23    2    1    2    0    0  0.75400648624E+02  0.10980882850E+03  0.81858673128E+02  0.18198257572E+03  0.93132050713E+02 0.  0.
          5    1    3    3  502    0 -0.28734240903E+02 -0.89740267081E+01 -0.25319567203E+02  0.39556827969E+02  0.41800000000E+01 0. -1.
         -5    1    3    3    0  502 -0.46666407721E+02 -0.10083480179E+03  0.12988468087E+03  0.17097635388E+03  0.41800000000E+01 0. -1.
        -11    1    4    4    0    0  0.55311683053E+02  0.10655667525E+03  0.26424134242E+02  0.12293063976E+03  0.00000000000E+00 0.  1.
         11    1    4    4    0    0  0.20088965571E+02  0.32521532477E+01  0.55434538886E+02  0.59051935955E+02  0.00000000000E+00 0. -1.
</event>
<event>
 8    1  0.6627806E-009  0.1127605E+03  0.7561462E-02  0.1255542E+00
          2   -1    0    0  501    0  0.00000000000E+00  0.00000000000E+00  0.82326399409E+03  0.82326399409E+03  0.00000000000E+00 0. -1.
         -2   -1    0    0    0  501 -0.00000000000E+00 -0.00000000000E+00 -0.24138008572E+02  0.24138008572E+02  0.00000000000E+00 0.  1.
         25    2    1    2    0    0  0.27678231640E+02 -0.84223068914E+02  0.47888531262E+03  0.50282785751E+03  0.12508038136E+03 0.  0.
         23    2    1    2    0    0 -0.27678231640E+02  0.84223068914E+02  0.32024067290E+03  0.34457414515E+03  0.91201113394E+02 0.  0.
          5    1    3    3  502    0  0.49188894339E+02 -0.61369901001E+02  0.12644689665E+03  0.14897013844E+03  0.41800000000E+01 0. -1.
         -5    1    3    3    0  502 -0.21510662699E+02 -0.22853167914E+02  0.35243841597E+03  0.35385771907E+03  0.41800000000E+01 0. -1.
        -11    1    4    4    0    0  0.10999330009E+01  0.86242727694E+02  0.16008774435E+03  0.18184362464E+03  0.00000000000E+00 0.  1.
         11    1    4    4    0    0 -0.28778164641E+02 -0.20196587795E+01  0.16015292855E+03  0.16273052051E+03  0.00000000000E+00 0. -1.
</event>
<event>
 8    1  0.6627806E-009  0.9307229E+02  0.7561462E-02  0.1295578E+00
          2   -1    0    0  501    0  0.00000000000E+00  0.00000000000E+00  0.94390678110E+03  0.94390678110E+03  0.00000000000E+00 0.  1.
         -2   -1    0    0    0  501 -0.00000000000E+00 -0.00000000000E+00 -0.13707448383E+02  0.13707448383E+02  0.00000000000E+00 0. -1.
         25    2    1    2    0    0 -0.21702987605E+02 -0.20544040651E+02  0.82384961923E+03  0.83382866169E+03  0.12509582197E+03 0.  0.
         23    2    1    2    0    0  0.21702987605E+02  0.20544040651E+02  0.10634971348E+03  0.12378556779E+03  0.55852734556E+02 0.  0.
          5    1    3    3  502    0 -0.70359109793E+02  0.68937707576E+01  0.39000065463E+03  0.39637849515E+03  0.41800000000E+01 0. -1.
         -5    1    3    3    0  502  0.48656122188E+02 -0.27437811409E+02  0.43384896460E+03  0.43745016654E+03  0.41800000000E+01 0. -1.
        -11    1    4    4    0    0 -0.13481631251E+02  0.20001588105E+02  0.23072496684E+02  0.33379005544E+02  0.00000000000E+00 0. -1.
         11    1    4    4    0    0  0.35184618856E+02  0.54245254576E+00  0.83277216801E+02  0.90406562245E+02  0.00000000000E+00 0.  1.
</event>
<event>
 8    1  0.6627806E-009  0.2027932E+03  0.7561462E-02  0.1147404E+00
          2   -1    0    0  501    0  0.00000000000E+00  0.00000000000E+00  0.11245293633E+04  0.11245293633E+04  0.00000000000E+00 0. -1.
         -2   -1    0    0    0  501 -0.00000000000E+00 -0.00000000000E+00 -0.43891094406E+02  0.43891094406E+02  0.00000000000E+00 0.  1.
         25    2    1    2    0    0 -0.11829020781E+02  0.19055483024E+03  0.63439002405E+03  0.67420849846E+03  0.12512125211E+03 0.  0.
         23    2    1    2    0    0  0.11829020781E+02 -0.19055483024E+03  0.44624824480E+03  0.49421195919E+03  0.93042439601E+02 0.  0.
          5    1    3    3  502    0 -0.49502423088E+02  0.14020758593E+03  0.31108824276E+03  0.34482172818E+03  0.41800000000E+01 0. -1.
         -5    1    3    3    0  502  0.37673402308E+02  0.50347244302E+02  0.32330178129E+03  0.32938677028E+03  0.41800000000E+01 0. -1.
        -11    1    4    4    0    0 -0.10450666401E+01 -0.16675736300E+03  0.43316876144E+03  0.46415976362E+03  0.00000000000E+00 0.  1.
         11    1    4    4    0    0  0.12874087421E+02 -0.23797467238E+02  0.13079483359E+02  0.30052195574E+02  0.00000000000E+00 0. -1.
</event>
<event>
 8    1  0.6627806E-009  0.3716113E+03  0.7561462E-02  0.1054079E+00
          2   -1    0    0  501    0  0.00000000000E+00  0.00000000000E+00  0.16365097381E+04  0.16365097381E+04  0.00000000000E+00 0. -1.
         -2   -1    0    0    0  501 -0.00000000000E+00 -0.00000000000E+00 -0.11046523981E+03  0.11046523981E+03  0.00000000000E+00 0.  1.
         25    2    1    2    0    0 -0.17143832956E+03 -0.32313601753E+03  0.11547044882E+04  0.12177018319E+04  0.12508920729E+03 0.  0.
         23    2    1    2    0    0  0.17143832956E+03  0.32313601753E+03  0.37134001014E+03  0.52927314601E+03  0.91807806284E+02 0.  0.
          5    1    3    3  502    0 -0.87927783257E+02 -0.15301118746E+03  0.75446657123E+03  0.77484256340E+03  0.41800000000E+01 0.  1.
         -5    1    3    3    0  502 -0.83510546301E+02 -0.17012483007E+03  0.40023791694E+03  0.44285926851E+03  0.41800000000E+01 0.  1.
        -11    1    4    4    0    0 -0.77429995280E+01  0.49174849994E+02  0.47855004819E+02  0.69052309157E+02  0.00000000000E+00 0.  1.
         11    1    4    4    0    0  0.17918132909E+03  0.27396116753E+03  0.32348500532E+03  0.46022083686E+03  0.00000000000E+00 0. -1.
</event>
<event>
 8    1  0.6627806E-009  0.1382497E+03  0.7561462E-02  0.1215704E+00
         -1   -1    0    0    0  501 -0.00000000000E+00  0.00000000000E+00  0.59615557949E+03  0.59615557949E+03  0.00000000000E+00 0.  1.
          1   -1    0    0  501    0  0.00000000000E+00 -0.00000000000E+00 -0.33699599802E+02  0.33699599802E+02  0.00000000000E+00 0. -1.
         25    2    1    2    0    0 -0.86820170799E+02  0.87357896141E+01  0.25101859242E+03  0.29372055484E+03  0.12508946606E+03 0.  0.
         23    2    1    2    0    0  0.86820170799E+02 -0.87357896141E+01  0.31143738727E+03  0.33613462445E+03  0.91537880066E+02 0.  0.
          5    1    3    3  502    0  0.30401324817E+02 -0.10716702292E+02  0.69535874152E+02  0.76758051387E+02  0.41800000000E+01 0.  1.
         -5    1    3    3    0  502 -0.11722149562E+03  0.19452491906E+02  0.18148271826E+03  0.21696250345E+03  0.41800000000E+01 0.  1.
        -11    1    4    4    0    0  0.30837659833E+02 -0.47763094709E+02  0.16639677608E+03  0.17584129655E+03  0.00000000000E+00 0.  1.
         11    1    4    4    0    0  0.55982510967E+02  0.39027305095E+02  0.14504061118E+03  0.16029332790E+03  0.00000000000E+00 0. -1.
</event>
<event>
 8    1  0.6627806E-009  0.2274962E+03  0.7561462E-02  0.1128415E+00
         -2   -1    0    0    0  501 -0.00000000000E+00  0.00000000000E+00  0.47715099755E+02  0.47715099755E+02  0.00000000000E+00 0.  1.
          2   -1    0    0  501    0  0.00000000000E+00 -0.00000000000E+00 -0.15045022655E+04  0.15045022655E+04  0.00000000000E+00 0. -1.
         25    2    1    2    0    0 -0.18860781077E+03 -0.10088853078E+03 -0.10903699440E+04  0.11181708838E+04  0.12509240035E+03 0.  0.
         23    2    1    2    0    0  0.18860781077E+03  0.10088853078E+03 -0.36641722171E+03  0.43404648144E+03  0.91560721696E+02 0.  0.
          5    1    3    3  502    0 -0.18304345580E+03 -0.76355601369E+02 -0.71716015759E+03  0.74409088732E+03  0.41800000000E+01 0. -1.
         -5    1    3    3    0  502 -0.55643549742E+01 -0.24532929415E+02 -0.37320978643E+03  0.37407999647E+03  0.41800000000E+01 0. -1.
        -11    1    4    4    0    0  0.82075479714E+02 -0.32507028194E+01 -0.15490131810E+03  0.17533216986E+03  0.00000000000E+00 0. -1.
         11    1    4    4    0    0  0.10653233106E+03  0.10413923360E+03 -0.21151590361E+03  0.25871431158E+03  0.00000000000E+00 0.  1.
</event>
<event>
 8    1  0.6627806E-009  0.1009642E+03  0.7561462E-02  0.1278281E+00
          3   -1    0    0  501    0  0.00000000000E+00  0.00000000000E+00  0.38447155904E+03  0.38447155904E+03  0.00000000000E+00 0. -1.
         -3   -1    0    0    0  501 -0.00000000000E+00 -0.00000000000E+00 -0.41952761392E+02  0.41952761392E+02  0.00000000000E+00 0.  1.
         25    2    1    2    0    0 -0.10202445887E+02  0.20557730620E+02  0.87719384795E+02  0.15449621268E+03  0.12509068340E+03 0.  0.
         23    2    1    2    0    0  0.10202445887E+02 -0.20557730620E+02  0.25479941285E+03  0.27192810774E+03  0.92170737242E+02 0.  0.
          5    1    3    3  502    0  0.58781277134E+01 -0.42482452345E+02 -0.25281921285E+01  0.43164514339E+02  0.41800000000E+01 0. -1.
         -5    1    3    3    0  502 -0.16080573600E+02  0.63040182965E+02  0.90247576923E+02  0.11133169834E+03  0.41800000000E+01 0. -1.
        -11    1    4    4    0    0  0.89607371946E+01 -0.56739073020E+02  0.13330362367E+03  0.14515327521E+03  0.00000000000E+00 0.  1.
         11    1    4    4    0    0  0.12417086922E+01  0.36181342401E+02  0.12149578917E+03  0.12677483254E+03  0.00000000000E+00 0. -1.
</event>
<event>
 8    1  0.6627806E-009  0.1226042E+03  0.7561462E-02  0.1238862E+00
          4   -1    0    0  501    0  0.00000000000E+00  0.00000000000E+00  0.76489668731E+02  0.76489668731E+02  0.00000000000E+00 0. -1.
         -4   -1    0    0    0  501 -0.00000000000E+00 -0.00000000000E+00 -0.24844360989E+03  0.24844360989E+03  0.00000000000E+00 0.  1.
         25    2    1    2    0    0 -0.43691091845E+02 -0.59109609408E+02 -0.44247090321E+02  0.15170861447E+03  0.12511930815E+03 0.  0.
         23    2    1    2    0    0  0.43691091845E+02  0.59109609408E+02 -0.12770685084E+03  0.17322466415E+03  0.91076270710E+02 0.  0.
          5    1    3    3  502    0  0.12107060269E+02  0.29310874018E+02  0.10432282257E+02  0.33645403210E+02  0.41800000000E+01 0.  1.
         -5    1    3    3    0  502 -0.55798152115E+02 -0.88420483426E+02 -0.54679372578E+02  0.11806321127E+03  0.41800000000E+01 0.  1.
        -11    1    4    4    0    0  0.50453763070E+02  0.75526224268E+02 -0.12608779659E+03  0.15539602701E+03  0.00000000000E+00 0. -1.
         11    1    4    4    0    0 -0.67626712243E+01 -0.16416614860E+02 -0.16190542450E+01  0.17828637138E+02  0.00000000000E+00 0.  1.
</event>
<event>
 8    1  0.6627806E-009  0.8473407E+02  0.7561462E-02  0.1316129E+00
         -1   -1    0    0    0  501 -0.00000000000E+00  0.00000000000E+00  0.14782476923E+03  0.14782476923E+03  0.00000000000E+00 0.  1.
          1   -1    0    0  501    0  0.00000000000E+00 -0.00000000000E+00 -0.13184915966E+03  0.13184915966E+03  0.00000000000E+00 0. -1.
         25    2    1    2    0    0 -0.17898910904E+02 -0.40281684199E+01 -0.76033855750E+02  0.14753900711E+03  0.12510001698E+03 0.  0.
         23    2    1    2    0    0  0.17898910904E+02  0.40281684199E+01  0.92009465319E+02  0.13213492178E+03  0.93044605938E+02 0.  0.
          5    1    3    3  502    0 -0.45539603022E+02 -0.16049777614E+02 -0.98457217665E+02  0.10973945013E+03  0.41800000000E+01 0.  1.
         -5    1    3    3    0  502  0.27640692118E+02  0.12021609194E+02  0.22423361915E+02  0.37799556981E+02  0.41800000000E+01 0.  1.
        -11    1    4    4    0    0 -0.23446040426E+01 -0.41071100672E+02  0.22648545607E+02  0.46960505711E+02  0.00000000000E+00 0. -1.
         11    1    4    4    0    0  0.20243514946E+02  0.45099269092E+02  0.69360919713E+02  0.85174416073E+02  0.00000000000E+00 0.  1.
</event>
<event>
 8    1  0.6627806E-009  0.1096150E+03  0.7561462E-02  0.1261285E+00
         -2   -1    0    0    0  501 -0.00000000000E+00  0.00000000000E+00  0.13213411886E+02  0.13213411886E+02  0.00000000000E+00 0.  1.
          2   -1    0    0  501    0  0.00000000000E+00 -0.00000000000E+00 -0.95538589195E+03  0.95538589195E+03  0.00000000000E+00 0. -1.
         25    2    1    2    0    0  0.19984102488E+02 -0.49554628885E+01 -0.63262079173E+03  0.64520250124E+03  0.12511307090E+03 0.  0.
         23    2    1    2    0    0 -0.19984102488E+02  0.49554628885E+01 -0.30955168833E+03  0.32339680260E+03  0.91319894961E+02 0.  0.
          5    1    3    3  502    0  0.71034863148E+02  0.12721565829E+02 -0.33854131578E+03  0.34617262299E+03  0.41800000000E+01 0.  1.
         -5    1    3    3    0  502 -0.51050760660E+02 -0.17677028717E+02 -0.29407947595E+03  0.29902987824E+03  0.41800000000E+01 0.  1.
        -11    1    4    4    0    0  0.33617234203E+02 -0.13271839007E+02 -0.14250201241E+03  0.14701388944E+03  0.00000000000E+00 0. -1.
         11    1    4    4    0    0 -0.53601336691E+02  0.18227301896E+02 -0.16704967592E+03  0.17638291316E+03  0.00000000000E+00 0.  1.
</event>
<event>
 8    1  0.6627806E-009  0.7352587E+02  0.7561462E-02  0.1348498E+00
         -1   -1    0    0    0  501 -0.00000000000E+00  0.00000000000E+00  0.99164972713E+02  0.99164972713E+02  0.00000000000E+00 0.  1.
          1   -1    0    0  501    0  0.00000000000E+00 -0.00000000000E+00 -0.14095497144E+03  0.14095497144E+03  0.00000000000E+00 0. -1.
         25    2    1    2    0    0  0.34571626502E+02  0.26290719200E+02 -0.55620103962E+01  0.13256705100E+03  0.12512668691E+03 0.  0.
         23    2    1    2    0    0 -0.34571626502E+02 -0.26290719200E+02 -0.36227988334E+02  0.10755289316E+03  0.91480918298E+02 0.  0.
          5    1    3    3  502    0  0.21896161165E+02  0.49205657378E+01  0.59000246425E+02  0.63262590202E+02  0.41800000000E+01 0. -1.
         -5    1    3    3    0  502  0.12675465337E+02  0.21370153462E+02 -0.64562256821E+02  0.69304460797E+02  0.41800000000E+01 0. -1.
        -11    1    4    4    0    0 -0.47971714979E+02  0.19149822361E+02 -0.30100056633E+02  0.59783062348E+02  0.00000000000E+00 0.  1.
         11    1    4    4    0    0  0.13400088477E+02 -0.45440541561E+02 -0.61279317015E+01  0.47769830809E+02  0.00000000000E+00 0. -1.
</event>
<event>
 8    1  0.6627806E-009  0.1013555E+03  0.7561462E-02  0.1277471E+00
         -1   -1    0    0    0  501 -0.00000000000E+00  0.00000000000E+00  0.11260287687E+02  0.11260287687E+02  0.00000000000E+00 0.  1.
          1   -1    0    0  501    0  0.00000000000E+00 -0.00000000000E+00 -0.12640969059E+04  0.12640969059E+04  0.00000000000E+00 0. -1.
         25    2    1    2    0    0 -0.20214199691E+02 -0.14383826436E+02 -0.93322675391E+03  0.94189973354E+03  0.12508966984E+03 0.  0.
         23    2    1    2    0    0  0.20214199691E+02  0.14383826436E+02 -0.31960986435E+03  0.33345746010E+03  0.91803616322E+02 0.  0.
          5    1    3    3  502    0 -0.58817379933E+02 -0.30358331603E+02 -0.29818799296E+03  0.30547448998E+03  0.41800000000E+01 0.  1.
         -5    1    3    3    0  502  0.38603180242E+02  0.15974505166E+02 -0.63503876095E+03  0.63642524356E+03  0.41800000000E+01 0.  1.
        -11    1    4    4    0    0  0.55611310565E+02  0.18862967638E+02 -0.17873737981E+03  0.18813686601E+03  0.00000000000E+00 0. -1.
         11    1    4    4    0    0 -0.35397110874E+02 -0.44791412012E+01 -0.14087248454E+03  0.14532059408E+03  0.00000000000E+00 0.  1.
</event>
<event>
 8    1  0.6627806E-009  0.1048872E+03  0.7561462E-02  0.1270342E+00
          1   -1    0    0  501    0  0.00000000000E+00  0.00000000000E+00  0.16060115538E+03  0.16060115538E+03  0.00000000000E+00 0. -1.
         -1   -1    0    0    0  501 -0.00000000000E+00 -0.00000000000E+00 -0.11722078779E+03  0.11722078779E+03  0.00000000000E+00 0.  1.
         25    2    1    2    0    0  0.59803629509E+02 -0.25875185133E+02 -0.32990951426E+02  0.14485030372E+03  0.12508880168E+03 0.  0.
         23    2    1    2    0    0 -0.59803629509E+02  0.25875185133E+02  0.76371319021E+02  0.13297163944E+03  0.87194490761E+02 0.  0.
          5    1    3    3  502    0  0.32373020049E+02  0.49136813225E+02 -0.18427911724E+01  0.59019548629E+02  0.41800000000E+01 0. -1.
         -5    1    3    3    0  502  0.27430609460E+02 -0.75011998358E+02 -0.31148160254E+02  0.85830755095E+02  0.41800000000E+01 0. -1.
        -11    1    4    4    0    0 -0.45701753938E+02  0.31623231066E+02  0.94293792585E+02  0.10945317892E+03  0.00000000000E+00 0. -1.
         11    1    4    4    0    0 -0.14101875571E+02 -0.57480459328E+01 -0.17922473564E+02  0.23518460521E+02  0.00000000000E+00 0.  1.
</event>
<event>
 8    1  0.6627806E-009  0.1054093E+03  0.7561462E-02  0.1269315E+00
          1   -1    0    0  501    0  0.00000000000E+00  0.00000000000E+00  0.68926317261E+03  0.68926317261E+03  0.00000000000E+00 0. -1.
         -1   -1    0    0    0  501 -0.00000000000E+00 -0.00000000000E+00 -0.18354426968E+02  0.18354426968E+02  0.00000000000E+00 0.  1.
         25    2    1    2    0    0 -0.26707924622E+01  0.10665967185E+02  0.28099071917E+03  0.30777075851E+03  0.12508460955E+03 0.  0.
         23    2    1    2    0    0  0.26707924622E+01 -0.10665967185E+02  0.38991802647E+03  0.39984684107E+03  0.87866563364E+02 0.  0.
          5    1    3    3  502    0  0.60534552146E+02 -0.27810368434E+01  0.14112638860E+03  0.15364340574E+03  0.41800000000E+01 0.  1.
         -5    1    3    3    0  502 -0.63205344608E+02  0.13447004029E+02  0.13986433057E+03  0.15412735277E+03  0.41800000000E+01 0.  1.
        -11    1    4    4    0    0 -0.13831479435E+02 -0.45080508588E+02  0.26725815469E+03  0.27138622538E+03  0.00000000000E+00 0.  1.
         11    1    4    4    0    0  0.16502271897E+02  0.34414541403E+02  0.12265987178E+03  0.12846061569E+03  0.00000000000E+00 0. -1.
</event>
<event>
 8    1  0.6627806E-009  0.1003788E+03  0.7561462E-02  0.1279501E+00
         -1   -1    0    0    0  501 -0.00000000000E+00  0.00000000000E+00  0.50216490780E+02  0.50216490780E+02  0.00000000000E+00 0.  1.
          1   -1    0    0  501    0  0.00000000000E+00 -0.00000000000E+00 -0.25654664044E+03  0.25654664044E+03  0.00000000000E+00 0. -1.
         25    2    1    2    0    0 -0.10609468339E+02  0.23072119441E+02 -0.14471613494E+03  0.19296303304E+03  0.12508832437E+03 0.  0.
         23    2    1    2    0    0  0.10609468339E+02 -0.23072119441E+02 -0.61614014727E+02  0.11380009818E+03  0.92245823873E+02 0.  0.
          5    1    3    3  502    0 -0.33080647236E+02  0.63578877430E+02 -0.12114748149E+03  0.14082182909E+03  0.41800000000E+01 0.  1.
         -5    1    3    3    0  502  0.22471178897E+02 -0.40506757989E+02 -0.23568653443E+02  0.52141203946E+02  0.41800000000E+01 0.  1.
        -11    1    4    4    0    0  0.16225308079E+02  0.27307188766E+02 -0.53846479215E+02  0.62517089699E+02  0.00000000000E+00 0. -1.
         11    1    4    4    0    0 -0.56158397399E+01 -0.50379308207E+02 -0.77675355126E+01  0.51283008486E+02  0.00000000000E+00 0.  1.
</event>
<event>
 8    1  0.6627806E-009  0.8638362E+02  0.7561462E-02  0.1311853E+00
          2   -1    0    0  501    0  0.00000000000E+00  0.00000000000E+00  0.25256001251E+03  0.25256001251E+03  0.00000000000E+00 0.  1.
         -2   -1    0    0    0  501 -0.00000000000E+00 -0.00000000000E+00 -0.53287273651E+02  0.53287273651E+02  0.00000000000E+00 0. -1.
         25    2    1    2    0    0  0.24269855845E+02 -0.31118781910E+02  0.10439276376E+03  0.16763965301E+03  0.12509116534E+03 0.  0.
         23    2    1    2    0    0 -0.24269855845E+02  0.31118781910E+02  0.94879975091E+02  0.13820763314E+03  0.92421510999E+02 0.  0.
          5    1    3    3  502    0 -0.38918896419E+02  0.17018025530E+02  0.67718304737E+02  0.80047079197E+02  0.41800000000E+01 0.  1.
         -5    1    3    3    0  502  0.63188752264E+02 -0.48136807439E+02  0.36674459026E+02  0.87592573818E+02  0.41800000000E+01 0.  1.
        -11    1    4    4    0    0 -0.28224403319E+02  0.11418604935E+02  0.10930918789E+03  0.11347026059E+03  0.00000000000E+00 0.  1.
         11    1    4    4    0    0  0.39545474742E+01  0.19700176974E+02 -0.14429212802E+02  0.24737372549E+02  0.00000000000E+00 0. -1.
</event>
<event>
 8    1  0.6627806E-009  0.1048274E+03  0.7561462E-02  0.1270460E+00
          1   -1    0    0  501    0  0.00000000000E+00  0.00000000000E+00  0.24644397503E+03  0.24644397503E+03  0.00000000000E+00 0. -1.
         -1   -1    0    0    0  501 -0.00000000000E+00 -0.00000000000E+00 -0.51468726287E+02  0.51468726287E+02  0.00000000000E+00 0.  1.
         25    2    1    2    0    0  0.29765501247E+02  0.28239477088E+01  0.13648998783E+03  0.18753909245E+03  0.12508970650E+03 0.  0.
         23    2    1    2    0    0 -0.29765501247E+02 -0.28239477088E+01  0.58485260910E+02  0.11037360887E+03  0.88700890900E+02 0.  0.
          5    1    3    3  502    0 -0.29368251224E+02 -0.37377683747E+02  0.90813923130E+02  0.10258765255E+03  0.41800000000E+01 0. -1.
         -5    1    3    3    0  502  0.59133752471E+02  0.40201631456E+02  0.45676064704E+02  0.84951439893E+02  0.41800000000E+01 0. -1.
        -11    1    4    4    0    0 -0.28745973325E+02 -0.42123038767E+02  0.47165203390E+02  0.69463931563E+02  0.00000000000E+00 0. -1.
         11    1    4    4    0    0 -0.10195279217E+01  0.39299091058E+02  0.11320057520E+02  0.40909677308E+02  0.00000000000E+00 0.  1.
</event>
<event>
 8    1  0.6627806E-009  0.1154834E+03  0.7561462E-02  0.1250740E+00
         -4   -1    0    0    0  501 -0.00000000000E+00  0.00000000000E+00  0.49312485021E+02  0.49312485021E+02  0.00000000000E+00 0. -1.
          4   -1    0    0  501    0  0.00000000000E+00 -0.00000000000E+00 -0.38286196109E+03  0.38286196109E+03  0.00000000000E+00 0.  1.
         25    2    1    2    0    0 -0.26360332824E+02  0.78710976512E+02 -0.15469986857E+03  0.21556851722E+03  0.12508977300E+03 0.  0.
         23    2    1    2    0    0  0.26360332824E+02 -0.78710976512E+02 -0.17884960750E+03  0.21660592889E+03  0.89669734912E+02 0.  0.
          5    1    3    3  502    0  0.49242619254E+02  0.31939642045E+02 -0.80396983085E+02  0.99629933123E+02  0.41800000000E+01 0.  1.
         -5    1    3    3    0  502 -0.75602952078E+02  0.46771334467E+02 -0.74302885486E+02  0.11593858410E+03  0.41800000000E+01 0.  1.
        -11    1    4    4    0    0  0.14365948411E+02 -0.49638474819E+02 -0.17778016322E+03  0.18513817837E+03  0.00000000000E+00 0.  1.
         11    1    4    4    0    0  0.11994384414E+02 -0.29072501693E+02 -0.10694442841E+01  0.31467750527E+02  0.00000000000E+00 0. -1.
</event>
<event>
 8    1  0.6627806E-009  0.5295998E+02  0.7561462E-02  0.1430000E+00
          1   -1    0    0  501    0  0.00000000000E+00  0.00000000000E+00  0.66608597123E+02  0.66608597123E+02  0.00000000000E+00 0. -1.
         -1   -1    0    0    0  501 -0.00000000000E+00 -0.00000000000E+00 -0.26171901901E+03  0.26171901901E+03  0.00000000000E+00 0.  1.
         25    2    1    2    0    0  0.45186104450E+02 -0.23756547502E+02 -0.17358136978E+03  0.21996399676E+03  0.12509000900E+03 0.  0.
         23    2    1    2    0    0 -0.45186104450E+02  0.23756547502E+02 -0.21529052111E+02  0.10836361937E+03  0.93129030565E+02 0.  0.
          5    1    3    3  502    0  0.23763406055E+02 -0.10211575730E+02 -0.18846385414E+03  0.19027630558E+03  0.41800000000E+01 0.  1.
         -5    1    3    3    0  502  0.21422698395E+02 -0.13544971772E+02  0.14882484366E+02  0.29687691182E+02  0.41800000000E+01 0.  1.
        -11    1    4    4    0    0 -0.21757442415E+02  0.16498226364E+01  0.36193150087E+02  0.42261712322E+02  0.00000000000E+00 0. -1.
         11    1    4    4    0    0 -0.23428662036E+02  0.22106724865E+02 -0.57722202198E+02  0.66101907050E+02  0.00000000000E+00 0.  1.
</event>
<event>
 8    1  0.6627806E-009  0.8869627E+02  0.7561462E-02  0.1306040E+00
          3   -1    0    0  501    0  0.00000000000E+00  0.00000000000E+00  0.87740048381E+03  0.87740048381E+03  0.00000000000E+00 0. -1.
         -3   -1    0    0    0  501 -0.00000000000E+00 -0.00000000000E+00 -0.15531744236E+02  0.15531744236E+02  0.00000000000E+00 0.  1.
         25    2    1    2    0    0  0.22541346166E+02 -0.35346886504E+02  0.50833443442E+03  0.52517485070E+03  0.12508881609E+03 0.  0.
         23    2    1    2    0    0 -0.22541346166E+02  0.35346886504E+02  0.35353430515E+03  0.36775737735E+03  0.92203411019E+02 0.  0.
          5    1    3    3  502    0 -0.51937392722E+01 -0.46099994395E+02  0.60596139973E+02  0.76430026760E+02  0.41800000000E+01 0. -1.
         -5    1    3    3    0  502  0.27735085438E+02  0.10753107891E+02  0.44773829445E+03  0.44874482394E+03  0.41800000000E+01 0. -1.
        -11    1    4    4    0    0 -0.53723322517E+02  0.11275307269E+00  0.20678952352E+03  0.21365419522E+03  0.00000000000E+00 0. -1.
         11    1    4    4    0    0  0.31181976351E+02  0.35234133431E+02  0.14674478163E+03  0.15410318213E+03  0.00000000000E+00 0.  1.
</event>
<event>
 8    1  0.6627806E-009  0.1066795E+03  0.7561462E-02  0.1266845E+00
          1   -1    0    0  501    0  0.00000000000E+00  0.00000000000E+00  0.33000721106E+03  0.33000721106E+03  0.00000000000E+00 0. -1.
         -1   -1    0    0    0  501 -0.00000000000E+00 -0.00000000000E+00 -0.63661104190E+02  0.63661104190E+02  0.00000000000E+00 0.  1.
         25    2    1    2    0    0 -0.81213946033E+02 -0.28166467296E+02  0.20381241451E+03  0.25411813589E+03  0.12508985477E+03 0.  0.
         23    2    1    2    0    0  0.81213946033E+02  0.28166467296E+02  0.62533692359E+02  0.13955017937E+03  0.90414240974E+02 0.  0.
          5    1    3    3  502    0 -0.84641901432E+02 -0.30087582469E+02  0.21961113228E+03  0.23730999962E+03  0.41800000000E+01 0.  1.
         -5    1    3    3    0  502  0.34279553984E+01  0.19211151726E+01 -0.15798717767E+02  0.16808136268E+02  0.41800000000E+01 0.  1.
        -11    1    4    4    0    0  0.97019571807E+02  0.30536874015E+02  0.34725483852E+02  0.10747631003E+03  0.00000000000E+00 0. -1.
         11    1    4    4    0    0 -0.15805625774E+02 -0.23704067183E+01  0.27808208506E+02  0.32073869340E+02  0.00000000000E+00 0.  1.
</event>
<event>
 8    1  0.6627806E-009  0.2386380E+03  0.7561462E-02  0.1120704E+00
          1   -1    0    0  501    0  0.00000000000E+00  0.00000000000E+00  0.17370092892E+04  0.17370092892E+04  0.00000000000E+00 0. -1.
         -1   -1    0    0    0  501 -0.00000000000E+00 -0.00000000000E+00 -0.38480549096E+02  0.38480549096E+02  0.00000000000E+00 0.  1.
         25    2    1    2    0    0  0.22737549791E+03 -0.16661331372E+02  0.10570363237E+04  0.10885543099E+04  0.12508988373E+03 0.  0.
         23    2    1    2    0    0 -0.22737549791E+03  0.16661331372E+02  0.64149241638E+03  0.68693552835E+03  0.91600670448E+02 0.  0.
          5    1    3    3  502    0  0.78666443298E+02 -0.54065300944E+02  0.26255410137E+03  0.27939863030E+03  0.41800000000E+01 0. -1.
         -5    1    3    3    0  502  0.14870905461E+03  0.37403969571E+02  0.79448222232E+03  0.80915567961E+03  0.41800000000E+01 0. -1.
        -11    1    4    4    0    0 -0.20962327001E+02  0.52201949531E+01  0.12762898143E+02  0.25091057324E+02  0.00000000000E+00 0.  1.
         11    1    4    4    0    0 -0.20641317091E+03  0.11441136419E+02  0.62872951824E+03  0.66184447103E+03  0.00000000000E+00 0. -1.
</event>
<event>
 8    1  0.6627806E-009  0.1615828E+03  0.7561462E-02  0.1186921E+00
         -2   -1    0    0    0  501 -0.00000000000E+00  0.00000000000E+00  0.76814880190E+03  0.76814880190E+03  0.00000000000E+00 0.  1.
          2   -1    0    0  501    0  0.00000000000E+00 -0.00000000000E+00 -0.39309409987E+02  0.39309409987E+02  0.00000000000E+00 0. -1.
         25    2    1    2    0    0 -0.89922797120E+01  0.13452714286E+03  0.49076790014E+03  0.52409805038E+03  0.12508885381E+03 0.  0.
         23    2    1    2    0    0  0.89922797120E+01 -0.13452714286E+03  0.23807149177E+03  0.28336016150E+03  0.73732846624E+02 0.  0.
          5    1    3    3  502    0  0.38768212381E+02 -0.21371915867E+01  0.10853534563E+03  0.11534702220E+03  0.41800000000E+01 0.  1.
         -5    1    3    3    0  502 -0.47760492093E+02  0.13666433445E+03  0.38223255451E+03  0.40875102818E+03  0.41800000000E+01 0.  1.
        -11    1    4    4    0    0 -0.13549381584E+02 -0.50592321886E+02  0.15311463790E+03  0.16182478523E+03  0.00000000000E+00 0.  1.
         11    1    4    4    0    0  0.22541661296E+02 -0.83934820973E+02  0.84956853870E+02  0.12153537627E+03  0.00000000000E+00 0. -1.
</event>
<event>
 8    1  0.6627806E-009  0.1376333E+03  0.7561462E-02  0.1216550E+00
         -2   -1    0    0    0  501 -0.00000000000E+00  0.00000000000E+00  0.51964826318E+02  0.51964826318E+02  0.00000000000E+00 0. -1.
          2   -1    0    0  501    0  0.00000000000E+00 -0.00000000000E+00 -0.61185554143E+03  0.61185554143E+03  0.00000000000E+00 0.  1.
         25    2    1    2    0    0 -0.10162084516E+03 -0.44544622804E+02 -0.13352535676E+03  0.21397963167E+03  0.12508893748E+03 0.  0.
         23    2    1    2    0    0  0.10162084516E+03  0.44544622804E+02 -0.42636535835E+03  0.44984073608E+03  0.90874910952E+02 0.  0.
          5    1    3    3  502    0 -0.17145735296E+01 -0.31067829560E+02  0.14705267577E+02  0.34667954807E+02  0.41800000000E+01 0. -1.
         -5    1    3    3    0  502 -0.99906271632E+02 -0.13476793244E+02 -0.14823062434E+03  0.17931167686E+03  0.41800000000E+01 0. -1.
        -11    1    4    4    0    0  0.11863093863E+03  0.36225062048E+02 -0.38098081145E+03  0.40066436504E+03  0.00000000000E+00 0.  1.
         11    1    4    4    0    0 -0.17010093467E+02  0.83195607563E+01 -0.45384546903E+02  0.49176371039E+02  0.00000000000E+00 0. -1.
</event>
<event>
 8    1  0.6627806E-009  0.1002808E+03  0.7561462E-02  0.1279707E+00
          1   -1    0    0  501    0  0.00000000000E+00  0.00000000000E+00  0.10226827498E+04  0.10226827498E+04  0.00000000000E+00 0. -1.
         -1   -1    0    0    0  501 -0.00000000000E+00 -0.00000000000E+00 -0.13800584921E+02  0.13800584921E+02  0.00000000000E+00 0.  1.
         25    2    1    2    0    0 -0.21797880732E+02 -0.33594614686E+02  0.69301104459E+03  0.70534562051E+03  0.12507753880E+03 0.  0.
         23    2    1    2    0    0  0.21797880732E+02  0.33594614686E+02  0.31587112027E+03  0.33113771419E+03  0.90960845415E+02 0.  0.
          5    1    3    3  502    0 -0.52817091277E+02 -0.52081519870E+02  0.61273413735E+03  0.61722177969E+03  0.41800000000E+01 0. -1.
         -5    1    3    3    0  502  0.31019210544E+02  0.18486905184E+02  0.80276907237E+02  0.88123840824E+02  0.41800000000E+01 0. -1.
        -11    1    4    4    0    0  0.47114933588E+02 -0.90519852406E+00  0.93693716412E+02  0.10487682702E+03  0.00000000000E+00 0.  1.
         11    1    4    4    0    0 -0.25317052856E+02  0.34499813210E+02  0.22217740386E+03  0.22626088717E+03  0.00000000000E+00 0. -1.
</event>
<event>
 7    1  0.6627806E-009  0.1041512E+03  0.7561462E-02  0.1271801E+00
          1   -1    0    0  501    0  0.00000000000E+00  0.00000000000E+00  0.45559210541E+03  0.45559210541E+03  0.00000000000E+00 0. -1.
         -1   -1    0    0    0  501 -0.00000000000E+00 -0.00000000000E+00 -0.28024942505E+02  0.28024942505E+02  0.00000000000E+00 0.  1.
         23    2    1    2    0    0 -0.29184630087E+02 -0.95922105953E+01  0.16328530185E+03  0.18975601464E+03  0.91659708456E+02 0.  0.
          5    1    1    2  502    0  0.10364147340E+01  0.64082203079E+02  0.16535150607E+03  0.17738713557E+03  0.41800000000E+01 0.  1.
         -5    1    1    2    0  502  0.28148215353E+02 -0.54489992483E+02  0.98930354984E+02  0.11647389770E+03  0.41800000000E+01 0.  1.
        -11    1    3    3    0    0 -0.23298256313E+02  0.32562333186E+02  0.30548560910E+02  0.50361978350E+02  0.00000000000E+00 0.  1.
         11    1    3    3    0    0 -0.58863737743E+01 -0.42154543781E+02  0.13273674094E+03  0.13939403629E+03  0.00000000000E+00 0. -1.
</event>
<event>
 8    1  0.6627806E-009  0.1620247E+03  0.7561462E-02  0.1186430E+00
          1   -1    0    0  501    0  0.00000000000E+00  0.00000000000E+00  0.21839327991E+03  0.21839327991E+03  0.00000000000E+00 0. -1.
         -1   -1    0    0    0  501 -0.00000000000E+00 -0.00000000000E+00 -0.14162065965E+03  0.14162065965E+03  0.00000000000E+00 0.  1.
         25    2    1    2    0    0 -0.51087237386E+02  0.10870414417E+03  0.90279923398E+02  0.19551177957E+03  0.12509154488E+03 0.  0.
         23    2    1    2    0    0  0.51087237386E+02 -0.10870414417E+03 -0.13507303146E+02  0.16450215998E+03  0.11158860434E+03 0.  0.
          5    1    3    3  502    0 -0.61502583441E+02  0.74873755440E+01  0.43235996208E+01  0.62247847161E+02  0.41800000000E+01 0.  1.
         -5    1    3    3    0  502  0.10415346055E+02  0.10121676863E+03  0.85956323777E+02  0.13326393241E+03  0.41800000000E+01 0.  1.
        -11    1    4    4    0    0  0.73609888188E+02 -0.32164985638E+02 -0.24454704631E+02  0.83970438362E+02  0.00000000000E+00 0.  1.
         11    1    4    4    0    0 -0.22522650802E+02 -0.76539158534E+02  0.10947401485E+02  0.80531721623E+02  0.00000000000E+00 0. -1.
</event>
<event>
 8    1  0.6627806E-009  0.1671284E+03  0.7561462E-02  0.1180876E+00
          2   -1    0    0  501    0  0.00000000000E+00  0.00000000000E+00  0.32105097608E+03  0.32105097608E+03  0.00000000000E+00 0.  1.
         -2   -1    0    0    0  501 -0.00000000000E+00 -0.00000000000E+00 -0.11282039900E+03  0.11282039900E+03  0.00000000000E+00 0. -1.
         25    2    1    2    0    0 -0.14804958767E+03 -0.33197531961E+02  0.14511123593E+03  0.24438777807E+03  0.12508940298E+03 0.  0.
         23    2    1    2    0    0  0.14804958767E+03  0.33197531961E+02  0.63119341144E+02  0.18948359702E+03  0.94335707848E+02 0.  0.
          5    1    3    3  502    0 -0.10297955147E+02 -0.29689541758E+02  0.90870238835E+02  0.96241308573E+02  0.41800000000E+01 0.  1.
         -5    1    3    3    0  502 -0.13775163252E+03 -0.35079902035E+01  0.54240997098E+02  0.14814646949E+03  0.41800000000E+01 0.  1.
        -11    1    4    4    0    0  0.12715882008E+03  0.20308920278E+01  0.77922047008E+02  0.14914870249E+03  0.00000000000E+00 0.  1.
         11    1    4    4    0    0  0.20890767591E+02  0.31166639934E+02 -0.14802705864E+02  0.40334894523E+02  0.00000000000E+00 0. -1.
</event>
<event>
 8    1  0.6627806E-009  0.1166518E+03  0.7561462E-02  0.1248725E+00
          1   -1    0    0  501    0  0.00000000000E+00  0.00000000000E+00  0.52105285099E+03  0.52105285099E+03  0.00000000000E+00 0. -1.
         -1   -1    0    0    0  501 -0.00000000000E+00 -0.00000000000E+00 -0.32243009807E+02  0.32243009807E+02  0.00000000000E+00 0.  1.
         25    2    1    2    0    0 -0.51715404483E+02 -0.15711931879E+02  0.17116819190E+03  0.21878441632E+03  0.12508686199E+03 0.  0.
         23    2    1    2    0    0  0.51715404483E+02  0.15711931879E+02  0.31764164928E+03  0.33451144447E+03  0.89890718439E+02 0.  0.
          5    1    3    3  502    0 -0.84986644577E+02  0.11527331440E+02  0.77650582410E+02  0.11577000680E+03  0.41800000000E+01 0.  1.
         -5    1    3    3    0  502  0.33271240095E+02 -0.27239263320E+02  0.93517609488E+02  0.10301440952E+03  0.41800000000E+01 0.  1.
        -11    1    4    4    0    0 -0.24902123578E+02  0.11696346663E+02  0.68302448594E+02  0.73635214184E+02  0.00000000000E+00 0.  1.
         11    1    4    4    0    0  0.76617528061E+02  0.40155852168E+01  0.24933920069E+03  0.26087623029E+03  0.00000000000E+00 0. -1.
</event>
<event>
 8    1  0.6627806E-009  0.1253362E+03  0.7561462E-02  0.1234545E+00
         -1   -1    0    0    0  501 -0.00000000000E+00  0.00000000000E+00  0.21977573449E+03  0.21977573449E+03  0.00000000000E+00 0.  1.
          1   -1    0    0  501    0  0.00000000000E+00 -0.00000000000E+00 -0.97755948747E+02  0.97755948747E+02  0.00000000000E+00 0. -1.
         25    2    1    2    0    0 -0.54100932790E+02 -0.81212152604E+02  0.52623044281E+02  0.16714746892E+03  0.12508703737E+03 0.  0.
         23    2    1    2    0    0  0.54100932790E+02  0.81212152604E+02  0.69396741458E+02  0.15038421431E+03  0.90979005977E+02 0.  0.
          5    1    3    3  502    0  0.16913979730E+02 -0.52316955057E+02  0.69313674103E+02  0.88572028961E+02  0.41800000000E+01 0. -1.
         -5    1    3    3    0  502 -0.71014912520E+02 -0.28895197548E+02 -0.16690629822E+02  0.78575439963E+02  0.41800000000E+01 0. -1.
        -11    1    4    4    0    0  0.77769297790E+01  0.70855160030E+02  0.64866617202E+01  0.71575213027E+02  0.00000000000E+00 0. -1.
         11    1    4    4    0    0  0.46324003011E+02  0.10356992575E+02  0.62910079738E+02  0.78809001280E+02  0.00000000000E+00 0.  1.
</event>
<event>
 8    1  0.6627806E-009  0.1576353E+03  0.7561462E-02  0.1191393E+00
          2   -1    0    0  501    0  0.00000000000E+00  0.00000000000E+00  0.11414890537E+04  0.11414890537E+04  0.00000000000E+00 0. -1.
         -2   -1    0    0    0  501 -0.00000000000E+00 -0.00000000000E+00 -0.37686258209E+02  0.37686258209E+02  0.00000000000E+00 0.  1.
         25    2    1    2    0    0 -0.33904272930E+02 -0.14532283350E+03  0.30859164766E+03  0.36488953875E+03  0.12508934738E+03 0.  0.
         23    2    1    2    0    0  0.33904272930E+02  0.14532283350E+03  0.79521114784E+03  0.81428577317E+03  0.91827692291E+02 0.  0.
          5    1    3    3  502    0  0.14402722414E+01 -0.10923223627E+03  0.29161727561E+03  0.31143516767E+03  0.41800000000E+01 0.  1.
         -5    1    3    3    0  502 -0.35344545171E+02 -0.36090597230E+02  0.16974372048E+02  0.53454371086E+02  0.41800000000E+01 0.  1.
        -11    1    4    4    0    0  0.44275163810E+02  0.11653496342E+03  0.74594842865E+03  0.75629342588E+03  0.00000000000E+00 0. -1.
         11    1    4    4    0    0 -0.10370890881E+02  0.28787870077E+02  0.49262719192E+02  0.57992347283E+02  0.00000000000E+00 0.  1.
</event>
<event>
 8    1  0.6627806E-009  0.1181436E+03  0.7561462E-02  0.1246191E+00
          1   -1    0    0  501    0  0.00000000000E+00  0.00000000000E+00  0.25524798945E+03  0.25524798945E+03  0.00000000000E+00 0. -1.
         -1   -1    0    0    0  501 -0.00000000000E+00 -0.00000000000E+00 -0.12590042009E+03  0.12590042009E+03  0.00000000000E+00 0.  1.
         25    2    1    2    0    0 -0.86643567202E+02  0.10621436817E+02  0.18802116237E+03  0.24211345141E+03  0.12508814171E+03 0.  0.
         23    2    1    2    0    0  0.86643567202E+02 -0.10621436817E+02 -0.58673593018E+02  0.13903495813E+03  0.90929678364E+02 0.  0.
          5    1    3    3  502    0  0.13140733067E+02 -0.26304745863E+02  0.98887141737E+02  0.10325094538E+03  0.41800000000E+01 0.  1.
         -5    1    3    3    0  502 -0.99784300269E+02  0.36926182680E+02  0.89134020636E+02  0.13886250603E+03  0.41800000000E+01 0.  1.
        -11    1    4    4    0    0  0.76580357084E+02  0.99329200712E+01 -0.12642608234E+01  0.77232197610E+02  0.00000000000E+00 0. -1.
         11    1    4    4    0    0  0.10063210118E+02 -0.20554356888E+02 -0.57409332195E+02  0.61802760521E+02  0.00000000000E+00 0.  1.
</event>
<event>
 8    1  0.6627806E-009  0.7916399E+02  0.7561462E-02  0.1331441E+00
          2   -1    0    0  501    0  0.00000000000E+00  0.00000000000E+00  0.13682954953E+03  0.13682954953E+03  0.00000000000E+00 0. -1.
         -2   -1    0    0    0  501 -0.00000000000E+00 -0.00000000000E+00 -0.85417198196E+02  0.85417198196E+02  0.00000000000E+00 0.  1.
         25    2    1    2    0    0  0.22681133969E+02 -0.98913848924E+01  0.17832162424E+02  0.12875640151E+03  0.12509177263E+03 0.  0.
         23    2    1    2    0    0 -0.22681133969E+02  0.98913848924E+01  0.33580188912E+02  0.93490346222E+02  0.83669244147E+02 0.  0.
          5    1    3    3  502    0  0.49756619560E+02  0.16079261566E+02 -0.35555121328E+02  0.63371151916E+02  0.41800000000E+01 0. -1.
         -5    1    3    3    0  502 -0.27075485592E+02 -0.25970646459E+02  0.53387283752E+02  0.65385249590E+02  0.41800000000E+01 0. -1.
        -11    1    4    4    0    0  0.19205050456E+02  0.16985597719E+02 -0.14399639522E+02  0.29405681615E+02  0.00000000000E+00 0.  1.
         11    1    4    4    0    0 -0.41886184424E+02 -0.70942128265E+01  0.47979828434E+02  0.64084664607E+02  0.00000000000E+00 0. -1.
</event>
<event>
 8    1  0.6627806E-009  0.1109105E+03  0.7561462E-02  0.1258893E+00
          2   -1    0    0  501    0  0.00000000000E+00  0.00000000000E+00  0.36023447855E+03  0.36023447855E+03  0.00000000000E+00 0. -1.
         -2   -1    0    0    0  501 -0.00000000000E+00 -0.00000000000E+00 -0.62565286746E+02  0.62565286746E+02  0.00000000000E+00 0.  1.
         25    2    1    2    0    0 -0.81699721368E+02  0.68328408318E+02  0.17827544462E+03  0.24243032380E+03  0.12508681740E+03 0.  0.
         23    2    1    2    0    0  0.81699721368E+02 -0.68328408318E+02  0.11939374719E+03  0.18036944150E+03  0.83274562179E+02 0.  0.
          5    1    3    3  502    0 -0.61730511653E+02  0.66605981091E+02  0.34549016798E+02  0.97252864985E+02  0.41800000000E+01 0. -1.
         -5    1    3    3    0  502 -0.19969209715E+02  0.17224272265E+01  0.14372642782E+03  0.14517745881E+03  0.41800000000E+01 0. -1.
        -11    1    4    4    0    0  0.28506741516E+02 -0.42827965337E+02  0.50359640864E+01  0.51693615283E+02  0.00000000000E+00 0. -1.
         11    1    4    4    0    0  0.53192979852E+02 -0.25500442981E+02  0.11435778310E+03  0.12867582622E+03  0.00000000000E+00 0.  1.
</event>
<event>
 8    1  0.6627806E-009  0.1666249E+03  0.7561462E-02  0.1181414E+00
         -2   -1    0    0    0  501 -0.00000000000E+00  0.00000000000E+00  0.31118993643E+02  0.31118993643E+02  0.00000000000E+00 0.  1.
          2   -1    0    0  501    0  0.00000000000E+00 -0.00000000000E+00 -0.15772420312E+04  0.15772420312E+04  0.00000000000E+00 0. -1.
         25    2    1    2    0    0 -0.82166705793E+02  0.10859281653E+03 -0.12968231864E+04  0.13099391233E+04  0.12508542140E+03 0.  0.
         23    2    1    2    0    0  0.82166705793E+02 -0.10859281653E+03 -0.24929985116E+03  0.29842190154E+03  0.91440954644E+02 0.  0.
          5    1    3    3  502    0  0.32720356456E+02  0.19649613175E+02 -0.21599795767E+03  0.21938395370E+03  0.41800000000E+01 0.  1.
         -5    1    3    3    0  502 -0.11488706225E+03  0.88943203356E+02 -0.10808252287E+04  0.10905551696E+04  0.41800000000E+01 0.  1.
        -11    1    4    4    0    0  0.45416101357E+02 -0.13232043590E+02 -0.28778765465E+02  0.55370809834E+02  0.00000000000E+00 0.  1.
         11    1    4    4    0    0  0.36750604436E+02 -0.95360772941E+02 -0.22052108570E+03  0.24305109170E+03  0.00000000000E+00 0. -1.
</event>
<event>
 8    1  0.6627806E-009  0.1163852E+03  0.7561462E-02  0.1249182E+00
         -2   -1    0    0    0  501 -0.00000000000E+00  0.00000000000E+00  0.46676203423E+02  0.46676203423E+02  0.00000000000E+00 0.  1.
          2   -1    0    0  501    0  0.00000000000E+00 -0.00000000000E+00 -0.39819756644E+03  0.39819756644E+03  0.00000000000E+00 0. -1.
         25    2    1    2    0    0  0.16894812829E+02 -0.29202322313E+02 -0.29957759401E+03  0.32639416878E+03  0.12509279857E+03 0.  0.
         23    2    1    2    0    0 -0.16894812829E+02  0.29202322313E+02 -0.51943769010E+02  0.11847960108E+03  0.10100024953E+03 0.  0.
          5    1    3    3  502    0 -0.41409721250E+02 -0.51459372133E+02 -0.17240556066E+03  0.18467263398E+03  0.41800000000E+01 0.  1.
         -5    1    3    3    0  502  0.58304534078E+02  0.22257049820E+02 -0.12717203335E+03  0.14172153480E+03  0.41800000000E+01 0.  1.
        -11    1    4    4    0    0  0.36385169647E+02  0.34947007831E+02 -0.37846258240E+02  0.63067528803E+02  0.00000000000E+00 0. -1.
         11    1    4    4    0    0 -0.53279982476E+02 -0.57446855179E+01 -0.14097510770E+02  0.55412072279E+02  0.00000000000E+00 0.  1.
</event>
<event>
 8    1  0.6627806E-009  0.1104967E+03  0.7561462E-02  0.1259653E+00
         -2   -1    0    0    0  501 -0.00000000000E+00  0.00000000000E+00  0.11444373686E+03  0.11444373686E+03  0.00000000000E+00 0.  1.
          2   -1    0    0  501    0  0.00000000000E+00 -0.00000000000E+00 -0.14177653319E+03  0.14177653319E+03  0.00000000000E+00 0. -1.
         25    2    1    2    0    0 -0.37364121421E+02  0.47263724058E+02  0.99616320062E+01  0.13920048565E+03  0.12509038297E+03 0.  0.
         23    2    1    2    0    0  0.37364121421E+02 -0.47263724058E+02 -0.37294428336E+02  0.11701978440E+03  0.93127967740E+02 0.  0.
          5    1    3    3  502    0  0.34735589798E+02  0.86989527406E+00  0.35292422291E+02  0.49702569225E+02  0.41800000000E+01 0.  1.
         -5    1    3    3    0  502 -0.72099711220E+02  0.46393828784E+02 -0.25330790285E+02  0.89497916421E+02  0.41800000000E+01 0.  1.
        -11    1    4    4    0    0  0.48248378653E+02  0.33716955393E+01  0.69998842179E+01  0.48869957566E+02  0.00000000000E+00 0.  1.
         11    1    4    4    0    0 -0.10884257231E+02 -0.50635419597E+02 -0.44294312554E+02  0.68149826836E+02  0.00000000000E+00 0. -1.
</event>
<event>
 7    1  0.6627806E-009  0.1093844E+03  0.7561462E-02  0.1261714E+00
         -1   -1    0    0    0  501 -0.00000000000E+00  0.00000000000E+00  0.94090543453E+02  0.94090543453E+02  0.00000000000E+00 0.  1.
          1   -1    0    0  501    0  0.00000000000E+00 -0.00000000000E+00 -0.16718945882E+03  0.16718945882E+03  0.00000000000E+00 0. -1.
         23    2    1    2    0    0  0.24108880722E+02  0.36752472373E+02  0.10367442578E+02  0.10442485609E+03  0.94154576890E+02 0.  0.
          5    1    1    2  502    0  0.40584897047E+02  0.40074061442E+01 -0.66968855743E+02  0.78520654683E+02  0.41800000000E+01 0. -1.
         -5    1    1    2    0  502 -0.64693777769E+02 -0.40759878517E+02 -0.16497502197E+02  0.78334491493E+02  0.41800000000E+01 0. -1.
        -11    1    3    3    0    0 -0.33625970602E+02  0.25911665618E+02  0.16100259822E+02  0.45401967803E+02  0.00000000000E+00 0.  1.
         11    1    3    3    0    0  0.57734851324E+02  0.10840806754E+02 -0.57328172443E+01  0.59022888290E+02  0.00000000000E+00 0. -1.
</event>
<event>
 8    1  0.6627806E-009  0.1001573E+03  0.7561462E-02  0.1279966E+00
         -2   -1    0    0    0  501 -0.00000000000E+00  0.00000000000E+00  0.45943713309E+02  0.45943713309E+02  0.00000000000E+00 0.  1.
          2   -1    0    0  501    0  0.00000000000E+00 -0.00000000000E+00 -0.40503881567E+03  0.40503881567E+03  0.00000000000E+00 0. -1.
         25    2    1    2    0    0  0.77288615222E+02  0.12413030286E+01 -0.24442786558E+03  0.28525062034E+03  0.12509142279E+03 0.  0.
         23    2    1    2    0    0 -0.77288615222E+02 -0.12413030286E+01 -0.11466723679E+03  0.16573190865E+03  0.91342320286E+02 0.  0.
          5    1    3    3  502    0  0.68690561984E+00  0.96978435697E+00  0.14531151612E+02  0.15167039533E+02  0.41800000000E+01 0. -1.
         -5    1    3    3    0  502  0.76601709602E+02  0.27151867159E+00 -0.25895901719E+03  0.27008358080E+03  0.41800000000E+01 0. -1.
        -11    1    4    4    0    0 -0.47223316452E+02  0.44255546414E+02 -0.69003164859E+02  0.94604607529E+02  0.00000000000E+00 0. -1.
         11    1    4    4    0    0 -0.30065298770E+02 -0.45496849442E+02 -0.45664071930E+02  0.71127301119E+02  0.00000000000E+00 0.  1.
</event>
<event>
 8    1  0.6627806E-009  0.1128227E+03  0.7561462E-02  0.1255430E+00
         -2   -1    0    0    0  501 -0.00000000000E+00  0.00000000000E+00  0.28154653041E+02  0.28154653041E+02  0.00000000000E+00 0.  1.
          2   -1    0    0  501    0  0.00000000000E+00 -0.00000000000E+00 -0.59958749426E+03  0.59958749426E+03  0.00000000000E+00 0. -1.
         25    2    1    2    0    0  0.69602468009E+02 -0.10851112945E+02 -0.29284506241E+03  0.32615010183E+03  0.12511358097E+03 0.  0.
         23    2    1    2    0    0 -0.69602468009E+02  0.10851112945E+02 -0.27858777881E+03  0.30159204547E+03  0.91566157412E+02 0.  0.
          5    1    3    3  502    0 -0.24062232588E+01  0.46792260501E+02 -0.13877571625E+03  0.14653148936E+03  0.41800000000E+01 0. -1.
         -5    1    3    3    0  502  0.72008691268E+02 -0.57643373446E+02 -0.15406934616E+03  0.17961861247E+03  0.41800000000E+01 0. -1.
        -11    1    4    4    0    0 -0.49755034766E+02 -0.16552025103E+02 -0.25502594282E+03  0.26036083524E+03  0.00000000000E+00 0. -1.
         11    1    4    4    0    0 -0.19847433243E+02  0.27403138048E+02 -0.23561835992E+02  0.41231210224E+02  0.00000000000E+00 0.  1.
</event>
<event>
 8    1  0.6627806E-009  0.1119640E+03  0.7561462E-02  0.1256976E+00
          2   -1    0    0  501    0  0.00000000000E+00  0.00000000000E+00  0.17446845745E+03  0.17446845745E+03  0.00000000000E+00 0. -1.
         -2   -1    0    0    0  501 -0.00000000000E+00 -0.00000000000E+00 -0.79058582525E+02  0.79058582525E+02  0.00000000000E+00 0.  1.
         25    2    1    2    0    0  0.32678765211E+02 -0.26022985483E+02  0.72124461117E+02  0.15031387731E+03  0.12508887381E+03 0.  0.
         23    2    1    2    0    0 -0.32678765211E+02  0.26022985483E+02  0.23285413803E+02  0.10321316266E+03  0.91463921747E+02 0.  0.
          5    1    3    3  502    0  0.60245206965E+02  0.26401694414E+02  0.14321609481E+02  0.67447129875E+02  0.41800000000E+01 0. -1.
         -5    1    3    3    0  502 -0.27566441754E+02 -0.52424679897E+02  0.57802851636E+02  0.82866747435E+02  0.41800000000E+01 0. -1.
        -11    1    4    4    0    0  0.57150201677E+01  0.51981870590E+02  0.22314759013E+02  0.56857055810E+02  0.00000000000E+00 0.  1.
         11    1    4    4    0    0 -0.38393785378E+02 -0.25958885107E+02  0.97065479032E+00  0.46356106851E+02  0.00000000000E+00 0. -1.
</event>
<event>
 8    1  0.6627806E-009  0.1088472E+03  0.7561462E-02  0.1262720E+00
          1   -1    0    0  501    0  0.00000000000E+00  0.00000000000E+00  0.40850194271E+03  0.40850194271E+03  0.00000000000E+00 0. -1.
         -1   -1    0    0    0  501 -0.00000000000E+00 -0.00000000000E+00 -0.35662753131E+02  0.35662753131E+02  0.00000000000E+00 0.  1.
         25    2    1    2    0    0 -0.65680514577E+01 -0.13896386429E+02  0.12360750385E+03  0.17653027181E+03  0.12509145854E+03 0.  0.
         23    2    1    2    0    0  0.65680514577E+01  0.13896386429E+02  0.24923168573E+03  0.26763442403E+03  0.96309412314E+02 0.  0.
          5    1    3    3  502    0  0.59179282667E+02 -0.48786205830E+01  0.57230667363E+02  0.82576086869E+02  0.41800000000E+01 0.  1.
         -5    1    3    3    0  502 -0.65747334125E+02 -0.90177658461E+01  0.66376836486E+02  0.93954184937E+02  0.41800000000E+01 0.  1.
        -11    1    4    4    0    0  0.39048161152E+02 -0.20719727923E+02  0.75053834623E+02  0.87104214055E+02  0.00000000000E+00 0.  1.
         11    1    4    4    0    0 -0.32480109694E+02  0.34616114353E+02  0.17417785111E+03  0.18053020998E+03  0.00000000000E+00 0. -1.
</event>
<event>
 8    1  0.6627806E-009  0.9781698E+02  0.7561462E-02  0.1284955E+00
          2   -1    0    0  501    0  0.00000000000E+00  0.00000000000E+00  0.66715085116E+03  0.66715085116E+03  0.00000000000E+00 0. -1.
         -2   -1    0    0    0  501 -0.00000000000E+00 -0.00000000000E+00 -0.24330188908E+02  0.24330188908E+02  0.00000000000E+00 0.  1.
         25    2    1    2    0    0  0.46976336699E+02 -0.21685653819E+02  0.47114650496E+03  0.49020843071E+03  0.12509289593E+03 0.  0.
         23    2    1    2    0    0 -0.46976336699E+02  0.21685653819E+02  0.17167415729E+03  0.20127260936E+03  0.91441802280E+02 0.  0.
          5    1    3    3  502    0  0.75883530177E+02 -0.12637444063E+01  0.16121797229E+03  0.17823752184E+03  0.41800000000E+01 0.  1.
         -5    1    3    3    0  502 -0.28907193478E+02 -0.20421909412E+02  0.30992853267E+03  0.31197090887E+03  0.41800000000E+01 0.  1.
        -11    1    4    4    0    0 -0.23318856991E+02 -0.23421873665E+02  0.14573442740E+02  0.36121164027E+02  0.00000000000E+00 0.  1.
         11    1    4    4    0    0 -0.23657479708E+02  0.45107527484E+02  0.15710071455E+03  0.16515144533E+03  0.00000000000E+00 0. -1.
</event>
<event>
 8    1  0.6627806E-009  0.7357249E+02  0.7561462E-02  0.1348349E+00
          1   -1    0    0  501    0  0.00000000000E+00  0.00000000000E+00  0.66691154194E+03  0.66691154194E+03  0.00000000000E+00 0. -1.
         -1   -1    0    0    0  501 -0.00000000000E+00 -0.00000000000E+00 -0.21685578740E+02  0.21685578740E+02  0.00000000000E+00 0.  1.
         25    2    1    2    0    0  0.16838953438E+02  0.49769293641E+02  0.36265403637E+03  0.38720189447E+03  0.12508726570E+03 0.  0.
         23    2    1    2    0    0 -0.16838953438E+02 -0.49769293641E+02  0.28257192682E+03  0.30139522621E+03  0.90728471886E+02 0.  0.
          5    1    3    3  502    0  0.22876047714E+02  0.32286008189E+01  0.20880722508E+01  0.23570529650E+02  0.41800000000E+01 0. -1.
         -5    1    3    3    0  502 -0.60370942765E+01  0.46540692822E+02  0.36056596412E+03  0.36363136482E+03  0.41800000000E+01 0. -1.
        -11    1    4    4    0    0  0.11415858984E+02  0.68213272121E+01  0.16033097924E+01  0.13394884977E+02  0.00000000000E+00 0.  1.
         11    1    4    4    0    0 -0.28254812421E+02 -0.56590620853E+02  0.28096861703E+03  0.28800034123E+03  0.00000000000E+00 0. -1.
</event>
<event>
 8    1  0.6627806E-009  0.1063442E+03  0.7561462E-02  0.1267494E+00
          1   -1    0    0  501    0  0.00000000000E+00  0.00000000000E+00  0.17130863844E+03  0.17130863844E+03  0.00000000000E+00 0. -1.
         -1   -1    0    0    0  501 -0.00000000000E+00 -0.00000000000E+00 -0.11383789105E+03  0.11383789105E+03  0.00000000000E+00 0.  1.
         25    2    1    2    0    0 -0.69440817556E+02  0.51351435801E+02  0.16291212158E+02  0.15287951875E+03  0.12509095314E+03 0.  0.
         23    2    1    2    0    0  0.69440817556E+02 -0.51351435801E+02  0.41179535237E+02  0.13226701075E+03  0.91322565165E+02 0.  0.
          5    1    3    3  502    0  0.16992749044E+02  0.16449483857E+02  0.48539336819E+02  0.54156058368E+02  0.41800000000E+01 0. -1.
         -5    1    3    3    0  502 -0.86433566600E+02  0.34901951945E+02 -0.32248124660E+02  0.98723460377E+02  0.41800000000E+01 0. -1.
        -11    1    4    4    0    0  0.17082166432E+02 -0.37494306740E+02  0.61831596945E+02  0.74301883076E+02  0.00000000000E+00 0. -1.
         11    1    4    4    0    0  0.52358651123E+02 -0.13857129061E+02 -0.20652061708E+02  0.57965127672E+02  0.00000000000E+00 0.  1.
</event>
<event>
 8    1  0.6627806E-009  0.1150733E+03  0.7561462E-02  0.1251453E+00
         -2   -1    0    0    0  501 -0.00000000000E+00  0.00000000000E+00  0.94585632339E+02  0.94585632339E+02  0.00000000000E+00 0.  1.
          2   -1    0    0  501    0  0.00000000000E+00 -0.00000000000E+00 -0.15314004631E+03  0.15314004631E+03  0.00000000000E+00 0. -1.
         25    2    1    2    0    0  0.29622930436E+02  0.44647246119E+02 -0.31762901013E+02  0.13974166430E+03  0.12509179137E+03 0.  0.
         23    2    1    2    0    0 -0.29622930436E+02 -0.44647246119E+02 -0.26791512960E+02  0.10798401435E+03  0.89843572915E+02 0.  0.
          5    1    3    3  502    0  0.78059448327E+02  0.31085313669E+02 -0.29743793797E+02  0.89228582127E+02  0.41800000000E+01 0.  1.
         -5    1    3    3    0  502 -0.48436517890E+02  0.13561932450E+02 -0.20191072165E+01  0.50513082177E+02  0.41800000000E+01 0.  1.
        -11    1    4    4    0    0  0.25848301216E+02 -0.26903899844E+02  0.10586019216E+02  0.38781674866E+02  0.00000000000E+00 0. -1.
         11    1    4    4    0    0 -0.55471231652E+02 -0.17743346276E+02 -0.37377532176E+02  0.69202339481E+02  0.00000000000E+00 0.  1.
</event>
<event>
 8    1  0.6627806E-009  0.2265760E+03  0.7561462E-02  0.1129073E+00
          1   -1    0    0  501    0  0.00000000000E+00  0.00000000000E+00  0.89509859067E+03  0.89509859067E+03  0.00000000000E+00 0. -1.
         -1   -1    0    0    0  501 -0.00000000000E+00 -0.00000000000E+00 -0.74794747937E+02  0.74794747937E+02  0.00000000000E+00 0.  1.
         25    2    1    2    0    0 -0.10767208829E+02  0.22147782355E+03  0.57224471428E+03  0.62632239819E+03  0.12508946534E+03 0.  0.
         23    2    1    2    0    0  0.10767208829E+02 -0.22147782355E+03  0.24805912845E+03  0.34357094042E+03  0.85669719150E+02 0.  0.
          5    1    3    3  502    0 -0.14106241100E+02  0.10771254162E+03  0.12909721147E+03  0.16877363559E+03  0.41800000000E+01 0. -1.
         -5    1    3    3    0  502  0.33390322706E+01  0.11376528193E+03  0.44314750281E+03  0.45754876260E+03  0.41800000000E+01 0. -1.
        -11    1    4    4    0    0  0.25286383424E+02 -0.33307104475E+02  0.16779211553E+02  0.45058920710E+02  0.00000000000E+00 0.  1.
         11    1    4    4    0    0 -0.14519174595E+02 -0.18817071908E+03  0.23127991690E+03  0.29851201971E+03  0.00000000000E+00 0. -1.
</event>
<event>
 8    1  0.6627806E-009  0.1622635E+03  0.7561462E-02  0.1186165E+00
         -1   -1    0    0    0  501 -0.00000000000E+00  0.00000000000E+00  0.11197394117E+03  0.11197394117E+03  0.00000000000E+00 0.  1.
          1   -1    0    0  501    0  0.00000000000E+00 -0.00000000000E+00 -0.26410808841E+03  0.26410808841E+03  0.00000000000E+00 0. -1.
         25    2    1    2    0    0  0.99960512457E+02 -0.85446397319E+02 -0.10222679181E+03  0.20830229791E+03  0.12508532881E+03 0.  0.
         23    2    1    2    0    0 -0.99960512457E+02  0.85446397319E+02 -0.49907355430E+02  0.16777973167E+03  0.91466405676E+02 0.  0.
          5    1    3    3  502    0  0.86306200065E+02 -0.10777566078E+03 -0.45077565823E+02  0.14530592750E+03  0.41800000000E+01 0. -1.
         -5    1    3    3    0  502  0.13654312392E+02  0.22329263462E+02 -0.57149225984E+02  0.62996370405E+02  0.41800000000E+01 0. -1.
        -11    1    4    4    0    0 -0.10123354180E+03  0.10175022508E+03 -0.47848870568E+02  0.15129723297E+03  0.00000000000E+00 0. -1.
         11    1    4    4    0    0  0.12730293439E+01 -0.16303827763E+02 -0.20584848622E+01  0.16482498699E+02  0.00000000000E+00 0.  1.
</event>
<event>
 8    1  0.6627806E-009  0.1391398E+03  0.7561462E-02  0.1214491E+00
         -1   -1    0    0    0  501 -0.00000000000E+00  0.00000000000E+00  0.19847805071E+03  0.19847805071E+03  0.00000000000E+00 0.  1.
          1   -1    0    0  501    0  0.00000000000E+00 -0.00000000000E+00 -0.13630122102E+03  0.13630122102E+03  0.00000000000E+00 0. -1.
         25    2    1    2    0    0  0.27746297844E+02  0.11901885488E+03  0.43195046370E+02  0.18014190374E+03  0.12509975457E+03 0.  0.
         23    2    1    2    0    0 -0.27746297844E+02 -0.11901885488E+03  0.18981783325E+02  0.15463736798E+03  0.92828134847E+02 0.  0.
          5    1    3    3  502    0  0.56213358936E+01  0.76565981403E+02 -0.38021811614E+02  0.85773419448E+02  0.41800000000E+01 0.  1.
         -5    1    3    3    0  502  0.22124961950E+02  0.42452873472E+02  0.81216857985E+02  0.94368484295E+02  0.41800000000E+01 0.  1.
        -11    1    4    4    0    0 -0.57525583847E+02 -0.43377685910E+02  0.57608297539E+01  0.72277268843E+02  0.00000000000E+00 0.  1.
         11    1    4    4    0    0  0.29779286004E+02 -0.75641168965E+02  0.13220953571E+02  0.82360099141E+02  0.00000000000E+00 0. -1.
</event>
<event>
 8    1  0.6627806E-009  0.2407825E+03  0.7561462E-02  0.1119273E+00
         -3   -1    0    0    0  501 -0.00000000000E+00  0.00000000000E+00  0.44410542479E+03  0.44410542479E+03  0.00000000000E+00 0.  1.
          3   -1    0    0  501    0  0.00000000000E+00 -0.00000000000E+00 -0.14611741549E+03  0.14611741549E+03  0.00000000000E+00 0. -1.
         25    2    1    2    0    0 -0.12133216659E+01  0.22045498175E+03  0.23032427839E+03  0.34249021113E+03  0.12509356648E+03 0.  0.
         23    2    1    2    0    0  0.12133216659E+01 -0.22045498175E+03  0.67663730914E+02  0.24773262915E+03  0.90505270202E+02 0.  0.
          5    1    3    3  502    0  0.68497315721E+01  0.23461217894E+03  0.22413672979E+03  0.32456823530E+03  0.41800000000E+01 0.  1.
         -5    1    3    3    0  502 -0.80630532380E+01 -0.14157197189E+02  0.61875486036E+01  0.17921975825E+02  0.41800000000E+01 0.  1.
        -11    1    4    4    0    0 -0.29462784410E+02 -0.15412294892E+03  0.14952273894E+02  0.15762458419E+03  0.00000000000E+00 0. -1.
         11    1    4    4    0    0  0.30676106076E+02 -0.66332032835E+02  0.52711457020E+02  0.90108044952E+02  0.00000000000E+00 0.  1.
</event>
<event>
 8    1  0.6627806E-009  0.1664935E+03  0.7561462E-02  0.1181555E+00
         -1   -1    0    0    0  501 -0.00000000000E+00  0.00000000000E+00  0.38219674112E+03  0.38219674112E+03  0.00000000000E+00 0.  1.
          1   -1    0    0  501    0  0.00000000000E+00 -0.00000000000E+00 -0.89530345535E+02  0.89530345535E+02  0.00000000000E+00 0. -1.
         25    2    1    2    0    0  0.53412729879E+02  0.12989022533E+03  0.88011031658E+02  0.20764851264E+03  0.12509025844E+03 0.  0.
         23    2    1    2    0    0 -0.53412729879E+02 -0.12989022533E+03  0.20465536393E+03  0.26407857402E+03  0.90162547219E+02 0.  0.
          5    1    3    3  502    0 -0.35994838454E+02  0.24953747490E+02 -0.72711977487E-01  0.43997677168E+02  0.41800000000E+01 0. -1.
         -5    1    3    3    0  502  0.89407568334E+02  0.10493647784E+03  0.88083743635E+02  0.16365083547E+03  0.41800000000E+01 0. -1.
        -11    1    4    4    0    0  0.50811612495E+01 -0.58734155156E+02  0.13893201046E+03  0.15092257191E+03  0.00000000000E+00 0.  1.
         11    1    4    4    0    0 -0.58493891129E+02 -0.71156070176E+02  0.65723353473E+02  0.11315600211E+03  0.00000000000E+00 0. -1.
</event>
<event>
 8    1  0.6627806E-009  0.1445997E+03  0.7561462E-02  0.1207270E+00
         -1   -1    0    0    0  501 -0.00000000000E+00  0.00000000000E+00  0.25673897443E+03  0.25673897443E+03  0.00000000000E+00 0.  1.
          1   -1    0    0  501    0  0.00000000000E+00 -0.00000000000E+00 -0.10321485056E+03  0.10321485056E+03  0.00000000000E+00 0. -1.
         25    2    1    2    0    0 -0.11671843925E+03 -0.78552983807E+01  0.46523297250E+02  0.17747255641E+03  0.12508873378E+03 0.  0.
         23    2    1    2    0    0  0.11671843925E+03  0.78552983807E+01  0.10700082663E+03  0.18248126858E+03  0.90362252682E+02 0.  0.
          5    1    3    3  502    0  0.71366283158E+01 -0.41535730928E+02  0.17428491065E+02  0.45797086242E+02  0.41800000000E+01 0.  1.
         -5    1    3    3    0  502 -0.12385506756E+03  0.33680432548E+02  0.29094806185E+02  0.13167547017E+03  0.41800000000E+01 0.  1.
        -11    1    4    4    0    0  0.24468022512E+02 -0.58678068278E+01  0.82213892605E+02  0.85978133382E+02  0.00000000000E+00 0.  1.
         11    1    4    4    0    0  0.92250416734E+02  0.13723105209E+02  0.24786934023E+02  0.96503135195E+02  0.00000000000E+00 0. -1.
</event>
<event>
 8    1  0.6627806E-009  0.6709315E+02  0.7561462E-02  0.1370266E+00
         -2   -1    0    0    0  501 -0.00000000000E+00  0.00000000000E+00  0.14166985095E+02  0.14166985095E+02  0.00000000000E+00 0. -1.
          2   -1    0    0  501    0  0.00000000000E+00 -0.00000000000E+00 -0.13960102023E+04  0.13960102023E+04  0.00000000000E+00 0.  1.
         25    2    1    2    0    0  0.37739653855E+02  0.12659927280E+02 -0.11526033709E+04  0.11600546777E+04  0.12509104427E+03 0.  0.
         23    2    1    2    0    0 -0.37739653855E+02 -0.12659927280E+02 -0.22923984630E+03  0.25012250971E+03  0.91792197392E+02 0.  0.
          5    1    3    3  502    0  0.39191772195E+02 -0.16518344174E+01 -0.10227091775E+03  0.10961540303E+03  0.41800000000E+01 0.  1.
         -5    1    3    3    0  502 -0.14521183402E+01  0.14311761697E+02 -0.10503324532E+04  0.10504392747E+04  0.41800000000E+01 0.  1.
        -11    1    4    4    0    0  0.33580697895E+01 -0.33506846109E+02 -0.28363626908E+02  0.44028180751E+02  0.00000000000E+00 0. -1.
         11    1    4    4    0    0 -0.41097723645E+02  0.20846918829E+02 -0.20087621939E+03  0.20609432896E+03  0.00000000000E+00 0.  1.
</event>
<event>
 8    1  0.6627806E-009  0.1434059E+03  0.7561462E-02  0.1208818E+00
          2   -1    0    0  501    0  0.00000000000E+00  0.00000000000E+00  0.74327413212E+03  0.74327413212E+03  0.00000000000E+00 0. -1.
         -2   -1    0    0    0  501 -0.00000000000E+00 -0.00000000000E+00 -0.38415863736E+02  0.38415863736E+02  0.00000000000E+00 0.  1.
         25    2    1    2    0    0  0.91859818516E+02  0.66746545276E+02  0.51610249746E+03  0.54304940337E+03  0.12509012370E+03 0.  0.
         23    2    1    2    0    0 -0.91859818516E+02 -0.66746545276E+02  0.18875577092E+03  0.23864059249E+03  0.91800129429E+02 0.  0.
          5    1    3    3  502    0  0.78722803381E+01  0.56902488844E+02  0.36778670734E+03  0.37226925810E+03  0.41800000000E+01 0. -1.
         -5    1    3    3    0  502  0.83987538178E+02  0.98440564321E+01  0.14831579013E+03  0.17078014527E+03  0.41800000000E+01 0. -1.
        -11    1    4    4    0    0 -0.10654658193E+03 -0.39567449972E+02  0.16122962804E+03  0.19726314956E+03  0.00000000000E+00 0.  1.
         11    1    4    4    0    0  0.14686763413E+02 -0.27179095304E+02  0.27526142884E+02  0.41377442927E+02  0.00000000000E+00 0. -1.
</event>
<event>
 8    1  0.6627806E-009  0.1207064E+03  0.7561462E-02  0.1241936E+00
          1   -1    0    0  501    0  0.00000000000E+00  0.00000000000E+00  0.97418606016E+02  0.97418606016E+02  0.00000000000E+00 0. -1.
         -1   -1    0    0    0  501 -0.00000000000E+00 -0.00000000000E+00 -0.19675896571E+03  0.19675896571E+03  0.00000000000E+00 0.  1.
         25    2    1    2    0    0  0.19778188100E+02 -0.84161331638E+02 -0.65011533946E+02  0.16537442063E+03  0.12509153842E+03 0.  0.
         23    2    1    2    0    0 -0.19778188100E+02  0.84161331638E+02 -0.34328825746E+02  0.12880315110E+03  0.89092519258E+02 0.  0.
          5    1    3    3  502    0  0.53322461715E+02 -0.66628858614E+02  0.50957242102E+01  0.85592806525E+02  0.41800000000E+01 0.  1.
         -5    1    3    3    0  502 -0.33544273615E+02 -0.17532473024E+02 -0.70107258156E+02  0.79781614103E+02  0.41800000000E+01 0.  1.
        -11    1    4    4    0    0 -0.44793364595E+02  0.81155808777E+02 -0.42963759755E+02  0.10216944486E+03  0.00000000000E+00 0. -1.
         11    1    4    4    0    0  0.25015176495E+02  0.30055228613E+01  0.86349340098E+01  0.26633706240E+02  0.00000000000E+00 0.  1.
</event>
<event>
 8    1  0.6627806E-009  0.1980853E+03  0.7561462E-02  0.1151365E+00
         -1   -1    0    0    0  501 -0.00000000000E+00  0.00000000000E+00  0.15060865638E+04  0.15060865638E+04  0.00000000000E+00 0.  1.
          1   -1    0    0  501    0  0.00000000000E+00 -0.00000000000E+00 -0.32411475639E+02  0.32411475639E+02  0.00000000000E+00 0. -1.
         25    2    1    2    0    0  0.17956293517E+03  0.66918661488E+02  0.81086801542E+03  0.84254370478E+03  0.12510795771E+03 0.  0.
         23    2    1    2    0    0 -0.17956293517E+03 -0.66918661488E+02  0.66280707279E+03  0.69595433471E+03  0.91204524687E+02 0.  0.
          5    1    3    3  502    0  0.69377950449E+02  0.37452353055E+02  0.57629317358E+03  0.58167626140E+03  0.41800000000E+01 0.  1.
         -5    1    3    3    0  502  0.11018498472E+03  0.29466308433E+02  0.23457484184E+03  0.26086744338E+03  0.41800000000E+01 0.  1.
        -11    1    4    4    0    0 -0.10295631665E+03 -0.73041246084E+02  0.30695162183E+03  0.33189505105E+03  0.00000000000E+00 0. -1.
         11    1    4    4    0    0 -0.76606618519E+02  0.61225845960E+01  0.35585545096E+03  0.36405928366E+03  0.00000000000E+00 0.  1.
</event>
<event>
 8    1  0.6627806E-009  0.2026628E+03  0.7561462E-02  0.1147512E+00
          1   -1    0    0  501    0  0.00000000000E+00  0.00000000000E+00  0.93822174135E+02  0.93822174135E+02  0.00000000000E+00 0. -1.
         -1   -1    0    0    0  501 -0.00000000000E+00 -0.00000000000E+00 -0.55485559462E+03  0.55485559462E+03  0.00000000000E+00 0.  1.
         25    2    1    2    0    0  0.68564264243E+02  0.17640106914E+03 -0.33306103522E+03  0.40298612189E+03  0.12509902368E+03 0.  0.
         23    2    1    2    0    0 -0.68564264243E+02 -0.17640106914E+03 -0.12797238526E+03  0.24569164686E+03  0.90382843628E+02 0.  0.
          5    1    3    3  502    0 -0.93437967149E+01  0.36976405655E+02 -0.57941739335E+01  0.38802138650E+02  0.41800000000E+01 0. -1.
         -5    1    3    3    0  502  0.77908060958E+02  0.13942466349E+03 -0.32726686129E+03  0.36418398324E+03  0.41800000000E+01 0. -1.
        -11    1    4    4    0    0 -0.17886604763E+02  0.52177072034E+01 -0.23952672521E+02  0.30346097266E+02  0.00000000000E+00 0. -1.
         11    1    4    4    0    0 -0.50677659480E+02 -0.18161877635E+03 -0.10401971274E+03  0.21534554960E+03  0.00000000000E+00 0.  1.
</event>
<event>
 8    1  0.6627806E-009  0.1145115E+03  0.7561462E-02  0.1252436E+00
          1   -1    0    0  501    0  0.00000000000E+00  0.00000000000E+00  0.19229027022E+03  0.19229027022E+03  0.00000000000E+00 0. -1.
         -1   -1    0    0    0  501 -0.00000000000E+00 -0.00000000000E+00 -0.10289613745E+03  0.10289613745E+03  0.00000000000E+00 0.  1.
         25    2    1    2    0    0  0.60795179889E+02  0.63841132110E+02  0.35053204357E+02  0.15699577747E+03  0.12508878032E+03 0.  0.
         23    2    1    2    0    0 -0.60795179889E+02 -0.63841132110E+02  0.54340928413E+02  0.13819063019E+03  0.91498468430E+02 0.  0.
          5    1    3    3  502    0  0.63285542061E+02  0.90587765381E+02  0.54779112441E+02  0.12340756310E+03  0.41800000000E+01 0.  1.
         -5    1    3    3    0  502 -0.24903621714E+01 -0.26746633271E+02 -0.19725908084E+02  0.33588214373E+02  0.41800000000E+01 0.  1.
        -11    1    4    4    0    0 -0.26748715402E+02 -0.12199789163E+02 -0.24297632268E+02  0.38140576361E+02  0.00000000000E+00 0.  1.
         11    1    4    4    0    0 -0.34046464487E+02 -0.51641342947E+02  0.78638560681E+02  0.10005005383E+03  0.00000000000E+00 0. -1.
</event>
<event>
 8    1  0.6627806E-009  0.8091086E+02  0.7561462E-02  0.1326486E+00
          1   -1    0    0  501    0  0.00000000000E+00  0.00000000000E+00  0.16694700262E+03  0.16694700262E+03  0.00000000000E+00 0. -1.
         -1   -1    0    0    0  501 -0.00000000000E+00 -0.00000000000E+00 -0.10553987940E+03  0.10553987940E+03  0.00000000000E+00 0.  1.
         25    2    1    2    0    0  0.55769946682E+02 -0.50986511873E+02  0.25326015026E+02  0.14831628985E+03  0.12508558451E+03 0.  0.
         23    2    1    2    0    0 -0.55769946682E+02  0.50986511873E+02  0.36081108201E+02  0.12417059217E+03  0.91687394138E+02 0.  0.
          5    1    3    3  502    0  0.28396989263E+02 -0.50297825362E+02  0.72999151587E+02  0.93180517104E+02  0.41800000000E+01 0.  1.
         -5    1    3    3    0  502  0.27372957420E+02 -0.68868651037E+00 -0.47673136561E+02  0.55135772749E+02  0.41800000000E+01 0.  1.
        -11    1    4    4    0    0 -0.31201501771E+02  0.35055548260E+02 -0.27342250097E+02  0.54314121708E+02  0.00000000000E+00 0.  1.
         11    1    4    4    0    0 -0.24568444911E+02  0.15930963612E+02  0.63423358298E+02  0.69856470457E+02  0.00000000000E+00 0. -1.
</event>
<event>
 8    1  0.6627806E-009  0.1087455E+03  0.7561462E-02  0.1262911E+00
          1   -1    0    0  501    0  0.00000000000E+00  0.00000000000E+00  0.36414536755E+03  0.36414536755E+03  0.00000000000E+00 0. -1.
         -1   -1    0    0    0  501 -0.00000000000E+00 -0.00000000000E+00 -0.38744058091E+02  0.38744058091E+02  0.00000000000E+00 0.  1.
         25    2    1    2    0    0  0.88912494437E+01  0.10341408678E+02  0.10918763449E+03  0.16659695254E+03  0.12508639422E+03 0.  0.
         23    2    1    2    0    0 -0.88912494437E+01 -0.10341408678E+02  0.21621367497E+03  0.23629247310E+03  0.94338648233E+02 0.  0.
          5    1    3    3  502    0 -0.49421026099E+02  0.36148357753E+02  0.61281035038E+02  0.86729344770E+02  0.41800000000E+01 0. -1.
         -5    1    3    3    0  502  0.58312275543E+02 -0.25806949075E+02  0.47906599447E+02  0.79867607765E+02  0.41800000000E+01 0. -1.
        -11    1    4    4    0    0 -0.44254839215E+02 -0.28321748978E+02  0.15186620136E+03  0.16069833656E+03  0.00000000000E+00 0.  1.
         11    1    4    4    0    0  0.35363589772E+02  0.17980340300E+02  0.64347473610E+02  0.75594136538E+02  0.00000000000E+00 0. -1.
</event>
<event>
 8    1  0.6627806E-009  0.1294598E+03  0.7561462E-02  0.1228259E+00
          2   -1    0    0  501    0  0.00000000000E+00  0.00000000000E+00  0.12690111101E+04  0.12690111101E+04  0.00000000000E+00 0. -1.
         -2   -1    0    0    0  501 -0.00000000000E+00 -0.00000000000E+00 -0.16081394243E+02  0.16081394243E+02  0.00000000000E+00 0.  1.
         25    2    1    2    0    0  0.52689257850E+02 -0.56784836269E+02  0.89529588081E+03  0.90730544892E+03  0.12509111848E+03 0.  0.
         23    2    1    2    0    0 -0.52689257850E+02  0.56784836269E+02  0.35763383508E+03  0.37778705545E+03  0.93917111070E+02 0.  0.
          5    1    3    3  502    0  0.42074333634E+02 -0.91662165920E+02  0.48627521531E+03  0.49664198336E+03  0.41800000000E+01 0. -1.
         -5    1    3    3    0  502  0.10614924216E+02  0.34877329651E+02  0.40902066550E+03  0.41066346556E+03  0.41800000000E+01 0. -1.
        -11    1    4    4    0    0 -0.69231808028E+00  0.68069135915E+02  0.18425130028E+03  0.19642410296E+03  0.00000000000E+00 0.  1.
         11    1    4    4    0    0 -0.51996939770E+02 -0.11284299646E+02  0.17338253480E+03  0.18136295250E+03  0.00000000000E+00 0. -1.
</event>
<event>
 8    1  0.6627806E-009  0.1056627E+03  0.7561462E-02  0.1268819E+00
          2   -1    0    0  501    0  0.00000000000E+00  0.00000000000E+00  0.86417122123E+03  0.86417122123E+03  0.00000000000E+00 0. -1.
         -2   -1    0    0    0  501 -0.00000000000E+00 -0.00000000000E+00 -0.21338534102E+02  0.21338534102E+02  0.00000000000E+00 0.  1.
         25    2    1    2    0    0  0.18363446205E+01 -0.29721735510E+02  0.70894477607E+03  0.72050953277E+03  0.12507812588E+03 0.  0.
         23    2    1    2    0    0 -0.18363446205E+01  0.29721735510E+02  0.13388791105E+03  0.16500022256E+03  0.91718847540E+02 0.  0.
          5    1    3    3  502    0 -0.22662125292E+02 -0.73397765979E+02  0.37551176681E+03  0.38331105304E+03  0.41800000000E+01 0.  1.
         -5    1    3    3    0  502  0.24498469912E+02  0.43676030468E+02  0.33343300927E+03  0.33719847973E+03  0.41800000000E+01 0.  1.
        -11    1    4    4    0    0 -0.39760098902E+02  0.84038810669E+01  0.24924770187E+02  0.47673208939E+02  0.00000000000E+00 0.  1.
         11    1    4    4    0    0  0.37923754281E+02  0.21317854444E+02  0.10896314087E+03  0.11732701362E+03  0.00000000000E+00 0. -1.
</event>
<event>
 8    1  0.6627806E-009  0.1564965E+03  0.7561462E-02  0.1192710E+00
          2   -1    0    0  501    0  0.00000000000E+00  0.00000000000E+00  0.44717680293E+02  0.44717680293E+02  0.00000000000E+00 0. -1.
         -2   -1    0    0    0  501 -0.00000000000E+00 -0.00000000000E+00 -0.69825784268E+03  0.69825784268E+03  0.00000000000E+00 0.  1.
         25    2    1    2    0    0 -0.43636597601E+02  0.12708898940E+03 -0.42203361675E+03  0.46024414513E+03  0.12512607874E+03 0.  0.
         23    2    1    2    0    0  0.43636597601E+02 -0.12708898940E+03 -0.23150654563E+03  0.28273137784E+03  0.91027399547E+02 0.  0.
          5    1    3    3  502    0  0.20477769174E+02  0.75860155189E+02 -0.96577827602E+02  0.12457468186E+03  0.41800000000E+01 0.  1.
         -5    1    3    3    0  502 -0.64114366774E+02  0.51228834212E+02 -0.32545578915E+03  0.33566946327E+03  0.41800000000E+01 0.  1.
        -11    1    4    4    0    0 -0.15477262846E+02 -0.63299334181E+02 -0.52371697455E+02  0.83601112835E+02  0.00000000000E+00 0. -1.
         11    1    4    4    0    0  0.59113860446E+02 -0.63789655220E+02 -0.17913484818E+03  0.19913026501E+03  0.00000000000E+00 0.  1.
</event>
<event>
 8    1  0.6627806E-009  0.8001758E+02  0.7561462E-02  0.1329002E+00
          1   -1    0    0  501    0  0.00000000000E+00  0.00000000000E+00  0.87490842911E+02  0.87490842911E+02  0.00000000000E+00 0. -1.
         -1   -1    0    0    0  501 -0.00000000000E+00 -0.00000000000E+00 -0.17286616831E+03  0.17286616831E+03  0.00000000000E+00 0.  1.
         25    2    1    2    0    0 -0.13899448538E+02  0.19086470306E+02  0.20108441796E+01  0.12731306388E+03  0.12508830769E+03 0.  0.
         23    2    1    2    0    0  0.13899448538E+02 -0.19086470306E+02 -0.87386169575E+02  0.13304394734E+03  0.97503134675E+02 0.  0.
          5    1    3    3  502    0 -0.33894696936E+02  0.19581923897E+02  0.56645812635E+02  0.68982046309E+02  0.41800000000E+01 0.  1.
         -5    1    3    3    0  502  0.19995248398E+02 -0.49545359161E+00 -0.54634968455E+02  0.58331017571E+02  0.41800000000E+01 0.  1.
        -11    1    4    4    0    0 -0.24748763446E+02 -0.46619789486E+02 -0.48773901871E+02  0.71866539972E+02  0.00000000000E+00 0. -1.
         11    1    4    4    0    0  0.38648211984E+02  0.27533319180E+02 -0.38612267704E+02  0.61177407365E+02  0.00000000000E+00 0.  1.
</event>
<event>
 8    1  0.6627806E-009  0.3346584E+03  0.7561462E-02  0.1069094E+00
          2   -1    0    0  501    0  0.00000000000E+00  0.00000000000E+00  0.65765099431E+03  0.65765099431E+03  0.00000000000E+00 0. -1.
         -2   -1    0    0    0  501 -0.00000000000E+00 -0.00000000000E+00 -0.18387011210E+03  0.18387011210E+03  0.00000000000E+00 0.  1.
         25    2    1    2    0    0  0.32396886630E+03  0.31933087191E+02  0.17205271600E+03  0.38887722189E+03  0.12509119965E+03 0.  0.
         23    2    1    2    0    0 -0.32396886630E+03 -0.31933087191E+02  0.30172816620E+03  0.45264388452E+03  0.88718946828E+02 0.  0.
          5    1    3    3  502    0  0.22039555717E+03 -0.23750930334E+02  0.68278504987E+02  0.23198649736E+03  0.41800000000E+01 0.  1.
         -5    1    3    3    0  502  0.10357330913E+03  0.55684017525E+02  0.10377421102E+03  0.15689072453E+03  0.41800000000E+01 0.  1.
        -11    1    4    4    0    0 -0.19137222994E+03 -0.45327292386E+02  0.22510754346E+03  0.29891687799E+03  0.00000000000E+00 0.  1.
         11    1    4    4    0    0 -0.13259663636E+03  0.13394205195E+02  0.76620622744E+02  0.15372700653E+03  0.00000000000E+00 0. -1.
</event>
<event>
 8    1  0.6627806E-009  0.1837953E+03  0.7561462E-02  0.1164180E+00
         -1   -1    0    0    0  501 -0.00000000000E+00  0.00000000000E+00  0.62880134046E+02  0.62880134046E+02  0.00000000000E+00 0.  1.
          1   -1    0    0  501    0  0.00000000000E+00 -0.00000000000E+00 -0.65397380955E+03  0.65397380955E+03  0.00000000000E+00 0. -1.
         25    2    1    2    0    0  0.19213880552E+02 -0.15924117399E+03 -0.41567568945E+03  0.46277549022E+03  0.12509176969E+03 0.  0.
         23    2    1    2    0    0 -0.19213880552E+02  0.15924117399E+03 -0.17541798605E+03  0.25407845337E+03  0.89763388644E+02 0.  0.
          5    1    3    3  502    0 -0.29218019456E+02 -0.13163276102E+03 -0.35743910650E+03  0.38204850961E+03  0.41800000000E+01 0.  1.
         -5    1    3    3    0  502  0.48431900008E+02 -0.27608412969E+02 -0.58236582949E+02  0.80726980611E+02  0.41800000000E+01 0.  1.
        -11    1    4    4    0    0 -0.46827752665E+02  0.77984238586E+02 -0.55306778240E+02  0.10645759535E+03  0.00000000000E+00 0.  1.
         11    1    4    4    0    0  0.27613872113E+02  0.81256935402E+02 -0.12011120781E+03  0.14762085803E+03  0.00000000000E+00 0. -1.
</event>
<event>
 8    1  0.6627806E-009  0.1077156E+03  0.7561462E-02  0.1264860E+00
          2   -1    0    0  501    0  0.00000000000E+00  0.00000000000E+00  0.18930831419E+04  0.18930831419E+04  0.00000000000E+00 0. -1.
         -2   -1    0    0    0  501 -0.00000000000E+00 -0.00000000000E+00 -0.13879826607E+02  0.13879826607E+02  0.00000000000E+00 0.  1.
         25    2    1    2    0    0  0.50191010202E+02 -0.64579782181E+00  0.16429044413E+04  0.16484259699E+04  0.12511442848E+03 0.  0.
         23    2    1    2    0    0 -0.50191010202E+02  0.64579782181E+00  0.23629887395E+03  0.25853699863E+03  0.92112253647E+02 0.  0.
          5    1    3    3  502    0  0.45568017786E+02  0.53456832827E+02  0.12202567779E+04  0.12222839906E+04  0.41800000000E+01 0. -1.
         -5    1    3    3    0  502  0.46229924169E+01 -0.54102630649E+02  0.42264766339E+03  0.42614197924E+03  0.41800000000E+01 0. -1.
        -11    1    4    4    0    0 -0.17399372636E+02  0.37459337990E+02  0.45408076523E+02  0.61382681469E+02  0.00000000000E+00 0.  1.
         11    1    4    4    0    0 -0.32791637566E+02 -0.36813540168E+02  0.19089079743E+03  0.19715431716E+03  0.00000000000E+00 0. -1.
</event>
<event>
 8    1  0.6627806E-009  0.1238539E+03  0.7561462E-02  0.1236871E+00
         -1   -1    0    0    0  501 -0.00000000000E+00  0.00000000000E+00  0.58700725776E+02  0.58700725776E+02  0.00000000000E+00 0.  1.
          1   -1    0    0  501    0  0.00000000000E+00 -0.00000000000E+00 -0.29154832602E+03  0.29154832602E+03  0.00000000000E+00 0. -1.
         25    2    1    2    0    0 -0.33005454096E+02  0.58464543402E+02 -0.10526459387E+03  0.17672882464E+03  0.12507989406E+03 0.  0.
         23    2    1    2    0    0  0.33005454096E+02 -0.58464543402E+02 -0.12758300637E+03  0.17352022716E+03  0.96562844217E+02 0.  0.
          5    1    3    3  502    0  0.29413022514E+02  0.69600529060E+02 -0.74263903140E+02  0.10602810594E+03  0.41800000000E+01 0. -1.
         -5    1    3    3    0  502 -0.62418476609E+02 -0.11135985658E+02 -0.31000690734E+02  0.70700718700E+02  0.41800000000E+01 0. -1.
        -11    1    4    4    0    0 -0.23336090708E+02 -0.44802764270E+02 -0.93488494790E+02  0.10626363194E+03  0.00000000000E+00 0. -1.
         11    1    4    4    0    0  0.56341544804E+02 -0.13661779133E+02 -0.34094511580E+02  0.67256595215E+02  0.00000000000E+00 0.  1.
</event>
<event>
 8    1  0.6627806E-009  0.1201804E+03  0.7561462E-02  0.1242800E+00
         -3   -1    0    0    0  501 -0.00000000000E+00  0.00000000000E+00  0.49175971085E+03  0.49175971085E+03  0.00000000000E+00 0.  1.
          3   -1    0    0  501    0  0.00000000000E+00 -0.00000000000E+00 -0.58779275243E+02  0.58779275243E+02  0.00000000000E+00 0. -1.
         25    2    1    2    0    0 -0.90962261313E+02 -0.32925495596E+02  0.89077135522E+02  0.18149388328E+03  0.12508825824E+03 0.  0.
         23    2    1    2    0    0  0.90962261313E+02  0.32925495596E+02  0.34390330009E+03  0.36904510282E+03  0.92555858058E+02 0.  0.
          5    1    3    3  502    0 -0.67003671141E+02 -0.43498050294E+02 -0.84373469844E+01  0.80437761965E+02  0.41800000000E+01 0. -1.
         -5    1    3    3    0  502 -0.23958590172E+02  0.10572554699E+02  0.97514482506E+02  0.10105612131E+03  0.41800000000E+01 0. -1.
        -11    1    4    4    0    0  0.24782843810E+02  0.58003480929E+02  0.16633422791E+03  0.17789229473E+03  0.00000000000E+00 0.  1.
         11    1    4    4    0    0  0.66179417504E+02 -0.25077985334E+02  0.17756907217E+03  0.19115280809E+03  0.00000000000E+00 0. -1.
</event>
<event>
 8    1  0.6627806E-009  0.1803307E+03  0.7561462E-02  0.1167483E+00
          3   -1    0    0  501    0  0.00000000000E+00  0.00000000000E+00  0.52033365623E+03  0.52033365623E+03  0.00000000000E+00 0. -1.
         -3   -1    0    0    0  501 -0.00000000000E+00 -0.00000000000E+00 -0.67252204649E+02  0.67252204649E+02  0.00000000000E+00 0.  1.
         25    2    1    2    0    0  0.94900430297E+02  0.11263343523E+03  0.29786034187E+03  0.35503721568E+03  0.12505302416E+03 0.  0.
         23    2    1    2    0    0 -0.94900430297E+02 -0.11263343523E+03  0.15522110971E+03  0.23254864521E+03  0.91065345139E+02 0.  0.
          5    1    3    3  502    0  0.36280012774E+02 -0.20858157222E+02  0.10594041011E+03  0.11398309060E+03  0.41800000000E+01 0.  1.
         -5    1    3    3    0  502  0.58620417523E+02  0.13349159245E+03  0.19191993177E+03  0.24105412507E+03  0.41800000000E+01 0.  1.
        -11    1    4    4    0    0 -0.55202324069E+02 -0.20328054237E+01  0.57261987635E+02  0.79563585317E+02  0.00000000000E+00 0. -1.
         11    1    4    4    0    0 -0.39698106228E+02 -0.11060062981E+03  0.97959122076E+02  0.15298505989E+03  0.00000000000E+00 0.  1.
</event>
<event>
 8    1  0.6627806E-009  0.2019336E+03  0.7561462E-02  0.1148118E+00
         -1   -1    0    0    0  501 -0.00000000000E+00  0.00000000000E+00  0.35823649571E+03  0.35823649571E+03  0.00000000000E+00 0.  1.
          1   -1    0    0  501    0  0.00000000000E+00 -0.00000000000E+00 -0.12109884369E+03  0.12109884369E+03  0.00000000000E+00 0. -1.
         25    2    1    2    0    0  0.17202302370E+03 -0.29960350025E+02  0.84952772975E+02  0.23098546136E+03  0.12509103273E+03 0.  0.
         23    2    1    2    0    0 -0.17202302370E+03  0.29960350025E+02  0.15218487904E+03  0.24834987804E+03  0.89598444509E+02 0.  0.
          5    1    3    3  502    0  0.16441024084E+03  0.12515304886E+02  0.89041602218E+02  0.18743862856E+03  0.41800000000E+01 0. -1.
         -5    1    3    3    0  502  0.76127828547E+01 -0.42475654911E+02 -0.40888292426E+01  0.43546832807E+02  0.41800000000E+01 0. -1.
        -11    1    4    4    0    0 -0.10599599847E+03  0.61344525998E+02  0.10519400445E+03  0.16144373984E+03  0.00000000000E+00 0.  1.
         11    1    4    4    0    0 -0.66027025230E+02 -0.31384175973E+02  0.46990874590E+02  0.86906138201E+02  0.00000000000E+00 0. -1.
</event>
<event>
 8    1  0.6627806E-009  0.1435735E+03  0.7561462E-02  0.1208600E+00
          1   -1    0    0  501    0  0.00000000000E+00  0.00000000000E+00  0.80646995638E+03  0.80646995638E+03  0.00000000000E+00 0. -1.
         -1   -1    0    0    0  501 -0.00000000000E+00 -0.00000000000E+00 -0.37461061023E+02  0.37461061023E+02  0.00000000000E+00 0.  1.
         25    2    1    2    0    0 -0.51544035702E+02 -0.11375183808E+03  0.53644449277E+03  0.56481521956E+03  0.12508904883E+03 0.  0.
         23    2    1    2    0    0  0.51544035702E+02  0.11375183808E+03  0.23256440259E+03  0.27911579785E+03  0.90681635264E+02 0.  0.
          5    1    3    3  502    0 -0.44492140418E+02 -0.43735581582E+02  0.73345362597E+02  0.96381358518E+02  0.41800000000E+01 0. -1.
         -5    1    3    3    0  502 -0.70518952841E+01 -0.70016256498E+02  0.46309913017E+03  0.46843386104E+03  0.41800000000E+01 0. -1.
        -11    1    4    4    0    0  0.56615476030E+02  0.19714258550E+02  0.97653757558E+02  0.11458717416E+03  0.00000000000E+00 0.  1.
         11    1    4    4    0    0 -0.50714403282E+01  0.94037579530E+02  0.13491064503E+03  0.16452862369E+03  0.00000000000E+00 0. -1.
</event>
<event>
 8    1  0.6627806E-009  0.2426268E+03  0.7561462E-02  0.1118055E+00
         -2   -1    0    0    0  501 -0.00000000000E+00  0.00000000000E+00  0.53506283674E+02  0.53506283674E+02  0.00000000000E+00 0.  1.
          2   -1    0    0  501    0  0.00000000000E+00 -0.00000000000E+00 -0.11765209375E+04  0.11765209375E+04  0.00000000000E+00 0. -1.
         25    2    1    2    0    0 -0.20028920147E+03  0.91755026037E+02 -0.45663448257E+03  0.52220341676E+03  0.12508640526E+03 0.  0.
         23    2    1    2    0    0  0.20028920147E+03 -0.91755026037E+02 -0.66638017126E+03  0.70782380442E+03  0.91745607061E+02 0.  0.
          5    1    3    3  502    0 -0.16761077860E+03  0.13646903302E+02 -0.31639665063E+03  0.35833493271E+03  0.41800000000E+01 0.  1.
         -5    1    3    3    0  502 -0.32678422870E+02  0.78108122735E+02 -0.14023783194E+03  0.16386848405E+03  0.41800000000E+01 0.  1.
        -11    1    4    4    0    0  0.11588099818E+03 -0.12627174881E+02 -0.41566732778E+03  0.43170265076E+03  0.00000000000E+00 0. -1.
         11    1    4    4    0    0  0.84408203292E+02 -0.79127851157E+02 -0.25071284348E+03  0.27612115366E+03  0.00000000000E+00 0.  1.
</event>
<event>
 8    1  0.6627806E-009  0.2618414E+03  0.7561462E-02  0.1106042E+00
         -2   -1    0    0    0  501 -0.00000000000E+00  0.00000000000E+00  0.29855884457E+02  0.29855884457E+02  0.00000000000E+00 0.  1.
          2   -1    0    0  501    0  0.00000000000E+00 -0.00000000000E+00 -0.24787787876E+04  0.24787787876E+04  0.00000000000E+00 0. -1.
         25    2    1    2    0    0  0.23533125934E+03  0.74566745374E+02 -0.13944420211E+04  0.14216390576E+04  0.12509220099E+03 0.  0.
         23    2    1    2    0    0 -0.23533125934E+03 -0.74566745374E+02 -0.10544808820E+04  0.10869956144E+04  0.93212306651E+02 0.  0.
          5    1    3    3  502    0  0.21879145846E+03  0.97890421794E+02 -0.11020537090E+04  0.11278262663E+04  0.41800000000E+01 0.  1.
         -5    1    3    3    0  502  0.16539800874E+02 -0.23323676420E+02 -0.29238831211E+03  0.29381279134E+03  0.41800000000E+01 0.  1.
        -11    1    4    4    0    0 -0.14521539059E+03 -0.12743294510E+02 -0.73569200017E+03  0.74999508021E+03  0.00000000000E+00 0. -1.
         11    1    4    4    0    0 -0.90115868751E+02 -0.61823450864E+02 -0.31878888184E+03  0.33700053421E+03  0.00000000000E+00 0.  1.
</event>
<event>
 8    1  0.6627806E-009  0.2403774E+03  0.7561462E-02  0.1119542E+00
          2   -1    0    0  501    0  0.00000000000E+00  0.00000000000E+00  0.55454009854E+03  0.55454009854E+03  0.00000000000E+00 0. -1.
         -2   -1    0    0    0  501 -0.00000000000E+00 -0.00000000000E+00 -0.12526869790E+03  0.12526869790E+03  0.00000000000E+00 0.  1.
         25    2    1    2    0    0  0.20328576796E+03  0.81105614445E+02  0.10155699912E+03  0.27178289771E+03  0.12509554456E+03 0.  0.
         23    2    1    2    0    0 -0.20328576796E+03 -0.81105614445E+02  0.32771440152E+03  0.40802589872E+03  0.10576001568E+03 0.  0.
          5    1    3    3  502    0  0.14591005792E+02  0.44226108754E+02 -0.12229878489E+02  0.48331030130E+02  0.41800000000E+01 0.  1.
         -5    1    3    3    0  502  0.18869476217E+03  0.36879505692E+02  0.11378687761E+03  0.22345186758E+03  0.41800000000E+01 0.  1.
        -11    1    4    4    0    0 -0.96588102635E+02  0.15413413347E+02  0.15441161713E+03  0.18278343028E+03  0.00000000000E+00 0.  1.
         11    1    4    4    0    0 -0.10669766533E+03 -0.96519027792E+02  0.17330278438E+03  0.22524246844E+03  0.00000000000E+00 0. -1.
</event>
<event>
 8    1  0.6627806E-009  0.1174807E+03  0.7561462E-02  0.1247312E+00
          1   -1    0    0  501    0  0.00000000000E+00  0.00000000000E+00  0.43726346609E+03  0.43726346609E+03  0.00000000000E+00 0. -1.
         -1   -1    0    0    0  501 -0.00000000000E+00 -0.00000000000E+00 -0.38951911764E+02  0.38951911764E+02  0.00000000000E+00 0.  1.
         25    2    1    2    0    0 -0.50581291341E+02  0.41378354098E+02  0.27800869764E+03  0.31177848445E+03  0.12508537957E+03 0.  0.
         23    2    1    2    0    0  0.50581291341E+02 -0.41378354098E+02  0.12030285669E+03  0.16443689341E+03  0.91082815961E+02 0.  0.
          5    1    3    3  502    0  0.31423943629E+02 -0.80255420798E+01  0.13995936709E+03  0.14372880850E+03  0.41800000000E+01 0. -1.
         -5    1    3    3    0  502 -0.82005234970E+02  0.49403896178E+02  0.13804933055E+03  0.16804967595E+03  0.41800000000E+01 0. -1.
        -11    1    4    4    0    0  0.30709842866E+01 -0.56492421121E+02  0.37805881904E+02  0.68044906460E+02  0.00000000000E+00 0.  1.
         11    1    4    4    0    0  0.47510307054E+02  0.15114067023E+02  0.82496974790E+02  0.96391986948E+02  0.00000000000E+00 0. -1.
</event>
<event>
 8    1  0.6627806E-009  0.1289985E+03  0.7561462E-02  0.1228949E+00
         -2   -1    0    0    0  501 -0.00000000000E+00  0.00000000000E+00  0.24161450157E+02  0.24161450157E+02  0.00000000000E+00 0.  1.
          2   -1    0    0  501    0  0.00000000000E+00 -0.00000000000E+00 -0.76571538879E+03  0.76571538879E+03  0.00000000000E+00 0. -1.
         25    2    1    2    0    0  0.51729454357E+02  0.52948458051E+02 -0.30662211637E+03  0.33932972198E+03  0.12509221526E+03 0.  0.
         23    2    1    2    0    0 -0.51729454357E+02 -0.52948458051E+02 -0.43493182226E+03  0.45054711696E+03  0.91364867020E+02 0.  0.
          5    1    3    3  502    0  0.64381086009E+02  0.85078654513E+02 -0.19379883450E+03  0.22126627024E+03  0.41800000000E+01 0.  1.
         -5    1    3    3    0  502 -0.12651631652E+02 -0.32130196462E+02 -0.11282328186E+03  0.11806345175E+03  0.41800000000E+01 0.  1.
        -11    1    4    4    0    0 -0.49085969877E+02 -0.77504697386E+02 -0.31443088756E+03  0.32754113269E+03  0.00000000000E+00 0. -1.
         11    1    4    4    0    0 -0.26434844803E+01  0.24556239335E+02 -0.12050093471E+03  0.12300598427E+03  0.00000000000E+00 0.  1.
</event>
<event>
 7    1  0.6627806E-009  0.1219636E+03  0.7561462E-02  0.1239893E+00
         -1   -1    0    0    0  501 -0.00000000000E+00  0.00000000000E+00  0.15259962519E+02  0.15259962519E+02  0.00000000000E+00 0.  1.
          1   -1    0    0  501    0  0.00000000000E+00 -0.00000000000E+00 -0.44113436431E+04  0.44113436431E+04  0.00000000000E+00 0. -1.
         25    2    1    2    0    0  0.42408555000E+02  0.82738608036E+02 -0.39006480422E+04  0.39037605942E+04  0.12508982851E+03 0.  0.
          5    1    3    3  502    0  0.31625965465E+02 -0.46825982120E+01 -0.25293333201E+03  0.25498013895E+03  0.41800000000E+01 0. -1.
         -5    1    3    3    0  502  0.10782589535E+02  0.87421206248E+02 -0.36477147102E+04  0.36487804553E+04  0.41800000000E+01 0. -1.
        -11    1    1    2    0    0 -0.66281920021E+02 -0.50210450536E+02 -0.46480615185E+03  0.47218549434E+03  0.00000000000E+00 0. -1.
         11    1    1    2    0    0  0.23873365021E+02 -0.32528157500E+02 -0.30629486522E+02  0.50657517037E+02  0.00000000000E+00 0.  1.
</event>
<event>
 8    1  0.6627806E-009  0.1536165E+03  0.7561462E-02  0.1196098E+00
         -2   -1    0    0    0  501 -0.00000000000E+00  0.00000000000E+00  0.95870053876E+02  0.95870053876E+02  0.00000000000E+00 0. -1.
          2   -1    0    0  501    0  0.00000000000E+00 -0.00000000000E+00 -0.35670457980E+03  0.35670457980E+03  0.00000000000E+00 0.  1.
         25    2    1    2    0    0  0.56519943457E+02 -0.11670696406E+03 -0.47152265756E+02  0.18624098745E+03  0.12508936714E+03 0.  0.
         23    2    1    2    0    0 -0.56519943457E+02  0.11670696406E+03 -0.21368226017E+03  0.26633364623E+03  0.91970013212E+02 0.  0.
          5    1    3    3  502    0  0.27634195520E+02 -0.13806393486E+03 -0.22944110577E+02  0.14272071847E+03  0.41800000000E+01 0. -1.
         -5    1    3    3    0  502  0.28885747937E+02  0.21356970792E+02 -0.24208155179E+02  0.43520268984E+02  0.41800000000E+01 0. -1.
        -11    1    4    4    0    0 -0.13820908687E+02  0.41230975692E+02 -0.15657547139E+03  0.16250196649E+03  0.00000000000E+00 0.  1.
         11    1    4    4    0    0 -0.42699034771E+02  0.75475988373E+02 -0.57106788785E+02  0.10383167973E+03  0.00000000000E+00 0. -1.
</event>
<event>
 8    1  0.6627806E-009  0.1174799E+03  0.7561462E-02  0.1247313E+00
         -1   -1    0    0    0  501 -0.00000000000E+00  0.00000000000E+00  0.32711940265E+02  0.32711940265E+02  0.00000000000E+00 0.  1.
          1   -1    0    0  501    0  0.00000000000E+00 -0.00000000000E+00 -0.57416534114E+03  0.57416534114E+03  0.00000000000E+00 0. -1.
         25    2    1    2    0    0  0.31486475396E+02  0.50788043808E+02 -0.42773371244E+03  0.44962907850E+03  0.12505741062E+03 0.  0.
         23    2    1    2    0    0 -0.31486475396E+02 -0.50788043808E+02 -0.11371968844E+03  0.15724820291E+03  0.90686306860E+02 0.  0.
          5    1    3    3  502    0  0.76620677115E+02  0.35497807165E+02 -0.33216823691E+03  0.34275943821E+03  0.41800000000E+01 0.  1.
         -5    1    3    3    0  502 -0.45134201718E+02  0.15290236643E+02 -0.95565475535E+02  0.10686964029E+03  0.41800000000E+01 0.  1.
        -11    1    4    4    0    0 -0.58788642973E+02 -0.21658650099E+02 -0.42839252949E+02  0.75897320506E+02  0.00000000000E+00 0. -1.
         11    1    4    4    0    0  0.27302167576E+02 -0.29129393708E+02 -0.70880435490E+02  0.81350882401E+02  0.00000000000E+00 0.  1.
</event>
<event>
 8    1  0.6627806E-009  0.1575622E+03  0.7561462E-02  0.1191477E+00
         -1   -1    0    0    0  501 -0.00000000000E+00  0.00000000000E+00  0.30344139566E+03  0.30344139566E+03  0.00000000000E+00 0.  1.
          1   -1    0    0  501    0  0.00000000000E+00 -0.00000000000E+00 -0.10479598066E+03  0.10479598066E+03  0.00000000000E+00 0. -1.
         25    2    1    2    0    0  0.11926466095E+03  0.62175083163E+02  0.53108314457E+02  0.19119975147E+03  0.12508817522E+03 0.  0.
         23    2    1    2    0    0 -0.11926466095E+03 -0.62175083163E+02  0.14553710054E+03  0.21703762485E+03  0.88512612936E+02 0.  0.
          5    1    3    3  502    0  0.12268976987E+03  0.86109231844E+02  0.21962626086E+02  0.15155002073E+03  0.41800000000E+01 0.  1.
         -5    1    3    3    0  502 -0.34251089110E+01 -0.23934148681E+02  0.31145688371E+02  0.39649730746E+02  0.41800000000E+01 0.  1.
        -11    1    4    4    0    0 -0.33365261716E+02 -0.39676255160E+02  0.10960429969E+03  0.12124581817E+03  0.00000000000E+00 0.  1.
         11    1    4    4    0    0 -0.85899399239E+02 -0.22498828004E+02  0.35932800855E+02  0.95791806687E+02  0.00000000000E+00 0. -1.
</event>
<event>
 8    1  0.6627806E-009  0.1391337E+03  0.7561462E-02  0.1214499E+00
          3   -1    0    0  501    0  0.00000000000E+00  0.00000000000E+00  0.17141600727E+02  0.17141600727E+02  0.00000000000E+00 0. -1.
         -3   -1    0    0    0  501 -0.00000000000E+00 -0.00000000000E+00 -0.12540799375E+04  0.12540799375E+04  0.00000000000E+00 0.  1.
         25    2    1    2    0    0 -0.76773334627E+02  0.61240728825E+02 -0.66422605279E+03  0.68299954031E+03  0.12509017184E+03 0.  0.
         23    2    1    2    0    0  0.76773334627E+02 -0.61240728825E+02 -0.57271228398E+03  0.58822199791E+03  0.91439525505E+02 0.  0.
          5    1    3    3  502    0 -0.71578600329E+02  0.94866390221E+02 -0.42472961302E+03  0.44106217769E+03  0.41800000000E+01 0.  1.
         -5    1    3    3    0  502 -0.51947342978E+01 -0.33625661396E+02 -0.23949643977E+03  0.24193736262E+03  0.41800000000E+01 0.  1.
        -11    1    4    4    0    0  0.67128227068E+02 -0.79725767064E+02 -0.53566982151E+03  0.54571471895E+03  0.00000000000E+00 0.  1.
         11    1    4    4    0    0  0.96451075594E+01  0.18485038239E+02 -0.37042462476E+02  0.42507278963E+02  0.00000000000E+00 0. -1.
</event>
<event>
 8    1  0.6627806E-009  0.1249312E+03  0.7561462E-02  0.1235177E+00
          2   -1    0    0  501    0  0.00000000000E+00  0.00000000000E+00  0.48539126533E+02  0.48539126533E+02  0.00000000000E+00 0. -1.
         -2   -1    0    0    0  501 -0.00000000000E+00 -0.00000000000E+00 -0.34180728618E+03  0.34180728618E+03  0.00000000000E+00 0.  1.
         25    2    1    2    0    0 -0.58216389109E+02 -0.33329267330E+02 -0.18915532120E+03  0.23648965107E+03  0.12509049326E+03 0.  0.
         23    2    1    2    0    0  0.58216389109E+02  0.33329267330E+02 -0.10411283845E+03  0.15385676164E+03  0.91282155710E+02 0.  0.
          5    1    3    3  502    0 -0.57980415530E+02 -0.75488112767E+02 -0.10196412060E+03  0.13955048565E+03  0.41800000000E+01 0.  1.
         -5    1    3    3    0  502 -0.23597357931E+00  0.42158845437E+02 -0.87191200593E+02  0.96939165423E+02  0.41800000000E+01 0.  1.
        -11    1    4    4    0    0  0.79355653978E+02  0.88063151153E+01 -0.83201692309E+02  0.11531432091E+03  0.00000000000E+00 0.  1.
         11    1    4    4    0    0 -0.21139264869E+02  0.24522952215E+02 -0.20911146143E+02  0.38542440731E+02  0.00000000000E+00 0. -1.
</event>
<event>
 8    1  0.6627806E-009  0.1519348E+03  0.7561462E-02  0.1198115E+00
          2   -1    0    0  501    0  0.00000000000E+00  0.00000000000E+00  0.26124184160E+03  0.26124184160E+03  0.00000000000E+00 0.  1.
         -2   -1    0    0    0  501 -0.00000000000E+00 -0.00000000000E+00 -0.10158545806E+03  0.10158545806E+03  0.00000000000E+00 0. -1.
         25    2    1    2    0    0 -0.11562467841E+03  0.31850589948E+02  0.36580679664E+02  0.17710243618E+03  0.12507437962E+03 0.  0.
         23    2    1    2    0    0  0.11562467841E+03 -0.31850589948E+02  0.12307570387E+03  0.18572486348E+03  0.70445508681E+02 0.  0.
          5    1    3    3  502    0 -0.12677184024E+01 -0.33460679433E+02 -0.13225309235E+02  0.36243694382E+02  0.41800000000E+01 0.  1.
         -5    1    3    3    0  502 -0.11435696001E+03  0.65311269381E+02  0.49805988898E+02  0.14085874180E+03  0.41800000000E+01 0.  1.
        -11    1    4    4    0    0  0.48776924356E+02  0.21043255803E+02  0.56611444064E+02  0.77632870379E+02  0.00000000000E+00 0.  1.
         11    1    4    4    0    0  0.66847754058E+02 -0.52893845750E+02  0.66464259808E+02  0.10809199310E+03  0.00000000000E+00 0. -1.
</event>
<event>
 8    1  0.6627806E-009  0.1514994E+03  0.7561462E-02  0.1198643E+00
         -1   -1    0    0    0  501 -0.00000000000E+00  0.00000000000E+00  0.22494320455E+02  0.22494320455E+02  0.00000000000E+00 0.  1.
          1   -1    0    0  501    0  0.00000000000E+00 -0.00000000000E+00 -0.19316010235E+04  0.19316010235E+04  0.00000000000E+00 0. -1.
         25    2    1    2    0    0  0.10463510297E+03  0.87645169337E+02 -0.15235850748E+04  0.15347935014E+04  0.12509768681E+03 0.  0.
         23    2    1    2    0    0 -0.10463510297E+03 -0.87645169337E+02 -0.38552162820E+03  0.41930184253E+03  0.92503669421E+02 0.  0.
          5    1    3    3  502    0  0.50382100071E+02 -0.87763136124E+00 -0.17355284646E+03  0.18076833008E+03  0.41800000000E+01 0.  1.
         -5    1    3    3    0  502  0.54253002904E+02  0.88522800698E+02 -0.13500322284E+04  0.13540251713E+04  0.41800000000E+01 0.  1.
        -11    1    4    4    0    0 -0.55544473888E+02 -0.82099473539E+02 -0.15831592423E+03  0.18678716230E+03  0.00000000000E+00 0.  1.
         11    1    4    4    0    0 -0.49090629087E+02 -0.55456957974E+01 -0.22720570398E+03  0.23251468024E+03  0.00000000000E+00 0. -1.
</event>
<event>
 8    1  0.6627806E-009  0.2160085E+03  0.7561462E-02  0.1136894E+00
         -1   -1    0    0    0  501 -0.00000000000E+00  0.00000000000E+00  0.42148735774E+02  0.42148735774E+02  0.00000000000E+00 0.  1.
          1   -1    0    0  501    0  0.00000000000E+00 -0.00000000000E+00 -0.13741691306E+04  0.13741691306E+04  0.00000000000E+00 0. -1.
         25    2    1    2    0    0  0.20103516359E+03  0.10017994772E+02 -0.90361070540E+03  0.93417067059E+03  0.12508811955E+03 0.  0.
         23    2    1    2    0    0 -0.20103516359E+03 -0.10017994772E+02 -0.42840968938E+03  0.48214719574E+03  0.91736356953E+02 0.  0.
          5    1    3    3  502    0  0.23288645737E+02  0.23395931002E+02 -0.37140341057E+03  0.37289099800E+03  0.41800000000E+01 0. -1.
         -5    1    3    3    0  502  0.17774651785E+03 -0.13377936230E+02 -0.53220729484E+03  0.56127967259E+03  0.41800000000E+01 0. -1.
        -11    1    4    4    0    0 -0.15761170058E+03  0.31090049538E+02 -0.29376596508E+03  0.33482306011E+03  0.00000000000E+00 0.  1.
         11    1    4    4    0    0 -0.43423463008E+02 -0.41108044310E+02 -0.13464372430E+03  0.14732413563E+03  0.00000000000E+00 0. -1.
</event>
<event>
 8    1  0.6627806E-009  0.6882537E+02  0.7561462E-02  0.1364134E+00
         -2   -1    0    0    0  501 -0.00000000000E+00  0.00000000000E+00  0.14291685991E+03  0.14291685991E+03  0.00000000000E+00 0.  1.
          2   -1    0    0  501    0  0.00000000000E+00 -0.00000000000E+00 -0.10787521867E+03  0.10787521867E+03  0.00000000000E+00 0. -1.
         25    2    1    2    0    0  0.57653264211E+02  0.16154814935E+02  0.28645637395E+02  0.14160670211E+03  0.12508800351E+03 0.  0.
         23    2    1    2    0    0 -0.57653264211E+02 -0.16154814935E+02  0.63960038506E+01  0.10918537646E+03  0.91080517392E+02 0.  0.
          5    1    3    3  502    0  0.54801477524E+02  0.22198642835E+02 -0.40643685629E+02  0.71870461693E+02  0.41800000000E+01 0.  1.
         -5    1    3    3    0  502  0.28517866873E+01 -0.60438278997E+01  0.69289323024E+02  0.69736240421E+02  0.41800000000E+01 0.  1.
        -11    1    4    4    0    0 -0.82340094518E+01 -0.19291463956E+02 -0.37528719810E+02  0.42992607548E+02  0.00000000000E+00 0. -1.
         11    1    4    4    0    0 -0.49419254760E+02  0.31366490211E+01  0.43924723660E+02  0.66192768916E+02  0.00000000000E+00 0.  1.
</event>
<event>
 8    1  0.6627806E-009  0.1960319E+03  0.7561462E-02  0.1153131E+00
          1   -1    0    0  501    0  0.00000000000E+00  0.00000000000E+00  0.38117902855E+03  0.38117902855E+03  0.00000000000E+00 0. -1.
         -1   -1    0    0    0  501 -0.00000000000E+00 -0.00000000000E+00 -0.11420448904E+03  0.11420448904E+03  0.00000000000E+00 0.  1.
         25    2    1    2    0    0  0.78747736117E+02  0.15954074892E+03  0.16155398082E+03  0.27092852076E+03  0.12509243834E+03 0.  0.
         23    2    1    2    0    0 -0.78747736117E+02 -0.15954074892E+03  0.10542055869E+03  0.22445499683E+03  0.87247320294E+02 0.  0.
          5    1    3    3  502    0  0.44344104737E+02  0.15332110860E+03  0.17152538528E+03  0.23433350628E+03  0.41800000000E+01 0.  1.
         -5    1    3    3    0  502  0.34403631380E+02  0.62196403147E+01 -0.99714044594E+01  0.36595014478E+02  0.41800000000E+01 0.  1.
        -11    1    4    4    0    0  0.18549991827E+02 -0.23480344907E+02  0.83834885234E+01  0.31075901814E+02  0.00000000000E+00 0.  1.
         11    1    4    4    0    0 -0.97297727943E+02 -0.13606040401E+03  0.97037070170E+02  0.19337909502E+03  0.00000000000E+00 0. -1.
</event>
<event>
 8    1  0.6627806E-009  0.1283889E+03  0.7561462E-02  0.1229866E+00
         -1   -1    0    0    0  501 -0.00000000000E+00  0.00000000000E+00  0.30238773682E+03  0.30238773682E+03  0.00000000000E+00 0.  1.
          1   -1    0    0  501    0  0.00000000000E+00 -0.00000000000E+00 -0.67917889551E+02  0.67917889551E+02  0.00000000000E+00 0. -1.
         25    2    1    2    0    0 -0.14701828610E+02 -0.77808428636E+02  0.19664802009E+03  0.24614485607E+03  0.12508617441E+03 0.  0.
         23    2    1    2    0    0  0.14701828610E+02  0.77808428636E+02  0.37821827173E+02  0.12416077030E+03  0.87835704246E+02 0.  0.
          5    1    3    3  502    0  0.53878652063E+02 -0.19503811501E+02  0.86350817021E+02  0.10371713364E+03  0.41800000000E+01 0. -1.
         -5    1    3    3    0  502 -0.68580480673E+02 -0.58304617135E+02  0.11029720307E+03  0.14242772242E+03  0.41800000000E+01 0. -1.
        -11    1    4    4    0    0  0.39479404851E+02  0.15954769691E+02 -0.79567459339E+01  0.43318447446E+02  0.00000000000E+00 0. -1.
         11    1    4    4    0    0 -0.24777576241E+02  0.61853658944E+02  0.45778573107E+02  0.80842322857E+02  0.00000000000E+00 0.  1.
</event>
<event>
 8    1  0.6627806E-009  0.1008534E+03  0.7561462E-02  0.1278512E+00
         -2   -1    0    0    0  501 -0.00000000000E+00  0.00000000000E+00  0.63600961030E+03  0.63600961030E+03  0.00000000000E+00 0.  1.
          2   -1    0    0  501    0  0.00000000000E+00 -0.00000000000E+00 -0.23656865378E+02  0.23656865378E+02  0.00000000000E+00 0. -1.
         25    2    1    2    0    0 -0.25650564767E+02  0.32103509175E+02  0.48542159423E+03  0.50296088008E+03  0.12508771312E+03 0.  0.
         23    2    1    2    0    0  0.25650564767E+02 -0.32103509175E+02  0.12693115069E+03  0.15670559560E+03  0.82198174557E+02 0.  0.
          5    1    3    3  502    0 -0.29075549140E+02  0.76407951151E+02  0.37558277678E+03  0.38440012639E+03  0.41800000000E+01 0.  1.
         -5    1    3    3    0  502  0.34249843736E+01 -0.44304441976E+02  0.10983881745E+03  0.11856075369E+03  0.41800000000E+01 0.  1.
        -11    1    4    4    0    0  0.38295534696E+02 -0.43665962514E+02  0.12691283829E+03  0.13957124626E+03  0.00000000000E+00 0.  1.
         11    1    4    4    0    0 -0.12644969929E+02  0.11562453338E+02  0.18312400480E-01  0.17134349333E+02  0.00000000000E+00 0. -1.
</event>
<event>
 8    1  0.6627806E-009  0.7733541E+02  0.7561462E-02  0.1336788E+00
         -4   -1    0    0    0  501 -0.00000000000E+00  0.00000000000E+00  0.68753855955E+03  0.68753855955E+03  0.00000000000E+00 0.  1.
          4   -1    0    0  501    0  0.00000000000E+00 -0.00000000000E+00 -0.24515636498E+02  0.24515636498E+02  0.00000000000E+00 0. -1.
         25    2    1    2    0    0  0.30813332953E+01 -0.28497368852E+02  0.55034443054E+03  0.56510937141E+03  0.12509202524E+03 0.  0.
         23    2    1    2    0    0 -0.30813332953E+01  0.28497368852E+02  0.11267849251E+03  0.14694482464E+03  0.89859580279E+02 0.  0.
          5    1    3    3  502    0 -0.32228955620E+02 -0.15582432798E+02  0.41937119612E+02  0.55296583923E+02  0.41800000000E+01 0.  1.
         -5    1    3    3    0  502  0.35310288915E+02 -0.12914936055E+02  0.50840731093E+03  0.50981278749E+03  0.41800000000E+01 0.  1.
        -11    1    4    4    0    0 -0.25955471056E+02  0.45442563061E+02  0.31880455533E+02  0.61278678676E+02  0.00000000000E+00 0. -1.
         11    1    4    4    0    0  0.22874137761E+02 -0.16945194208E+02  0.80798036979E+02  0.85666145966E+02  0.00000000000E+00 0.  1.
</event>
<event>
 8    1  0.6627806E-009  0.1013230E+03  0.7561462E-02  0.1277538E+00
          1   -1    0    0  501    0  0.00000000000E+00  0.00000000000E+00  0.12374173433E+03  0.12374173433E+03  0.00000000000E+00 0. -1.
         -1   -1    0    0    0  501 -0.00000000000E+00 -0.00000000000E+00 -0.16179345760E+03  0.16179345760E+03  0.00000000000E+00 0.  1.
         25    2    1    2    0    0  0.73170447543E+02 -0.32020672644E+02  0.38865248234E+02  0.15341848628E+03  0.12508991383E+03 0.  0.
         23    2    1    2    0    0 -0.73170447543E+02  0.32020672644E+02 -0.76916971501E+02  0.13211670565E+03  0.71828723620E+02 0.  0.
          5    1    3    3  502    0  0.64969769191E+02  0.24259366435E+01 -0.33121662379E+02  0.73085381548E+02  0.41800000000E+01 0. -1.
         -5    1    3    3    0  502  0.82006783519E+01 -0.34446609287E+02  0.71986910613E+02  0.80333104735E+02  0.41800000000E+01 0. -1.
        -11    1    4    4    0    0 -0.38652775373E+02  0.49778922539E+02 -0.67141934431E+02  0.92087010660E+02  0.00000000000E+00 0.  1.
         11    1    4    4    0    0 -0.34517672169E+02 -0.17758249895E+02 -0.97750370706E+01  0.40029694991E+02  0.00000000000E+00 0. -1.
</event>
<event>
 8    1  0.6627806E-009  0.1022199E+03  0.7561462E-02  0.1275696E+00
          4   -1    0    0  501    0  0.00000000000E+00  0.00000000000E+00  0.99108664352E+02  0.99108664352E+02  0.00000000000E+00 0. -1.
         -4   -1    0    0    0  501 -0.00000000000E+00 -0.00000000000E+00 -0.17045460142E+03  0.17045460142E+03  0.00000000000E+00 0.  1.
         25    2    1    2    0    0  0.50773479618E+02 -0.44977099596E+02 -0.36654554168E+02  0.14693845352E+03  0.12508583877E+03 0.  0.
         23    2    1    2    0    0 -0.50773479618E+02  0.44977099596E+02 -0.34691382904E+02  0.12262481226E+03  0.96085726377E+02 0.  0.
          5    1    3    3  502    0 -0.24825639781E+02 -0.20611081559E+02 -0.56285738013E+02  0.65012966224E+02  0.41800000000E+01 0.  1.
         -5    1    3    3    0  502  0.75599119399E+02 -0.24366018037E+02  0.19631183845E+02  0.81925487292E+02  0.41800000000E+01 0.  1.
        -11    1    4    4    0    0  0.98631607453E+01  0.27567039771E+02 -0.49786528773E+02  0.57757441676E+02  0.00000000000E+00 0.  1.
         11    1    4    4    0    0 -0.60636640363E+02  0.17410059824E+02  0.15095145869E+02  0.64867370584E+02  0.00000000000E+00 0. -1.
</event>
<event>
 8    1  0.6627806E-009  0.7723950E+02  0.7561462E-02  0.1337073E+00
          1   -1    0    0  501    0  0.00000000000E+00  0.00000000000E+00  0.55758995586E+02  0.55758995586E+02  0.00000000000E+00 0. -1.
         -1   -1    0    0    0  501 -0.00000000000E+00 -0.00000000000E+00 -0.23898094936E+03  0.23898094936E+03  0.00000000000E+00 0.  1.
         25    2    1    2    0    0  0.66787682181E+01 -0.10015116945E+02 -0.15952578149E+03  0.20307366019E+03  0.12508208500E+03 0.  0.
         23    2    1    2    0    0 -0.66787682181E+01  0.10015116945E+02 -0.23696172278E+02  0.91666284755E+02  0.87728505446E+02 0.  0.
          5    1    3    3  502    0 -0.25883451895E+02  0.47221528747E+02 -0.42501493414E+02  0.68728998259E+02  0.41800000000E+01 0.  1.
         -5    1    3    3    0  502  0.32562220113E+02 -0.57236645691E+02 -0.11702428808E+03  0.13434466193E+03  0.41800000000E+01 0.  1.
        -11    1    4    4    0    0 -0.80201049371E+01 -0.10896064983E+02 -0.53527598428E+02  0.55210960042E+02  0.00000000000E+00 0.  1.
         11    1    4    4    0    0  0.13413367190E+01  0.20911181928E+02  0.29831426150E+02  0.36455324713E+02  0.00000000000E+00 0. -1.
</event>
<event>
 8    1  0.6627806E-009  0.1416560E+03  0.7561462E-02  0.1211118E+00
          2   -1    0    0  501    0  0.00000000000E+00  0.00000000000E+00  0.98761403757E+03  0.98761403757E+03  0.00000000000E+00 0. -1.
         -2   -1    0    0    0  501 -0.00000000000E+00 -0.00000000000E+00 -0.23826991590E+02  0.23826991590E+02  0.00000000000E+00 0.  1.
         25    2    1    2    0    0  0.71760209945E+02 -0.74053777107E+02  0.63092804971E+03  0.65142247545E+03  0.12509015938E+03 0.  0.
         23    2    1    2    0    0 -0.71760209945E+02  0.74053777107E+02  0.33285899627E+03  0.36001855371E+03  0.90469652278E+02 0.  0.
          5    1    3    3  502    0 -0.10689861951E+01  0.32333889492E+02  0.14901437223E+03  0.15254303875E+03  0.41800000000E+01 0.  1.
         -5    1    3    3    0  502  0.72829196140E+02 -0.10638766660E+03  0.48191367748E+03  0.49887943670E+03  0.41800000000E+01 0.  1.
        -11    1    4    4    0    0  0.74616306744E+01  0.30277707596E+02  0.27667925621E+02  0.41688483035E+02  0.00000000000E+00 0.  1.
         11    1    4    4    0    0 -0.79221840620E+02  0.43776069511E+02  0.30519107065E+03  0.31833007067E+03  0.00000000000E+00 0. -1.
</event>
<event>
 8    1  0.6627806E-009  0.7072744E+02  0.7561462E-02  0.1357637E+00
         -1   -1    0    0    0  501 -0.00000000000E+00  0.00000000000E+00  0.12704258805E+03  0.12704258805E+03  0.00000000000E+00 0.  1.
          1   -1    0    0  501    0  0.00000000000E+00 -0.00000000000E+00 -0.81715455803E+02  0.81715455803E+02  0.00000000000E+00 0. -1.
         25    2    1    2    0    0 -0.91793672292E+01 -0.36122503010E+02  0.16114200351E+02  0.13151285279E+03  0.12508743738E+03 0.  0.
         23    2    1    2    0    0  0.91793672292E+01  0.36122503010E+02  0.29212931892E+02  0.77245191056E+02  0.61027273780E+02 0.  0.
          5    1    3    3  502    0  0.24069955702E+02  0.24597271769E+01 -0.45355186221E+02  0.51574977871E+02  0.41800000000E+01 0. -1.
         -5    1    3    3    0  502 -0.33249322931E+02 -0.38582230187E+02  0.61469386572E+02  0.79937874922E+02  0.41800000000E+01 0. -1.
        -11    1    4    4    0    0 -0.16521380017E+02 -0.50377350199E+01  0.22335756848E+02  0.28235098827E+02  0.00000000000E+00 0.  1.
         11    1    4    4    0    0  0.25700747247E+02  0.41160238029E+02  0.68771750448E+01  0.49010092229E+02  0.00000000000E+00 0. -1.
</event>
<event>
 8    1  0.6627806E-009  0.1239280E+03  0.7561462E-02  0.1236754E+00
          2   -1    0    0  501    0  0.00000000000E+00  0.00000000000E+00  0.75431958948E+03  0.75431958948E+03  0.00000000000E+00 0. -1.
         -2   -1    0    0    0  501 -0.00000000000E+00 -0.00000000000E+00 -0.22305635297E+02  0.22305635297E+02  0.00000000000E+00 0.  1.
         25    2    1    2    0    0  0.46915414453E+02  0.50468215667E+02  0.46900979382E+03  0.49027817619E+03  0.12511757047E+03 0.  0.
         23    2    1    2    0    0 -0.46915414453E+02 -0.50468215667E+02  0.26300416036E+03  0.28634704859E+03  0.89862934309E+02 0.  0.
          5    1    3    3  502    0  0.84940338265E+02  0.52774707069E+02  0.27816437936E+03  0.29562294416E+03  0.41800000000E+01 0.  1.
         -5    1    3    3    0  502 -0.38024923812E+02 -0.23064914025E+01  0.19084541447E+03  0.19465523203E+03  0.41800000000E+01 0.  1.
        -11    1    4    4    0    0 -0.27305233165E+02  0.21562617923E+02  0.52360688136E+02  0.62866238252E+02  0.00000000000E+00 0.  1.
         11    1    4    4    0    0 -0.19610181288E+02 -0.72030833590E+02  0.21064347223E+03  0.22348081034E+03  0.00000000000E+00 0. -1.
</event>
<event>
 8    1  0.6627806E-009  0.1677356E+03  0.7561462E-02  0.1180230E+00
         -1   -1    0    0    0  501 -0.00000000000E+00  0.00000000000E+00  0.22128500697E+03  0.22128500697E+03  0.00000000000E+00 0.  1.
          1   -1    0    0  501    0  0.00000000000E+00 -0.00000000000E+00 -0.19966129176E+03  0.19966129176E+03  0.00000000000E+00 0. -1.
         25    2    1    2    0    0  0.14100382859E+03  0.24144141374E+02  0.11983596489E+03  0.22463201143E+03  0.12503544632E+03 0.  0.
         23    2    1    2    0    0 -0.14100382859E+03 -0.24144141374E+02 -0.98212249673E+02  0.19631428731E+03  0.91807593223E+02 0.  0.
          5    1    3    3  502    0  0.74546151823E+02  0.75287965490E+02  0.67337326718E+02  0.12560730261E+03  0.41800000000E+01 0.  1.
         -5    1    3    3    0  502  0.66457676771E+02 -0.51143824115E+02  0.52498638168E+02  0.99024708818E+02  0.41800000000E+01 0.  1.
        -11    1    4    4    0    0 -0.11233379307E+03 -0.29874846276E+02 -0.11423414228E+03  0.16297492680E+03  0.00000000000E+00 0. -1.
         11    1    4    4    0    0 -0.28670035528E+02  0.57307049016E+01  0.16021892607E+02  0.33339360500E+02  0.00000000000E+00 0.  1.
</event>
<event>
 8    1  0.6627806E-009  0.1334381E+03  0.7561462E-02  0.1222442E+00
         -2   -1    0    0    0  501 -0.00000000000E+00  0.00000000000E+00  0.47858430895E+02  0.47858430895E+02  0.00000000000E+00 0.  1.
          2   -1    0    0  501    0  0.00000000000E+00 -0.00000000000E+00 -0.44073363621E+03  0.44073363621E+03  0.00000000000E+00 0. -1.
         25    2    1    2    0    0 -0.59894185616E+02 -0.73743483423E+02 -0.24389632221E+03  0.29009978982E+03  0.12508819786E+03 0.  0.
         23    2    1    2    0    0  0.59894185616E+02  0.73743483423E+02 -0.14897888310E+03  0.19849227729E+03  0.90438165147E+02 0.  0.
          5    1    3    3  502    0  0.19764191331E+02 -0.51233793637E+02 -0.17124405513E+03  0.17988197155E+03  0.41800000000E+01 0. -1.
         -5    1    3    3    0  502 -0.79658376946E+02 -0.22509689786E+02 -0.72652267080E+02  0.11021781827E+03  0.41800000000E+01 0. -1.
        -11    1    4    4    0    0  0.93747610172E+01  0.77684003338E+02 -0.72004865778E+02  0.10633621779E+03  0.00000000000E+00 0.  1.
         11    1    4    4    0    0  0.50519424598E+02 -0.39405199150E+01 -0.76974017321E+02  0.92156059494E+02  0.00000000000E+00 0. -1.
</event>
<event>
 8    1  0.6627806E-009  0.2229934E+03  0.7561462E-02  0.1131671E+00
          1   -1    0    0  501    0  0.00000000000E+00  0.00000000000E+00  0.42347790328E+03  0.42347790328E+03  0.00000000000E+00 0. -1.
         -1   -1    0    0    0  501 -0.00000000000E+00 -0.00000000000E+00 -0.15383521788E+03  0.15383521788E+03  0.00000000000E+00 0.  1.
         25    2    1    2    0    0  0.18583360292E+03  0.11610518680E+03  0.22147970337E+03  0.33573103208E+03  0.12509006563E+03 0.  0.
         23    2    1    2    0    0 -0.18583360292E+03 -0.11610518680E+03  0.48162982035E+02  0.24158208908E+03  0.89597380284E+02 0.  0.
          5    1    3    3  502    0  0.81660086649E+02  0.27334437294E+02  0.16780437951E+03  0.18865662828E+03  0.41800000000E+01 0.  1.
         -5    1    3    3    0  502  0.10417351627E+03  0.88770749504E+02  0.53675323865E+02  0.14707440379E+03  0.41800000000E+01 0.  1.
        -11    1    4    4    0    0 -0.63411903073E+02 -0.63035603091E+02  0.59923201213E+02  0.10763524865E+03  0.00000000000E+00 0. -1.
         11    1    4    4    0    0 -0.12242169984E+03 -0.53069583707E+02 -0.11760219178E+02  0.13394684043E+03  0.00000000000E+00 0.  1.
</event>
<event>
 8    1  0.6627806E-009  0.1205284E+03  0.7561462E-02  0.1242228E+00
         -2   -1    0    0    0  501 -0.00000000000E+00  0.00000000000E+00  0.93219550071E+02  0.93219550071E+02  0.00000000000E+00 0.  1.
          2   -1    0    0  501    0  0.00000000000E+00 -0.00000000000E+00 -0.19013828212E+03  0.19013828212E+03  0.00000000000E+00 0. -1.
         25    2    1    2    0    0  0.59043049411E+02 -0.26221045995E+02 -0.14522357001E+02  0.14154769599E+03  0.12510486182E+03 0.  0.
         23    2    1    2    0    0 -0.59043049411E+02  0.26221045995E+02 -0.82396375051E+02  0.14181013621E+03  0.95641660234E+02 0.  0.
          5    1    3    3  502    0 -0.31837306982E+02 -0.36295137309E+02  0.21543359098E+01  0.48508397947E+02  0.41800000000E+01 0. -1.
         -5    1    3    3    0  502  0.90880356393E+02  0.10074091314E+02 -0.16676692911E+02  0.93039298043E+02  0.41800000000E+01 0. -1.
        -11    1    4    4    0    0  0.18810441225E+02 -0.31208553038E+00  0.72376483540E+01  0.20157223275E+02  0.00000000000E+00 0.  1.
         11    1    4    4    0    0 -0.77853490636E+02  0.26533131525E+02 -0.89634023405E+02  0.12165291293E+03  0.00000000000E+00 0. -1.
</event>
<event>
 8    1  0.6627806E-009  0.1148316E+03  0.7561462E-02  0.1251875E+00
          2   -1    0    0  501    0  0.00000000000E+00  0.00000000000E+00  0.79220953482E+03  0.79220953482E+03  0.00000000000E+00 0. -1.
         -2   -1    0    0    0  501 -0.00000000000E+00 -0.00000000000E+00 -0.21184119619E+02  0.21184119619E+02  0.00000000000E+00 0.  1.
         25    2    1    2    0    0  0.44838498525E+02  0.55989809717E+02  0.46646082762E+03  0.48824037499E+03  0.12509040859E+03 0.  0.
         23    2    1    2    0    0 -0.44838498525E+02 -0.55989809717E+02  0.30456458758E+03  0.32515327945E+03  0.88429165937E+02 0.  0.
          5    1    3    3  502    0  0.59508396726E+02 -0.22655846826E+02  0.19197050928E+03  0.20229850595E+03  0.41800000000E+01 0.  1.
         -5    1    3    3    0  502 -0.14669898201E+02  0.78645656542E+02  0.27449031834E+03  0.28594186904E+03  0.41800000000E+01 0.  1.
        -11    1    4    4    0    0 -0.10364362037E+02 -0.49608922494E+02  0.27398040573E+03  0.27862829705E+03  0.00000000000E+00 0. -1.
         11    1    4    4    0    0 -0.34474136489E+02 -0.63808872233E+01  0.30584181853E+02  0.46524982407E+02  0.00000000000E+00 0.  1.
</event>
<event>
 8    1  0.6627806E-009  0.8533972E+02  0.7561462E-02  0.1314547E+00
         -1   -1    0    0    0  501 -0.00000000000E+00  0.00000000000E+00  0.30392923351E+02  0.30392923351E+02  0.00000000000E+00 0.  1.
          1   -1    0    0  501    0  0.00000000000E+00 -0.00000000000E+00 -0.58577754667E+03  0.58577754667E+03  0.00000000000E+00 0. -1.
         25    2    1    2    0    0  0.31474095786E+02  0.11982796264E+00 -0.46991757076E+03  0.48729819245E+03  0.12508545877E+03 0.  0.
         23    2    1    2    0    0 -0.31474095786E+02 -0.11982796264E+00 -0.85467052565E+02  0.12887227757E+03  0.91174633467E+02 0.  0.
          5    1    3    3  502    0  0.11142812490E+02 -0.46458727843E+02 -0.74472783956E+02  0.88579024679E+02  0.41800000000E+01 0. -1.
         -5    1    3    3    0  502  0.20331283297E+02  0.46578555805E+02 -0.39544478680E+03  0.39871916777E+03  0.41800000000E+01 0. -1.
        -11    1    4    4    0    0 -0.46308578281E+01  0.30590066810E+02 -0.82344652929E+02  0.87964986772E+02  0.00000000000E+00 0. -1.
         11    1    4    4    0    0 -0.26843237958E+02 -0.30709894773E+02 -0.31223996357E+01  0.40907290799E+02  0.00000000000E+00 0.  1.
</event>
<event>
 8    1  0.6627806E-009  0.9837096E+02  0.7561462E-02  0.1283759E+00
          2   -1    0    0  501    0  0.00000000000E+00  0.00000000000E+00  0.59857244953E+03  0.59857244953E+03  0.00000000000E+00 0.  1.
         -2   -1    0    0    0  501 -0.00000000000E+00 -0.00000000000E+00 -0.99884160033E+02  0.99884160033E+02  0.00000000000E+00 0. -1.
         25    2    1    2    0    0  0.34907051618E+01 -0.78769150079E+02 -0.34565850103E+02  0.15185030434E+03  0.12508778081E+03 0.  0.
         23    2    1    2    0    0 -0.34907051618E+01  0.78769150079E+02  0.53325413960E+03  0.54660630522E+03  0.90563300950E+02 0.  0.
          5    1    3    3  502    0  0.20022545190E+01 -0.68912294583E+02 -0.79686476474E+02  0.10545292931E+03  0.41800000000E+01 0. -1.
         -5    1    3    3    0  502  0.14884506428E+01 -0.98568554960E+01  0.45120626371E+02  0.46397375030E+02  0.41800000000E+01 0. -1.
        -11    1    4    4    0    0  0.40696841343E+02  0.27182170664E+02  0.28760541056E+03  0.29173956790E+03  0.00000000000E+00 0.  1.
         11    1    4    4    0    0 -0.44187546505E+02  0.51586979414E+02  0.24564872904E+03  0.25486673732E+03  0.00000000000E+00 0. -1.
</event>
<event>
 8    1  0.6627806E-009  0.1102216E+03  0.7561462E-02  0.1260160E+00
         -1   -1    0    0    0  501 -0.00000000000E+00  0.00000000000E+00  0.35862251436E+02  0.35862251436E+02  0.00000000000E+00 0.  1.
          1   -1    0    0  501    0  0.00000000000E+00 -0.00000000000E+00 -0.60861950903E+03  0.60861950903E+03  0.00000000000E+00 0. -1.
         25    2    1    2    0    0  0.89467961212E+02  0.16026696389E+02 -0.22045769609E+03  0.26928295286E+03  0.12510132634E+03 0.  0.
         23    2    1    2    0    0 -0.89467961212E+02 -0.16026696389E+02 -0.35229956151E+03  0.37519880761E+03  0.91639473565E+02 0.  0.
          5    1    3    3  502    0  0.68483815478E+02  0.12219839361E+02 -0.27205934077E+02  0.74813051705E+02  0.41800000000E+01 0. -1.
         -5    1    3    3    0  502  0.20984145734E+02  0.38068570275E+01 -0.19325176201E+03  0.19446990115E+03  0.41800000000E+01 0. -1.
        -11    1    4    4    0    0 -0.77648913113E+02  0.28680776439E+02 -0.23102567741E+03  0.24540742505E+03  0.00000000000E+00 0.  1.
         11    1    4    4    0    0 -0.11819048099E+02 -0.44707472828E+02 -0.12127388409E+03  0.12979138256E+03  0.00000000000E+00 0. -1.
</event>
<event>
 8    1  0.6627806E-009  0.1010555E+03  0.7561462E-02  0.1278092E+00
          1   -1    0    0  501    0  0.00000000000E+00  0.00000000000E+00  0.17326889688E+03  0.17326889688E+03  0.00000000000E+00 0. -1.
         -1   -1    0    0    0  501 -0.00000000000E+00 -0.00000000000E+00 -0.10512486216E+03  0.10512486216E+03  0.00000000000E+00 0.  1.
         25    2    1    2    0    0 -0.25289826549E+02  0.70584314238E+02  0.74187601131E+02  0.16362482542E+03  0.12509021780E+03 0.  0.
         23    2    1    2    0    0  0.25289826549E+02 -0.70584314238E+02 -0.60435664174E+01  0.11476893362E+03  0.86681386035E+02 0.  0.
          5    1    3    3  502    0 -0.23045830845E+02  0.83056126597E+02  0.10150070011E+03  0.13322648013E+03  0.41800000000E+01 0. -1.
         -5    1    3    3    0  502 -0.22439957044E+01 -0.12471812359E+02 -0.27313098983E+02  0.30398345288E+02  0.41800000000E+01 0. -1.
        -11    1    4    4    0    0  0.28273738161E+01 -0.78578514248E+02 -0.26887807634E+02  0.83099525531E+02  0.00000000000E+00 0.  1.
         11    1    4    4    0    0  0.22462452733E+02  0.79942000098E+01  0.20844241217E+02  0.31669408085E+02  0.00000000000E+00 0. -1.
</event>
<event>
 8    1  0.6627806E-009  0.8773841E+02  0.7561462E-02  0.1308423E+00
          2   -1    0    0  501    0  0.00000000000E+00  0.00000000000E+00  0.23829092296E+03  0.23829092296E+03  0.00000000000E+00 0. -1.
         -2   -1    0    0    0  501 -0.00000000000E+00 -0.00000000000E+00 -0.57788758702E+02  0.57788758702E+02  0.00000000000E+00 0.  1.
         25    2    1    2    0    0  0.30588882529E+02 -0.26152137450E+02  0.12438087004E+03  0.18093869437E+03  0.12509434943E+03 0.  0.
         23    2    1    2    0    0 -0.30588882529E+02  0.26152137450E+02  0.56121294219E+02  0.11514098729E+03  0.92131608379E+02 0.  0.
          5    1    3    3  502    0  0.65323306778E+02  0.29381324083E+01  0.11803096037E+03  0.13499832235E+03  0.41800000000E+01 0.  1.
         -5    1    3    3    0  502 -0.34734424249E+02 -0.29090269858E+02  0.63499096631E+01  0.45940372017E+02  0.41800000000E+01 0.  1.
        -11    1    4    4    0    0 -0.12347280749E+02  0.39800843419E+02  0.74836760147E+02  0.85656892005E+02  0.00000000000E+00 0. -1.
         11    1    4    4    0    0 -0.18241601780E+02 -0.13648705968E+02 -0.18715465927E+02  0.29484095288E+02  0.00000000000E+00 0.  1.
</event>
<event>
 8    1  0.6627806E-009  0.9896796E+02  0.7561462E-02  0.1282481E+00
          1   -1    0    0  501    0  0.00000000000E+00  0.00000000000E+00  0.36224099965E+03  0.36224099965E+03  0.00000000000E+00 0. -1.
         -1   -1    0    0    0  501 -0.00000000000E+00 -0.00000000000E+00 -0.11458796412E+03  0.11458796412E+03  0.00000000000E+00 0.  1.
         25    2    1    2    0    0 -0.26740715050E+02  0.97740900826E+01  0.32739847043E+03  0.35163552938E+03  0.12508872213E+03 0.  0.
         23    2    1    2    0    0  0.26740715050E+02 -0.97740900826E+01 -0.79745434892E+02  0.12519343439E+03  0.92214223140E+02 0.  0.
          5    1    3    3  502    0  0.45075663736E+02  0.25978021176E+02  0.10365732321E+03  0.11605596107E+03  0.41800000000E+01 0. -1.
         -5    1    3    3    0  502 -0.71816378787E+02 -0.16203931094E+02  0.22374114723E+03  0.23557956831E+03  0.41800000000E+01 0. -1.
        -11    1    4    4    0    0  0.42280662473E+02  0.13175803101E+02 -0.86042679694E+02  0.96770857883E+02  0.00000000000E+00 0.  1.
         11    1    4    4    0    0 -0.15539947422E+02 -0.22949893184E+02  0.62972448026E+01  0.28422576504E+02  0.00000000000E+00 0. -1.
</event>
<event>
 8    1  0.6627806E-009  0.1247582E+03  0.7561462E-02  0.1235448E+00
         -2   -1    0    0    0  501 -0.00000000000E+00  0.00000000000E+00  0.49927784420E+02  0.49927784420E+02  0.00000000000E+00 0.  1.
          2   -1    0    0  501    0  0.00000000000E+00 -0.00000000000E+00 -0.43829250271E+03  0.43829250271E+03  0.00000000000E+00 0. -1.
         25    2    1    2    0    0 -0.82483155340E+02 -0.37685513096E+02 -0.14269071245E+03  0.21031498663E+03  0.12509230740E+03 0.  0.
         23    2    1    2    0    0  0.82483155340E+02  0.37685513096E+02 -0.24567400585E+03  0.27790530050E+03  0.93015966838E+02 0.  0.
          5    1    3    3  502    0  0.38777855794E+01 -0.59748160793E+02 -0.85010546613E+02  0.10406317973E+03  0.41800000000E+01 0. -1.
         -5    1    3    3    0  502 -0.86360940919E+02  0.22062647698E+02 -0.57680165833E+02  0.10625180690E+03  0.41800000000E+01 0. -1.
        -11    1    4    4    0    0  0.19671575207E+02  0.31514748992E+02 -0.19045734290E+03  0.19404677205E+03  0.00000000000E+00 0. -1.
         11    1    4    4    0    0  0.62811580133E+02  0.61707641033E+01 -0.55216662940E+02  0.83858528456E+02  0.00000000000E+00 0.  1.
</event>
<event>
 8    1  0.6627806E-009  0.9137322E+02  0.7561462E-02  0.1299560E+00
         -1   -1    0    0    0  501 -0.00000000000E+00  0.00000000000E+00  0.13015399136E+02  0.13015399136E+02  0.00000000000E+00 0.  1.
          1   -1    0    0  501    0  0.00000000000E+00 -0.00000000000E+00 -0.12146000939E+04  0.12146000939E+04  0.00000000000E+00 0. -1.
         25    2    1    2    0    0 -0.29320840595E+02 -0.57977047429E+02 -0.72273413970E+03  0.73635100007E+03  0.12508840431E+03 0.  0.
         23    2    1    2    0    0  0.29320840595E+02  0.57977047429E+02 -0.47885055510E+03  0.49126449300E+03  0.88441496160E+02 0.  0.
          5    1    3    3  502    0  0.70837845759E+01 -0.28024751147E+02 -0.64275213310E+03  0.64341537414E+03  0.41800000000E+01 0.  1.
         -5    1    3    3    0  502 -0.36404625171E+02 -0.29952296282E+02 -0.79982006602E+02  0.92935625927E+02  0.41800000000E+01 0.  1.
        -11    1    4    4    0    0  0.52019962015E+02  0.64243419839E+02 -0.41630830788E+03  0.42443597945E+03  0.00000000000E+00 0.  1.
         11    1    4    4    0    0 -0.22699121420E+02 -0.62663724098E+01 -0.62542247222E+02  0.66828513555E+02  0.00000000000E+00 0. -1.
</event>
<event>
 8    1  0.6627806E-009  0.1338414E+03  0.7561462E-02  0.1221865E+00
          3   -1    0    0  501    0  0.00000000000E+00  0.00000000000E+00  0.38923687622E+02  0.38923687622E+02  0.00000000000E+00 0. -1.
         -3   -1    0    0    0  501 -0.00000000000E+00 -0.00000000000E+00 -0.54185311866E+03  0.54185311866E+03  0.00000000000E+00 0.  1.
         25    2    1    2    0    0 -0.89587320379E+02  0.14643784289E+02 -0.33786508808E+03  0.37153800875E+03  0.12508935132E+03 0.  0.
         23    2    1    2    0    0  0.89587320379E+02 -0.14643784289E+02 -0.16506434296E+03  0.20923879753E+03  0.91073095283E+02 0.  0.
          5    1    3    3  502    0  0.24398855469E+02  0.13478305003E+02 -0.14291665104E+03  0.14566952461E+03  0.41800000000E+01 0. -1.
         -5    1    3    3    0  502 -0.11398617585E+03  0.11654792862E+01 -0.19494843704E+03  0.22586848415E+03  0.41800000000E+01 0. -1.
        -11    1    4    4    0    0  0.40106557420E+01  0.29061492616E+02 -0.21041107395E+02  0.36102408687E+02  0.00000000000E+00 0. -1.
         11    1    4    4    0    0  0.85576664637E+02 -0.43705276905E+02 -0.14402323556E+03  0.17313638884E+03  0.00000000000E+00 0.  1.
</event>
<event>
 8    1  0.6627806E-009  0.1188399E+03  0.7561462E-02  0.1245023E+00
         -2   -1    0    0    0  501 -0.00000000000E+00  0.00000000000E+00  0.54776223434E+02  0.54776223434E+02  0.00000000000E+00 0. -1.
          2   -1    0    0  501    0  0.00000000000E+00 -0.00000000000E+00 -0.48850446645E+03  0.48850446645E+03  0.00000000000E+00 0.  1.
         25    2    1    2    0    0  0.65616745370E+02  0.71476834316E+02 -0.98757660227E+02  0.18658824740E+03  0.12509038131E+03 0.  0.
         23    2    1    2    0    0 -0.65616745370E+02 -0.71476834316E+02 -0.33497058279E+03  0.35669244248E+03  0.74898011155E+02 0.  0.
          5    1    3    3  502    0  0.84069581190E+02  0.43646323632E+02 -0.11514338352E+03  0.14915819527E+03  0.41800000000E+01 0. -1.
         -5    1    3    3    0  502 -0.18452835821E+02  0.27830510685E+02  0.16385723289E+02  0.37430052131E+02  0.41800000000E+01 0. -1.
        -11    1    4    4    0    0 -0.62870417820E+02 -0.33698084332E+02 -0.13031085095E+03  0.14855695271E+03  0.00000000000E+00 0. -1.
         11    1    4    4    0    0 -0.27463275494E+01 -0.37778749984E+02 -0.20465973184E+03  0.20813548977E+03  0.00000000000E+00 0.  1.
</event>
<event>
 8    1  0.6627806E-009  0.1361870E+03  0.7561462E-02  0.1218554E+00
          2   -1    0    0  501    0  0.00000000000E+00  0.00000000000E+00  0.92225026410E+03  0.92225026410E+03  0.00000000000E+00 0. -1.
         -2   -1    0    0    0  501 -0.00000000000E+00 -0.00000000000E+00 -0.28161981050E+02  0.28161981050E+02  0.00000000000E+00 0.  1.
         25    2    1    2    0    0 -0.11075086365E+03  0.42778698484E+02  0.47551502328E+03  0.50582384500E+03  0.12508978360E+03 0.  0.
         23    2    1    2    0    0  0.11075086365E+03 -0.42778698484E+02  0.41857325976E+03  0.44458840014E+03  0.91430306298E+02 0.  0.
          5    1    3    3  502    0 -0.94833098005E+02  0.47309105631E+02  0.17365917685E+03  0.20348574902E+03  0.41800000000E+01 0.  1.
         -5    1    3    3    0  502 -0.15917765645E+02 -0.45304071469E+01  0.30185584644E+03  0.30233809598E+03  0.41800000000E+01 0.  1.
        -11    1    4    4    0    0  0.10227212085E+03  0.33647189044E+01  0.30494056288E+03  0.32165144943E+03  0.00000000000E+00 0.  1.
         11    1    4    4    0    0  0.84787428037E+01 -0.46143417389E+02  0.11363269689E+03  0.12293695071E+03  0.00000000000E+00 0. -1.
</event>
<event>
 8    1  0.6627806E-009  0.1286112E+03  0.7561462E-02  0.1229531E+00
          1   -1    0    0  501    0  0.00000000000E+00  0.00000000000E+00  0.34254650466E+03  0.34254650466E+03  0.00000000000E+00 0.  1.
         -1   -1    0    0    0  501 -0.00000000000E+00 -0.00000000000E+00 -0.82238332632E+02  0.82238332632E+02  0.00000000000E+00 0. -1.
         25    2    1    2    0    0 -0.59763521492E+02  0.63221264191E+02  0.25885251955E+03  0.30036879423E+03  0.12509268133E+03 0.  0.
         23    2    1    2    0    0  0.59763521492E+02 -0.63221264191E+02  0.14556524767E+01  0.12441604306E+03  0.88930456539E+02 0.  0.
          5    1    3    3  502    0 -0.43588398748E+02 -0.20032913359E+02  0.17315962445E+03  0.17973033707E+03  0.41800000000E+01 0.  1.
         -5    1    3    3    0  502 -0.16175122744E+02  0.83254177550E+02  0.85692895102E+02  0.12063845716E+03  0.41800000000E+01 0.  1.
        -11    1    4    4    0    0 -0.13304166823E+02 -0.47615950546E+02  0.44576828698E+01  0.49640210896E+02  0.00000000000E+00 0.  1.
         11    1    4    4    0    0  0.73067688316E+02 -0.15605313645E+02 -0.30020303931E+01  0.74775832167E+02  0.00000000000E+00 0. -1.
</event>
<event>
 8    1  0.6627806E-009  0.1029426E+03  0.7561462E-02  0.1274227E+00
         -2   -1    0    0    0  501 -0.00000000000E+00  0.00000000000E+00  0.32016352337E+03  0.32016352337E+03  0.00000000000E+00 0.  1.
          2   -1    0    0  501    0  0.00000000000E+00 -0.00000000000E+00 -0.40367193954E+02  0.40367193954E+02  0.00000000000E+00 0. -1.
         25    2    1    2    0    0  0.46577063016E+01  0.37880040534E+01  0.10660001042E+03  0.16445596739E+03  0.12508461051E+03 0.  0.
         23    2    1    2    0    0 -0.46577063016E+01 -0.37880040534E+01  0.17319631900E+03  0.19607474994E+03  0.91718588333E+02 0.  0.
          5    1    3    3  502    0  0.38989738956E+02  0.52188285012E+02  0.62810052478E+02  0.90589138028E+02  0.41800000000E+01 0. -1.
         -5    1    3    3    0  502 -0.34332032655E+02 -0.48400280959E+02  0.43789957939E+02  0.73866829358E+02  0.41800000000E+01 0. -1.
        -11    1    4    4    0    0  0.11695044251E+02  0.36133109157E+02  0.12833283664E+03  0.13383457176E+03  0.00000000000E+00 0.  1.
         11    1    4    4    0    0 -0.16352750552E+02 -0.39921113210E+02  0.44863482355E+02  0.62240178177E+02  0.00000000000E+00 0. -1.
</event>
<event>
 8    1  0.6627806E-009  0.1084542E+03  0.7561462E-02  0.1263460E+00
          3   -1    0    0  501    0  0.00000000000E+00  0.00000000000E+00  0.34094449694E+02  0.34094449694E+02  0.00000000000E+00 0. -1.
         -3   -1    0    0    0  501 -0.00000000000E+00 -0.00000000000E+00 -0.52935411012E+03  0.52935411012E+03  0.00000000000E+00 0.  1.
         25    2    1    2    0    0  0.27484779667E+02  0.66493760742E+02 -0.26206811423E+03  0.29917232065E+03  0.12509015794E+03 0.  0.
         23    2    1    2    0    0 -0.27484779667E+02 -0.66493760742E+02 -0.23319154620E+03  0.26427623917E+03  0.10142386328E+03 0.  0.
          5    1    3    3  502    0 -0.49301695039E+02  0.30356230013E+02 -0.12641575114E+03  0.13910633476E+03  0.41800000000E+01 0.  1.
         -5    1    3    3    0  502  0.76786474706E+02  0.36137530729E+02 -0.13565236309E+03  0.16006598588E+03  0.41800000000E+01 0.  1.
        -11    1    4    4    0    0 -0.24430221430E+02 -0.37616130157E+02 -0.23082360955E+03  0.23514112293E+03  0.00000000000E+00 0.  1.
         11    1    4    4    0    0 -0.30545582365E+01 -0.28877630585E+02 -0.23679366433E+01  0.29135116238E+02  0.00000000000E+00 0. -1.
</event>
<event>
 8    1  0.6627806E-009  0.8659292E+02  0.7561462E-02  0.1311319E+00
          3   -1    0    0  501    0  0.00000000000E+00  0.00000000000E+00  0.24237686018E+03  0.24237686018E+03  0.00000000000E+00 0. -1.
         -3   -1    0    0    0  501 -0.00000000000E+00 -0.00000000000E+00 -0.50467592745E+02  0.50467592745E+02  0.00000000000E+00 0.  1.
         25    2    1    2    0    0 -0.19169140563E+02  0.33117856925E+01  0.97051257272E+02  0.15953366669E+03  0.12511442920E+03 0.  0.
         23    2    1    2    0    0  0.19169140563E+02 -0.33117856925E+01  0.94858010160E+02  0.13331078623E+03  0.91625868398E+02 0.  0.
          5    1    3    3  502    0 -0.50838344689E+02 -0.35193030073E+01 -0.59503703990E+01  0.51476228419E+02  0.41800000000E+01 0.  1.
         -5    1    3    3    0  502  0.31669204125E+02  0.68310886997E+01  0.10300162767E+03  0.10805743827E+03  0.41800000000E+01 0.  1.
        -11    1    4    4    0    0 -0.33034355431E+02  0.11739996785E+02  0.18625159604E+02  0.39698774963E+02  0.00000000000E+00 0.  1.
         11    1    4    4    0    0  0.52203495994E+02 -0.15051782478E+02  0.76232850556E+02  0.93612011268E+02  0.00000000000E+00 0. -1.
</event>
<event>
 8    1  0.6627806E-009  0.9191036E+02  0.7561462E-02  0.1298290E+00
         -2   -1    0    0    0  501 -0.00000000000E+00  0.00000000000E+00  0.16861748617E+02  0.16861748617E+02  0.00000000000E+00 0.  1.
          2   -1    0    0  501    0  0.00000000000E+00 -0.00000000000E+00 -0.12405128716E+04  0.12405128716E+04  0.00000000000E+00 0. -1.
         25    2    1    2    0    0  0.78070635271E+02 -0.98881075062E+01 -0.90859754445E+03  0.92053772580E+03  0.12508960025E+03 0.  0.
         23    2    1    2    0    0 -0.78070635271E+02  0.98881075062E+01 -0.31505357858E+03  0.33683689446E+03  0.89484844136E+02 0.  0.
          5    1    3    3  502    0  0.16722663331E+02 -0.33590035926E+02 -0.71549674226E+02  0.80899729692E+02  0.41800000000E+01 0.  1.
         -5    1    3    3    0  502  0.61347971940E+02  0.23701928419E+02 -0.83704787022E+03  0.83963799611E+03  0.41800000000E+01 0.  1.
        -11    1    4    4    0    0 -0.65862125139E+02  0.25282933385E+01 -0.31575847404E+03  0.32256414203E+03  0.00000000000E+00 0. -1.
         11    1    4    4    0    0 -0.12208510132E+02  0.73598141677E+01  0.70489546114E+00  0.14272752427E+02  0.00000000000E+00 0.  1.
</event>
<event>
 8    1  0.6627806E-009  0.1473829E+03  0.7561462E-02  0.1203726E+00
         -2   -1    0    0    0  501 -0.00000000000E+00  0.00000000000E+00  0.73369565975E+02  0.73369565975E+02  0.00000000000E+00 0. -1.
          2   -1    0    0  501    0  0.00000000000E+00 -0.00000000000E+00 -0.36683918318E+03  0.36683918318E+03  0.00000000000E+00 0.  1.
         25    2    1    2    0    0 -0.30297438259E+02  0.11284555073E+03 -0.10504844297E+03  0.20083022519E+03  0.12508217656E+03 0.  0.
         23    2    1    2    0    0  0.30297438259E+02 -0.11284555073E+03 -0.18842117424E+03  0.23937852397E+03  0.90263424211E+02 0.  0.
          5    1    3    3  502    0  0.46157531350E+02  0.34491658223E+02 -0.16835061839E+02  0.60175442620E+02  0.41800000000E+01 0.  1.
         -5    1    3    3    0  502 -0.76454969610E+02  0.78353892510E+02 -0.88213381131E+02  0.14065478257E+03  0.41800000000E+01 0.  1.
        -11    1    4    4    0    0  0.41921125640E+02 -0.59146254710E+02 -0.43866455471E+02  0.84734444807E+02  0.00000000000E+00 0. -1.
         11    1    4    4    0    0 -0.11623687380E+02 -0.53699296023E+02 -0.14455471877E+03  0.15464407916E+03  0.00000000000E+00 0.  1.
</event>
<event>
 8    1  0.6627806E-009  0.1026876E+03  0.7561462E-02  0.1274744E+00
          1   -1    0    0  501    0  0.00000000000E+00  0.00000000000E+00  0.22196264205E+02  0.22196264205E+02  0.00000000000E+00 0. -1.
         -1   -1    0    0    0  501 -0.00000000000E+00 -0.00000000000E+00 -0.87943701987E+03  0.87943701987E+03  0.00000000000E+00 0.  1.
         25    2    1    2    0    0 -0.47716047869E+02 -0.75215080037E+02 -0.51440808042E+03  0.53683881837E+03  0.12508442838E+03 0.  0.
         23    2    1    2    0    0  0.47716047869E+02  0.75215080037E+02 -0.34283267524E+03  0.36479446570E+03  0.87215993373E+02 0.  0.
          5    1    3    3  502    0 -0.42843532256E+02 -0.50551558064E+02 -0.50549936258E+03  0.50984125593E+03  0.41800000000E+01 0. -1.
         -5    1    3    3    0  502 -0.48725156131E+01 -0.24663521973E+02 -0.89087178424E+01  0.26997562447E+02  0.41800000000E+01 0. -1.
        -11    1    4    4    0    0  0.66327828044E+02  0.60337550722E+02 -0.31791502192E+03  0.33031797100E+03  0.00000000000E+00 0.  1.
         11    1    4    4    0    0 -0.18611780174E+02  0.14877529315E+02 -0.24917653321E+02  0.34476494700E+02  0.00000000000E+00 0. -1.
</event>
<event>
 8    1  0.6627806E-009  0.1714619E+03  0.7561462E-02  0.1176332E+00
         -4   -1    0    0    0  501 -0.00000000000E+00  0.00000000000E+00  0.27572039645E+03  0.27572039645E+03  0.00000000000E+00 0.  1.
          4   -1    0    0  501    0  0.00000000000E+00 -0.00000000000E+00 -0.10905416637E+03  0.10905416637E+03  0.00000000000E+00 0. -1.
         25    2    1    2    0    0  0.73871422157E+02  0.11012400856E+03  0.68737255717E+02  0.19482485910E+03  0.12509049175E+03 0.  0.
         23    2    1    2    0    0 -0.73871422157E+02 -0.11012400856E+03  0.97928974369E+02  0.18994970372E+03  0.94374369654E+02 0.  0.
          5    1    3    3  502    0  0.79866165929E+01 -0.26739454710E+02  0.22202292485E+02  0.35905412885E+02  0.41800000000E+01 0. -1.
         -5    1    3    3    0  502  0.65884805564E+02  0.13686346327E+03  0.46534963231E+02  0.15891944622E+03  0.41800000000E+01 0. -1.
        -11    1    4    4    0    0  0.46027978857E+01  0.14647871698E+02  0.87002057531E+01  0.17647647827E+02  0.00000000000E+00 0. -1.
         11    1    4    4    0    0 -0.78474220043E+02 -0.12477188026E+03  0.89228768616E+02  0.17230205589E+03  0.00000000000E+00 0.  1.
</event>
<event>
 7    1  0.6627806E-009  0.1080655E+03  0.7561462E-02  0.1264195E+00
          2   -1    0    0  501    0  0.00000000000E+00  0.00000000000E+00  0.97392439978E+03  0.97392439978E+03  0.00000000000E+00 0. -1.
         -2   -1    0    0    0  501 -0.00000000000E+00 -0.00000000000E+00 -0.31751567680E+02  0.31751567680E+02  0.00000000000E+00 0.  1.
         23    2    1    2    0    0 -0.28126962607E+02  0.62845587981E+02  0.87691669884E+02  0.13937983290E+03  0.83643379291E+02 0.  0.
          5    1    1    2  502    0 -0.39666903101E+01 -0.92699562389E+02  0.45409408230E+03  0.46349525507E+03  0.41800000000E+01 0. -1.
         -5    1    1    2    0  502  0.32093652917E+02  0.29853974407E+02  0.40038707992E+03  0.40280087949E+03  0.41800000000E+01 0. -1.
        -11    1    3    3    0    0  0.69444672304E+01  0.31264605525E+02  0.86424625244E+02  0.92167874188E+02  0.00000000000E+00 0. -1.
         11    1    3    3    0    0 -0.35071429837E+02  0.31580982456E+02  0.12670446397E+01  0.47211958716E+02  0.00000000000E+00 0.  1.
</event>
<event>
 8    1  0.6627806E-009  0.1541343E+03  0.7561462E-02  0.1195483E+00
         -1   -1    0    0    0  501 -0.00000000000E+00  0.00000000000E+00  0.28420804167E+03  0.28420804167E+03  0.00000000000E+00 0.  1.
          1   -1    0    0  501    0  0.00000000000E+00 -0.00000000000E+00 -0.10091409627E+03  0.10091409627E+03  0.00000000000E+00 0. -1.
         25    2    1    2    0    0 -0.80706206884E+02 -0.97028382725E+02  0.68176277283E+02  0.19032543491E+03  0.12509103688E+03 0.  0.
         23    2    1    2    0    0  0.80706206884E+02  0.97028382725E+02  0.11511766812E+03  0.19479670302E+03  0.93625205529E+02 0.  0.
          5    1    3    3  502    0 -0.39516066740E+02  0.26202599108E+02  0.21086576322E+02  0.52059694886E+02  0.41800000000E+01 0. -1.
         -5    1    3    3    0  502 -0.41190140144E+02 -0.12323098183E+03  0.47089700961E+02  0.13826574003E+03  0.41800000000E+01 0. -1.
        -11    1    4    4    0    0  0.76620496428E+02  0.71441401816E+02  0.12837201680E+03  0.16569233254E+03  0.00000000000E+00 0.  1.
         11    1    4    4    0    0  0.40857104560E+01  0.25586980909E+02 -0.13254348680E+02  0.29104370477E+02  0.00000000000E+00 0. -1.
</event>
<event>
 8    1  0.6627806E-009  0.9741517E+02  0.7561462E-02  0.1285827E+00
         -1   -1    0    0    0  501 -0.00000000000E+00  0.00000000000E+00  0.84498712398E+02  0.84498712398E+02  0.00000000000E+00 0.  1.
          1   -1    0    0  501    0  0.00000000000E+00 -0.00000000000E+00 -0.14535807410E+03  0.14535807410E+03  0.00000000000E+00 0. -1.
         25    2    1    2    0    0  0.24691918041E+02  0.55121026836E+01 -0.39071722877E+02  0.13346595261E+03  0.12508591802E+03 0.  0.
         23    2    1    2    0    0 -0.24691918041E+02 -0.55121026836E+01 -0.21787638825E+02  0.96390833882E+02  0.90423545376E+02 0.  0.
          5    1    3    3  502    0  0.97769814294E+01  0.56863138715E+02 -0.52559263700E+02  0.78159801120E+02  0.41800000000E+01 0.  1.
         -5    1    3    3    0  502  0.14914936612E+02 -0.51351036032E+02  0.13487540824E+02  0.55306151494E+02  0.41800000000E+01 0.  1.
        -11    1    4    4    0    0  0.11808821692E+02 -0.34671430509E+02  0.12213367372E+02  0.38609878346E+02  0.00000000000E+00 0.  1.
         11    1    4    4    0    0 -0.36500739733E+02  0.29159327826E+02 -0.34001006197E+02  0.57780955536E+02  0.00000000000E+00 0. -1.
</event>
<event>
 8    1  0.6627806E-009  0.1097245E+03  0.7561462E-02  0.1261081E+00
         -2   -1    0    0    0  501 -0.00000000000E+00  0.00000000000E+00  0.47446681369E+02  0.47446681369E+02  0.00000000000E+00 0.  1.
          2   -1    0    0  501    0  0.00000000000E+00 -0.00000000000E+00 -0.39190164928E+03  0.39190164928E+03  0.00000000000E+00 0. -1.
         25    2    1    2    0    0 -0.44779478765E+02 -0.51956726142E+02 -0.11630292109E+03  0.18405610994E+03  0.12508228907E+03 0.  0.
         23    2    1    2    0    0  0.44779478765E+02  0.51956726142E+02 -0.22815204682E+03  0.25529222072E+03  0.91739077713E+02 0.  0.
          5    1    3    3  502    0  0.37499577399E+02 -0.46788872902E+02 -0.49036835405E+02  0.77572550293E+02  0.41800000000E+01 0. -1.
         -5    1    3    3    0  502 -0.82279056164E+02 -0.51678532404E+01 -0.67266085688E+02  0.10648355964E+03  0.41800000000E+01 0. -1.
        -11    1    4    4    0    0  0.82789134569E+01  0.36032917679E+02 -0.17491434448E+02  0.40900633779E+02  0.00000000000E+00 0.  1.
         11    1    4    4    0    0  0.36500565308E+02  0.15923808463E+02 -0.21066061237E+03  0.21439158694E+03  0.00000000000E+00 0. -1.
</event>
<event>
 8    1  0.6627806E-009  0.1024908E+03  0.7561462E-02  0.1275144E+00
          2   -1    0    0  501    0  0.00000000000E+00  0.00000000000E+00  0.25017771660E+03  0.25017771660E+03  0.00000000000E+00 0. -1.
         -2   -1    0    0    0  501 -0.00000000000E+00 -0.00000000000E+00 -0.64710840957E+02  0.64710840957E+02  0.00000000000E+00 0.  1.
         25    2    1    2    0    0  0.33642250309E+02  0.53291598318E+02  0.13101905960E+03  0.19179413306E+03  0.12508876865E+03 0.  0.
         23    2    1    2    0    0 -0.33642250309E+02 -0.53291598318E+02  0.54447816046E+02  0.12309442450E+03  0.90641476228E+02 0.  0.
          5    1    3    3  502    0  0.16069704558E+02 -0.32385107812E+02  0.85902905886E+02  0.93294224110E+02  0.41800000000E+01 0. -1.
         -5    1    3    3    0  502  0.17572545751E+02  0.85676706130E+02  0.45116153710E+02  0.98499908949E+02  0.41800000000E+01 0. -1.
        -11    1    4    4    0    0 -0.10411753322E+02  0.94889813895E+01  0.54357968538E+02  0.56153665229E+02  0.00000000000E+00 0. -1.
         11    1    4    4    0    0 -0.23230496988E+02 -0.62780579707E+02  0.89847507111E-01  0.66940759267E+02  0.00000000000E+00 0.  1.
</event>
<event>
 8    1  0.6627806E-009  0.1625187E+03  0.7561462E-02  0.1185882E+00
         -2   -1    0    0    0  501 -0.00000000000E+00  0.00000000000E+00  0.32728238326E+02  0.32728238326E+02  0.00000000000E+00 0.  1.
          2   -1    0    0  501    0  0.00000000000E+00 -0.00000000000E+00 -0.83488696503E+03  0.83488696503E+03  0.00000000000E+00 0. -1.
         25    2    1    2    0    0 -0.11423215262E+03  0.48897263331E+02 -0.41233826762E+03  0.44845336557E+03  0.12509055558E+03 0.  0.
         23    2    1    2    0    0  0.11423215262E+03 -0.48897263331E+02 -0.38982045908E+03  0.41916183778E+03  0.91086381433E+02 0.  0.
          5    1    3    3  502    0 -0.68372822965E+02  0.88109673561E+02 -0.21779392743E+03  0.24472397659E+03  0.41800000000E+01 0.  1.
         -5    1    3    3    0  502 -0.45859329650E+02 -0.39212410230E+02 -0.19454434020E+03  0.20372938898E+03  0.41800000000E+01 0.  1.
        -11    1    4    4    0    0  0.96968386383E+02 -0.74352185732E+02 -0.33002355250E+03  0.35191854268E+03  0.00000000000E+00 0.  1.
         11    1    4    4    0    0  0.17263766233E+02  0.25454922400E+02 -0.59796906584E+02  0.67243295101E+02  0.00000000000E+00 0. -1.
</event>
<event>
 8    1  0.6627806E-009  0.7523149E+02  0.7561462E-02  0.1343156E+00
         -1   -1    0    0    0  501 -0.00000000000E+00  0.00000000000E+00  0.16695832525E+02  0.16695832525E+02  0.00000000000E+00 0.  1.
          1   -1    0    0  501    0  0.00000000000E+00 -0.00000000000E+00 -0.74850188130E+03  0.74850188130E+03  0.00000000000E+00 0. -1.
         25    2    1    2    0    0  0.24206377389E+02 -0.93423399788E+01 -0.43269949917E+03  0.45116521673E+03  0.12509183900E+03 0.  0.
         23    2    1    2    0    0 -0.24206377389E+02  0.93423399788E+01 -0.29910654961E+03  0.31403249709E+03  0.92078516446E+02 0.  0.
          5    1    3    3  502    0  0.23551060655E+02  0.21932787939E+02 -0.41232438910E+03  0.41359953324E+03  0.41800000000E+01 0.  1.
         -5    1    3    3    0  502  0.65531673369E+00 -0.31275127918E+02 -0.20375110070E+02  0.37565683498E+02  0.41800000000E+01 0.  1.
        -11    1    4    4    0    0 -0.21904259302E+01  0.44724340286E+02 -0.22113977067E+03  0.22562770830E+03  0.00000000000E+00 0. -1.
         11    1    4    4    0    0 -0.22015951458E+02 -0.35382000307E+02 -0.77966778937E+02  0.88404788797E+02  0.00000000000E+00 0.  1.
</event>
<event>
 8    1  0.6627806E-009  0.1158237E+03  0.7561462E-02  0.1250150E+00
         -1   -1    0    0    0  501 -0.00000000000E+00  0.00000000000E+00  0.23472603351E+03  0.23472603351E+03  0.00000000000E+00 0.  1.
          1   -1    0    0  501    0  0.00000000000E+00 -0.00000000000E+00 -0.80805465029E+02  0.80805465029E+02  0.00000000000E+00 0. -1.
         25    2    1    2    0    0 -0.51564246951E+02  0.34227130185E+01  0.99944432751E+01  0.13571241899E+03  0.12508950892E+03 0.  0.
         23    2    1    2    0    0  0.51564246951E+02 -0.34227130185E+01  0.14392612520E+03  0.17981907955E+03  0.94602247997E+02 0.  0.
          5    1    3    3  502    0  0.33278239457E+02  0.17454745703E+02 -0.22139238557E+02  0.43814696767E+02  0.41800000000E+01 0.  1.
         -5    1    3    3    0  502 -0.84842486408E+02 -0.14032032685E+02  0.32133681832E+02  0.91897722220E+02  0.41800000000E+01 0.  1.
        -11    1    4    4    0    0 -0.26124734432E+02 -0.13490609899E+02  0.41891258972E+02  0.51179838637E+02  0.00000000000E+00 0. -1.
         11    1    4    4    0    0  0.77688981383E+02  0.10067896880E+02  0.10203486623E+03  0.12863924091E+03  0.00000000000E+00 0.  1.
</event>
<event>
 8    1  0.6627806E-009  0.1512558E+03  0.7561462E-02  0.1198938E+00
         -1   -1    0    0    0  501 -0.00000000000E+00  0.00000000000E+00  0.11771222262E+03  0.11771222262E+03  0.00000000000E+00 0. -1.
          1   -1    0    0  501    0  0.00000000000E+00 -0.00000000000E+00 -0.20889518284E+03  0.20889518284E+03  0.00000000000E+00 0.  1.
         25    2    1    2    0    0  0.83614830840E+01 -0.11265702458E+03 -0.60298593321E+02  0.17901163264E+03  0.12509086568E+03 0.  0.
         23    2    1    2    0    0 -0.83614830840E+01  0.11265702458E+03 -0.30884366898E+02  0.14759577282E+03  0.89828438969E+02 0.  0.
          5    1    3    3  502    0 -0.12620633443E+02 -0.13013501915E+03 -0.71643881628E+02  0.14914664520E+03  0.41800000000E+01 0.  1.
         -5    1    3    3    0  502  0.20982116527E+02  0.17477994572E+02  0.11345288308E+02  0.29864987443E+02  0.41800000000E+01 0.  1.
        -11    1    4    4    0    0  0.40715084340E+02  0.49727126312E+02 -0.18145050094E+02  0.66781344902E+02  0.00000000000E+00 0.  1.
         11    1    4    4    0    0 -0.49076567424E+02  0.62929898271E+02 -0.12739316805E+02  0.80814427915E+02  0.00000000000E+00 0. -1.
</event>
<event>
 8    1  0.6627806E-009  0.1121557E+03  0.7561462E-02  0.1256629E+00
         -2   -1    0    0    0  501 -0.00000000000E+00  0.00000000000E+00  0.31414171057E+02  0.31414171057E+02  0.00000000000E+00 0.  1.
          2   -1    0    0  501    0  0.00000000000E+00 -0.00000000000E+00 -0.43824983779E+03  0.43824983779E+03  0.00000000000E+00 0. -1.
         25    2    1    2    0    0 -0.38356989360E+02  0.21691875539E+02 -0.23660718206E+03  0.27124416403E+03  0.12509453152E+03 0.  0.
         23    2    1    2    0    0  0.38356989360E+02 -0.21691875539E+02 -0.17022848466E+03  0.19841984482E+03  0.91928786179E+02 0.  0.
          5    1    3    3  502    0 -0.63935732392E+02 -0.26841905855E+02 -0.83894236046E+02  0.10892190334E+03  0.41800000000E+01 0.  1.
         -5    1    3    3    0  502  0.25578743033E+02  0.48533781394E+02 -0.15271294602E+03  0.16232226068E+03  0.41800000000E+01 0.  1.
        -11    1    4    4    0    0  0.23714906127E+02  0.34438803257E+02 -0.51996328817E+02  0.66723655122E+02  0.00000000000E+00 0.  1.
         11    1    4    4    0    0  0.14642083232E+02 -0.56130678796E+02 -0.11823215585E+03  0.13169618969E+03  0.00000000000E+00 0. -1.
</event>
<event>
 8    1  0.6627806E-009  0.1015807E+03  0.7561462E-02  0.1277007E+00
          1   -1    0    0  501    0  0.00000000000E+00  0.00000000000E+00  0.10508575944E+03  0.10508575944E+03  0.00000000000E+00 0. -1.
         -1   -1    0    0    0  501 -0.00000000000E+00 -0.00000000000E+00 -0.12478127270E+03  0.12478127270E+03  0.00000000000E+00 0.  1.
         25    2    1    2    0    0 -0.12796525248E+02 -0.69509976194E+01 -0.44890221650E+02  0.13366263558E+03  0.12505399124E+03 0.  0.
         23    2    1    2    0    0  0.12796525248E+02  0.69509976194E+01  0.25194708390E+02  0.96204396556E+02  0.91697574447E+02 0.  0.
          5    1    3    3  502    0  0.27722839915E+02  0.43285784855E+02  0.52336519946E+01  0.51837038270E+02  0.41800000000E+01 0. -1.
         -5    1    3    3    0  502 -0.40519365163E+02 -0.50236782474E+02 -0.50123873645E+02  0.81825597314E+02  0.41800000000E+01 0. -1.
        -11    1    4    4    0    0 -0.36907516961E+02  0.19723619518E+01 -0.58066896177E+01  0.37413535842E+02  0.00000000000E+00 0.  1.
         11    1    4    4    0    0  0.49704042209E+02  0.49786356676E+01  0.31001398008E+02  0.58790860714E+02  0.00000000000E+00 0. -1.
</event>
<event>
 8    1  0.6627806E-009  0.1082078E+03  0.7561462E-02  0.1263925E+00
         -2   -1    0    0    0  501 -0.00000000000E+00  0.00000000000E+00  0.29650075189E+03  0.29650075189E+03  0.00000000000E+00 0.  1.
          2   -1    0    0  501    0  0.00000000000E+00 -0.00000000000E+00 -0.55888092513E+02  0.55888092513E+02  0.00000000000E+00 0. -1.
         25    2    1    2    0    0 -0.18780325759E+02  0.65338556641E+02  0.12697213332E+03  0.19076500718E+03  0.12509011833E+03 0.  0.
         23    2    1    2    0    0  0.18780325759E+02 -0.65338556641E+02  0.11364052606E+03  0.16162383723E+03  0.92662117275E+02 0.  0.
          5    1    3    3  502    0 -0.15219200489E+02  0.10284383362E+03  0.86429830544E+02  0.13526295200E+03  0.41800000000E+01 0.  1.
         -5    1    3    3    0  502 -0.35611252702E+01 -0.37505276975E+02  0.40542302779E+02  0.55502055177E+02  0.41800000000E+01 0.  1.
        -11    1    4    4    0    0  0.27165680020E+02 -0.46739794837E+02  0.12645869338E+03  0.13752957400E+03  0.00000000000E+00 0.  1.
         11    1    4    4    0    0 -0.83853542615E+01 -0.18598761804E+02 -0.12818167328E+02  0.24094263226E+02  0.00000000000E+00 0. -1.
</event>
<event>
 8    1  0.6627806E-009  0.1724154E+03  0.7561462E-02  0.1175352E+00
         -2   -1    0    0    0  501 -0.00000000000E+00  0.00000000000E+00  0.89910194060E+02  0.89910194060E+02  0.00000000000E+00 0.  1.
          2   -1    0    0  501    0  0.00000000000E+00 -0.00000000000E+00 -0.43895235388E+03  0.43895235388E+03  0.00000000000E+00 0. -1.
         25    2    1    2    0    0  0.15950227198E+03  0.34686941354E+02 -0.22075537737E+03  0.30170417611E+03  0.12509322354E+03 0.  0.
         23    2    1    2    0    0 -0.15950227198E+03 -0.34686941354E+02 -0.12828678245E+03  0.22715837183E+03  0.92191478316E+02 0.  0.
          5    1    3    3  502    0  0.11988826187E+03  0.18936481761E+02 -0.22793635041E+03  0.25827163591E+03  0.41800000000E+01 0.  1.
         -5    1    3    3    0  502  0.39614010110E+02  0.15750459593E+02  0.71809730428E+01  0.43432540200E+02  0.41800000000E+01 0.  1.
        -11    1    4    4    0    0 -0.86339623248E+02 -0.57708970263E+02 -0.10333490138E+03  0.14650241512E+03  0.00000000000E+00 0. -1.
         11    1    4    4    0    0 -0.73162648733E+02  0.23022028909E+02 -0.24951881069E+02  0.80655956715E+02  0.00000000000E+00 0.  1.
</event>
<event>
 8    1  0.6627806E-009  0.7807672E+02  0.7561462E-02  0.1334600E+00
          1   -1    0    0  501    0  0.00000000000E+00  0.00000000000E+00  0.56033371535E+02  0.56033371535E+02  0.00000000000E+00 0. -1.
         -1   -1    0    0    0  501 -0.00000000000E+00 -0.00000000000E+00 -0.23240154918E+03  0.23240154918E+03  0.00000000000E+00 0.  1.
         25    2    1    2    0    0 -0.95390374355E+01  0.23433716988E+02 -0.12961458188E+03  0.18192395172E+03  0.12512494574E+03 0.  0.
         23    2    1    2    0    0  0.95390374355E+01 -0.23433716988E+02 -0.46753595768E+02  0.10651096900E+03  0.92296020891E+02 0.  0.
          5    1    3    3  502    0 -0.57551906504E+02 -0.13979509239E+01 -0.22652258826E+02  0.62006237097E+02  0.41800000000E+01 0. -1.
         -5    1    3    3    0  502  0.48012869069E+02  0.24831667911E+02 -0.10696232305E+03  0.11991771462E+03  0.41800000000E+01 0. -1.
        -11    1    4    4    0    0  0.14778576724E+02  0.47714932971E+01 -0.68673395080E+02  0.70407447547E+02  0.00000000000E+00 0.  1.
         11    1    4    4    0    0 -0.52395392888E+01 -0.28205210285E+02  0.21919799312E+02  0.36103521449E+02  0.00000000000E+00 0. -1.
</event>
<event>
 8    1  0.6627806E-009  0.1068195E+03  0.7561462E-02  0.1266576E+00
          2   -1    0    0  501    0  0.00000000000E+00  0.00000000000E+00  0.65518396837E+03  0.65518396837E+03  0.00000000000E+00 0.  1.
         -2   -1    0    0    0  501 -0.00000000000E+00 -0.00000000000E+00 -0.30290583814E+02  0.30290583814E+02  0.00000000000E+00 0. -1.
         25    2    1    2    0    0  0.35366842145E+02  0.58427108697E+02  0.48366161470E+03  0.50422394648E+03  0.12509472458E+03 0.  0.
         23    2    1    2    0    0 -0.35366842145E+02 -0.58427108697E+02  0.14123176986E+03  0.18125060570E+03  0.90779010219E+02 0.  0.
          5    1    3    3  502    0 -0.20281636434E+02 -0.28215491618E+02  0.74948755709E+02  0.82717876702E+02  0.41800000000E+01 0.  1.
         -5    1    3    3    0  502  0.55648478579E+02  0.86642600316E+02  0.40871285899E+03  0.42150606978E+03  0.41800000000E+01 0.  1.
        -11    1    4    4    0    0 -0.30296750550E+02 -0.18853854993E+02  0.13648472666E+03  0.14107246915E+03  0.00000000000E+00 0.  1.
         11    1    4    4    0    0 -0.50700915950E+01 -0.39573253704E+02  0.47470432010E+01  0.40178136551E+02  0.00000000000E+00 0. -1.
</event>
<event>
 8    1  0.6627806E-009  0.1129033E+03  0.7561462E-02  0.1255286E+00
         -2   -1    0    0    0  501 -0.00000000000E+00  0.00000000000E+00  0.41723544566E+03  0.41723544566E+03  0.00000000000E+00 0. -1.
          2   -1    0    0  501    0  0.00000000000E+00 -0.00000000000E+00 -0.38033686264E+02  0.38033686264E+02  0.00000000000E+00 0.  1.
         25    2    1    2    0    0 -0.44801047114E+02  0.40097773068E+02  0.24552236213E+03  0.28203464450E+03  0.12508934874E+03 0.  0.
         23    2    1    2    0    0  0.44801047114E+02 -0.40097773068E+02  0.13367939727E+03  0.17323448742E+03  0.92331149401E+02 0.  0.
          5    1    3    3  502    0  0.25077128515E+02  0.38578399443E+02  0.29184254723E+02  0.54647492183E+02  0.41800000000E+01 0.  1.
         -5    1    3    3    0  502 -0.69878175630E+02  0.15193736248E+01  0.21633810740E+03  0.22738715232E+03  0.41800000000E+01 0.  1.
        -11    1    4    4    0    0  0.60364041583E+01  0.29396707524E+02  0.28895363817E+02  0.41659892445E+02  0.00000000000E+00 0. -1.
         11    1    4    4    0    0  0.38764642956E+02 -0.69494480592E+02  0.10478403345E+03  0.13157459498E+03  0.00000000000E+00 0.  1.
</event>
<event>
 8    1  0.6627806E-009  0.3300853E+03  0.7561462E-02  0.1071099E+00
         -1   -1    0    0    0  501 -0.00000000000E+00  0.00000000000E+00  0.38541541052E+03  0.38541541052E+03  0.00000000000E+00 0.  1.
          1   -1    0    0  501    0  0.00000000000E+00 -0.00000000000E+00 -0.32859621391E+03  0.32859621391E+03  0.00000000000E+00 0. -1.
         25    2    1    2    0    0  0.31416066120E+03  0.49149174138E+02  0.14559379401E+03  0.37142736560E+03  0.12509265644E+03 0.  0.
         23    2    1    2    0    0 -0.31416066120E+03 -0.49149174138E+02 -0.88774597399E+02  0.34258425884E+03  0.91490343190E+02 0.  0.
          5    1    3    3  502    0  0.32416831953E+03  0.51992635004E+02  0.14768294670E+03  0.36002230296E+03  0.41800000000E+01 0.  1.
         -5    1    3    3    0  502 -0.10007658328E+02 -0.28434608661E+01 -0.20891526852E+01  0.11405062641E+02  0.41800000000E+01 0.  1.
        -11    1    4    4    0    0 -0.20866240961E+03 -0.12870748530E+02 -0.97509660705E+02  0.23068114636E+03  0.00000000000E+00 0. -1.
         11    1    4    4    0    0 -0.10549825159E+03 -0.36278425609E+02  0.87350633057E+01  0.11190311248E+03  0.00000000000E+00 0.  1.
</event>
<event>
 8    1  0.6627806E-009  0.8273088E+02  0.7561462E-02  0.1321475E+00
          3   -1    0    0  501    0  0.00000000000E+00  0.00000000000E+00  0.86815159747E+02  0.86815159747E+02  0.00000000000E+00 0. -1.
         -3   -1    0    0    0  501 -0.00000000000E+00 -0.00000000000E+00 -0.19369345147E+03  0.19369345147E+03  0.00000000000E+00 0.  1.
         25    2    1    2    0    0  0.18692053802E+02 -0.31946017278E+02 -0.12502346775E+03  0.18068771995E+03  0.12508894338E+03 0.  0.
         23    2    1    2    0    0 -0.18692053802E+02  0.31946017278E+02  0.18145176022E+02  0.99820891272E+02  0.90912166546E+02 0.  0.
          5    1    3    3  502    0 -0.20112102840E+02 -0.49859832021E+01 -0.13116447099E+03  0.13285686870E+03  0.41800000000E+01 0.  1.
         -5    1    3    3    0  502  0.38804156642E+02 -0.26960034076E+02  0.61410032498E+01  0.47830851247E+02  0.41800000000E+01 0.  1.
        -11    1    4    4    0    0  0.60801438863E+01  0.59515040599E+02  0.18931917809E+02  0.62748910102E+02  0.00000000000E+00 0. -1.
         11    1    4    4    0    0 -0.24772197688E+02 -0.27569023321E+02 -0.78674178623E+00  0.37071981169E+02  0.00000000000E+00 0.  1.
</event>
<event>
 8    1  0.6627806E-009  0.1781082E+03  0.7561462E-02  0.1169647E+00
          1   -1    0    0  501    0  0.00000000000E+00  0.00000000000E+00  0.48344198920E+03  0.48344198920E+03  0.00000000000E+00 0. -1.
         -1   -1    0    0    0  501 -0.00000000000E+00 -0.00000000000E+00 -0.81104646713E+02  0.81104646713E+02  0.00000000000E+00 0.  1.
         25    2    1    2    0    0  0.39293254699E+02 -0.16109474979E+03  0.22227396145E+03  0.30421825525E+03  0.12509018593E+03 0.  0.
         23    2    1    2    0    0 -0.39293254699E+02  0.16109474979E+03  0.18006338103E+03  0.26032838066E+03  0.88614707091E+02 0.  0.
          5    1    3    3  502    0  0.31691283962E+02 -0.72819932663E+02  0.19629343878E+03  0.21179156400E+03  0.41800000000E+01 0. -1.
         -5    1    3    3    0  502  0.76019707375E+01 -0.88274817126E+02  0.25980522670E+02  0.92426691253E+02  0.41800000000E+01 0. -1.
        -11    1    4    4    0    0 -0.27114532000E+01  0.14962784900E+03  0.14491481204E+03  0.20831742108E+03  0.00000000000E+00 0. -1.
         11    1    4    4    0    0 -0.36581801499E+02  0.11466900791E+02  0.35148568986E+02  0.52010959580E+02  0.00000000000E+00 0.  1.
</event>
<event>
 8    1  0.6627806E-009  0.1422096E+03  0.7561462E-02  0.1210386E+00
         -2   -1    0    0    0  501 -0.00000000000E+00  0.00000000000E+00  0.21870904160E+02  0.21870904160E+02  0.00000000000E+00 0.  1.
          2   -1    0    0  501    0  0.00000000000E+00 -0.00000000000E+00 -0.13186126742E+04  0.13186126742E+04  0.00000000000E+00 0. -1.
         25    2    1    2    0    0  0.10902558215E+03  0.11878278492E+02 -0.96638613012E+03  0.98060032145E+03  0.12508863612E+03 0.  0.
         23    2    1    2    0    0 -0.10902558215E+03 -0.11878278492E+02 -0.33035563991E+03  0.35988325689E+03  0.91397148256E+02 0.  0.
          5    1    3    3  502    0 -0.23990663568E+02 -0.17484674556E+02 -0.18741009501E+03  0.18979273404E+03  0.41800000000E+01 0. -1.
         -5    1    3    3    0  502  0.13301624572E+03  0.29362953048E+02 -0.77897603510E+03  0.79080758741E+03  0.41800000000E+01 0. -1.
        -11    1    4    4    0    0 -0.76565800664E+02  0.12478110089E+02 -0.29814476642E+03  0.30807195069E+03  0.00000000000E+00 0.  1.
         11    1    4    4    0    0 -0.32459781490E+02 -0.24356388581E+02 -0.32210873493E+02  0.51811306201E+02  0.00000000000E+00 0. -1.
</event>
<event>
 8    1  0.6627806E-009  0.1116489E+03  0.7561462E-02  0.1257547E+00
         -1   -1    0    0    0  501 -0.00000000000E+00  0.00000000000E+00  0.16648529625E+03  0.16648529625E+03  0.00000000000E+00 0. -1.
          1   -1    0    0  501    0  0.00000000000E+00 -0.00000000000E+00 -0.87232045512E+02  0.87232045512E+02  0.00000000000E+00 0.  1.
         25    2    1    2    0    0  0.12092350722E+02  0.46871533591E+02  0.64810397182E+02  0.14896762185E+03  0.12509116344E+03 0.  0.
         23    2    1    2    0    0 -0.12092350722E+02 -0.46871533591E+02  0.14442853560E+02  0.10474971991E+03  0.91764602083E+02 0.  0.
          5    1    3    3  502    0 -0.45169885785E+02 -0.17128635370E+00  0.59127870311E+02  0.74524662820E+02  0.41800000000E+01 0.  1.
         -5    1    3    3    0  502  0.57262236507E+02  0.47042819945E+02  0.56825268702E+01  0.74442959034E+02  0.41800000000E+01 0.  1.
        -11    1    4    4    0    0  0.22062813705E+02  0.19254282021E+02  0.27639194428E+01  0.29413166702E+02  0.00000000000E+00 0. -1.
         11    1    4    4    0    0 -0.34155164427E+02 -0.66125815613E+02  0.11678934118E+02  0.75336553210E+02  0.00000000000E+00 0.  1.
</event>
<event>
 8    1  0.6627806E-009  0.1098130E+03  0.7561462E-02  0.1260917E+00
          2   -1    0    0  501    0  0.00000000000E+00  0.00000000000E+00  0.81018729204E+03  0.81018729204E+03  0.00000000000E+00 0. -1.
         -2   -1    0    0    0  501 -0.00000000000E+00 -0.00000000000E+00 -0.23947111711E+02  0.23947111711E+02  0.00000000000E+00 0.  1.
         25    2    1    2    0    0  0.44923214410E+02  0.41206268416E+01  0.65356640595E+03  0.66695708086E+03  0.12509047115E+03 0.  0.
         23    2    1    2    0    0 -0.44923214410E+02 -0.41206268416E+01  0.13267377438E+03  0.16717732289E+03  0.91163875085E+02 0.  0.
          5    1    3    3  502    0  0.66809711712E+02  0.47045504323E+02  0.34145509534E+03  0.35112087889E+03  0.41800000000E+01 0. -1.
         -5    1    3    3    0  502 -0.21886497302E+02 -0.42924877482E+02  0.31211131061E+03  0.31583620198E+03  0.41800000000E+01 0. -1.
        -11    1    4    4    0    0  0.21492168338E+02  0.58743081016E+01  0.48791804540E+01  0.22808489591E+02  0.00000000000E+00 0.  1.
         11    1    4    4    0    0 -0.66415382748E+02 -0.99949349431E+01  0.12779459393E+03  0.14436883330E+03  0.00000000000E+00 0. -1.
</event>
<event>
 8    1  0.6627806E-009  0.1087918E+03  0.7561462E-02  0.1262824E+00
         -1   -1    0    0    0  501 -0.00000000000E+00  0.00000000000E+00  0.13655424951E+03  0.13655424951E+03  0.00000000000E+00 0.  1.
          1   -1    0    0  501    0  0.00000000000E+00 -0.00000000000E+00 -0.12669964429E+03  0.12669964429E+03  0.00000000000E+00 0. -1.
         25    2    1    2    0    0 -0.75956009436E+02 -0.12794768703E+02  0.24503045229E+02  0.14893504303E+03  0.12509287087E+03 0.  0.
         23    2    1    2    0    0  0.75956009436E+02  0.12794768703E+02 -0.14648440013E+02  0.11431885077E+03  0.83193757999E+02 0.  0.
          5    1    3    3  502    0 -0.38394825170E+02 -0.62332943674E+02  0.41622378599E+02  0.84317573893E+02  0.41800000000E+01 0. -1.
         -5    1    3    3    0  502 -0.37561184265E+02  0.49538174971E+02 -0.17119333370E+02  0.64617469139E+02  0.41800000000E+01 0. -1.
        -11    1    4    4    0    0  0.20745133932E+02  0.16651614556E+02  0.32228639380E+02  0.41789018240E+02  0.00000000000E+00 0.  1.
         11    1    4    4    0    0  0.55210875504E+02 -0.38568458528E+01 -0.46877079393E+02  0.72529832526E+02  0.00000000000E+00 0. -1.
</event>
<event>
 8    1  0.6627806E-009  0.1469695E+03  0.7561462E-02  0.1204247E+00
         -2   -1    0    0    0  501 -0.00000000000E+00  0.00000000000E+00  0.20391077254E+02  0.20391077254E+02  0.00000000000E+00 0. -1.
          2   -1    0    0  501    0  0.00000000000E+00 -0.00000000000E+00 -0.11934922740E+04  0.11934922740E+04  0.00000000000E+00 0.  1.
         25    2    1    2    0    0 -0.23053454358E+02  0.10517299585E+03 -0.74659883232E+03  0.76462401811E+03  0.12508897566E+03 0.  0.
         23    2    1    2    0    0  0.23053454358E+02 -0.10517299585E+03 -0.42650236441E+03  0.44925933313E+03  0.91306411285E+02 0.  0.
          5    1    3    3  502    0  0.44292453559E+02  0.34876702715E+02 -0.15358657690E+03  0.16365975326E+03  0.41800000000E+01 0. -1.
         -5    1    3    3    0  502 -0.67345907916E+02  0.70296293136E+02 -0.59301225543E+03  0.60096426485E+03  0.41800000000E+01 0. -1.
        -11    1    4    4    0    0  0.22517460261E+02 -0.12153229350E+03 -0.35481409980E+03  0.37572620324E+03  0.00000000000E+00 0.  1.
         11    1    4    4    0    0  0.53599409655E+00  0.16359297649E+02 -0.71688264607E+02  0.73533129891E+02  0.00000000000E+00 0. -1.
</event>
<event>
 8    1  0.6627806E-009  0.1451730E+03  0.7561462E-02  0.1206533E+00
         -1   -1    0    0    0  501 -0.00000000000E+00  0.00000000000E+00  0.61473739689E+02  0.61473739689E+02  0.00000000000E+00 0.  1.
          1   -1    0    0  501    0  0.00000000000E+00 -0.00000000000E+00 -0.49166707183E+03  0.49166707183E+03  0.00000000000E+00 0. -1.
         25    2    1    2    0    0 -0.94223439189E+02 -0.90604041247E+02 -0.30041332669E+03  0.35069381514E+03  0.12510330268E+03 0.  0.
         23    2    1    2    0    0  0.94223439189E+02  0.90604041247E+02 -0.12978000545E+03  0.20244699638E+03  0.83992783886E+02 0.  0.
          5    1    3    3  502    0 -0.68516134551E+02 -0.30228425961E+02 -0.26621339609E+03  0.27657777041E+03  0.41800000000E+01 0. -1.
         -5    1    3    3    0  502 -0.25707304638E+02 -0.60375615286E+02 -0.34199930601E+02  0.74116044727E+02  0.41800000000E+01 0. -1.
        -11    1    4    4    0    0  0.42998361211E+02  0.88414494821E+02 -0.57716371541E+02  0.11400509421E+03  0.00000000000E+00 0.  1.
         11    1    4    4    0    0  0.51225077978E+02  0.21895464266E+01 -0.72063633910E+02  0.88441902172E+02  0.00000000000E+00 0. -1.
</event>
<event>
 8    1  0.6627806E-009  0.1974842E+03  0.7561462E-02  0.1151879E+00
         -1   -1    0    0    0  501 -0.00000000000E+00  0.00000000000E+00  0.31903411407E+02  0.31903411407E+02  0.00000000000E+00 0.  1.
          1   -1    0    0  501    0  0.00000000000E+00 -0.00000000000E+00 -0.15453444705E+04  0.15453444705E+04  0.00000000000E+00 0. -1.
         25    2    1    2    0    0  0.58403257456E+02 -0.17853712771E+03 -0.94778477929E+03  0.97428440657E+03  0.12509064944E+03 0.  0.
         23    2    1    2    0    0 -0.58403257456E+02  0.17853712771E+03 -0.56565627975E+03  0.60296347529E+03  0.91167314631E+02 0.  0.
          5    1    3    3  502    0  0.13295009939E+02 -0.14937914465E+03 -0.46739883909E+03  0.49088698631E+03  0.41800000000E+01 0. -1.
         -5    1    3    3    0  502  0.45108247517E+02 -0.29157983055E+02 -0.48038594020E+03  0.48339742026E+03  0.41800000000E+01 0. -1.
        -11    1    4    4    0    0 -0.83593343310E+01  0.81096855094E+02 -0.12761525257E+03  0.15143391649E+03  0.00000000000E+00 0.  1.
         11    1    4    4    0    0 -0.50043923125E+02  0.97440272614E+02 -0.43804102718E+03  0.45152955879E+03  0.00000000000E+00 0. -1.
</event>
<event>
 8    1  0.6627806E-009  0.8521674E+02  0.7561462E-02  0.1314867E+00
         -1   -1    0    0    0  501 -0.00000000000E+00  0.00000000000E+00  0.60836308609E+02  0.60836308609E+02  0.00000000000E+00 0.  1.
          1   -1    0    0  501    0  0.00000000000E+00 -0.00000000000E+00 -0.25613523854E+03  0.25613523854E+03  0.00000000000E+00 0. -1.
         25    2    1    2    0    0  0.38296355615E+02  0.84294103690E+01 -0.61215545285E+02  0.14468130541E+03  0.12509065248E+03 0.  0.
         23    2    1    2    0    0 -0.38296355615E+02 -0.84294103690E+01 -0.13408338465E+03  0.17229024174E+03  0.10083604290E+03 0.  0.
          5    1    3    3  502    0  0.49572752054E+02  0.37003463285E+02  0.13794219416E+02  0.63517453748E+02  0.41800000000E+01 0.  1.
         -5    1    3    3    0  502 -0.11276396439E+02 -0.28574052916E+02 -0.75009764701E+02  0.81163851665E+02  0.41800000000E+01 0.  1.
        -11    1    4    4    0    0 -0.57631693242E+02 -0.60129266000E+01 -0.27859678520E+02  0.64294082461E+02  0.00000000000E+00 0.  1.
         11    1    4    4    0    0  0.19335337627E+02 -0.24164837689E+01 -0.10622370613E+03  0.10799615928E+03  0.00000000000E+00 0. -1.
</event>
<event>
 8    1  0.6627806E-009  0.2035128E+03  0.7561462E-02  0.1146809E+00
         -1   -1    0    0    0  501 -0.00000000000E+00  0.00000000000E+00  0.33014705304E+02  0.33014705304E+02  0.00000000000E+00 0.  1.
          1   -1    0    0  501    0  0.00000000000E+00 -0.00000000000E+00 -0.14452472387E+04  0.14452472387E+04  0.00000000000E+00 0. -1.
         25    2    1    2    0    0  0.18317382075E+03  0.20248119426E+02 -0.56326003589E+03  0.60570890629E+03  0.12513503176E+03 0.  0.
         23    2    1    2    0    0 -0.18317382075E+03 -0.20248119426E+02 -0.84897249753E+03  0.87255303774E+03  0.81436276707E+02 0.  0.
          5    1    3    3  502    0 -0.13557462854E+02 -0.67576869113E+01 -0.12040703364E+02  0.19797021719E+02  0.41800000000E+01 0. -1.
         -5    1    3    3    0  502  0.19673128361E+03  0.27005806338E+02 -0.55121933253E+03  0.58591188457E+03  0.41800000000E+01 0. -1.
        -11    1    4    4    0    0 -0.68079366222E+02 -0.35180160711E+02 -0.22005136243E+03  0.23301297372E+03  0.00000000000E+00 0.  1.
         11    1    4    4    0    0 -0.11509445453E+03  0.14932041285E+02 -0.62892113510E+03  0.63954006402E+03  0.00000000000E+00 0. -1.
</event>
<event>
 8    1  0.6627806E-009  0.1864734E+03  0.7561462E-02  0.1161681E+00
          2   -1    0    0  501    0  0.00000000000E+00  0.00000000000E+00  0.62925109000E+03  0.62925109000E+03  0.00000000000E+00 0. -1.
         -2   -1    0    0    0  501 -0.00000000000E+00 -0.00000000000E+00 -0.15076317357E+03  0.15076317357E+03  0.00000000000E+00 0.  1.
         25    2    1    2    0    0 -0.94459192036E+02  0.13179865936E+03  0.54542372187E+03  0.58260497665E+03  0.12509235337E+03 0.  0.
         23    2    1    2    0    0  0.94459192036E+02 -0.13179865936E+03 -0.66935805433E+02  0.19740928693E+03  0.90535070254E+02 0.  0.
          5    1    3    3  502    0 -0.72376611364E+02  0.15442586880E+03  0.42325027828E+03  0.45633758698E+03  0.41800000000E+01 0. -1.
         -5    1    3    3    0  502 -0.22082580673E+02 -0.22627209438E+02  0.12217344358E+03  0.12626738967E+03  0.41800000000E+01 0. -1.
        -11    1    4    4    0    0  0.50413406440E+01 -0.46854982288E+02  0.14865653003E+02  0.49414493015E+02  0.00000000000E+00 0. -1.
         11    1    4    4    0    0  0.89417851392E+02 -0.84943677073E+02 -0.81801458437E+02  0.14799479391E+03  0.00000000000E+00 0.  1.
</event>
<event>
 8    1  0.6627806E-009  0.1700450E+03  0.7561462E-02  0.1177801E+00
          2   -1    0    0  501    0  0.00000000000E+00  0.00000000000E+00  0.77834068424E+03  0.77834068424E+03  0.00000000000E+00 0.  1.
         -2   -1    0    0    0  501 -0.00000000000E+00 -0.00000000000E+00 -0.61894674335E+02  0.61894674335E+02  0.00000000000E+00 0. -1.
         25    2    1    2    0    0 -0.16953157084E+02 -0.13964169065E+03  0.61878718620E+03  0.64678638295E+03  0.12509129490E+03 0.  0.
         23    2    1    2    0    0  0.16953157084E+02  0.13964169065E+03  0.97658823702E+02  0.19344897562E+03  0.89989160565E+02 0.  0.
          5    1    3    3  502    0  0.41524711662E+02 -0.10746504584E+02  0.97314296068E+02  0.10642994719E+03  0.41800000000E+01 0.  1.
         -5    1    3    3    0  502 -0.58477868746E+02 -0.12889518607E+03  0.52147289014E+03  0.54035643576E+03  0.41800000000E+01 0.  1.
        -11    1    4    4    0    0 -0.12564900344E+02  0.11830434470E+03  0.10207712069E+03  0.15675947583E+03  0.00000000000E+00 0.  1.
         11    1    4    4    0    0  0.29518057428E+02  0.21337345956E+02 -0.44182969850E+01  0.36689499793E+02  0.00000000000E+00 0. -1.
</event>
<event>
 8    1  0.6627806E-009  0.7758784E+02  0.7561462E-02  0.1336040E+00
         -2   -1    0    0    0  501 -0.00000000000E+00  0.00000000000E+00  0.42609243901E+02  0.42609243901E+02  0.00000000000E+00 0.  1.
          2   -1    0    0  501    0  0.00000000000E+00 -0.00000000000E+00 -0.32285090458E+03  0.32285090458E+03  0.00000000000E+00 0. -1.
         25    2    1    2    0    0  0.12314174197E+02 -0.39897935718E+02 -0.12276472241E+03  0.18017262463E+03  0.12509002133E+03 0.  0.
         23    2    1    2    0    0 -0.12314174197E+02  0.39897935718E+02 -0.15747693827E+03  0.18528752385E+03  0.88255290203E+02 0.  0.
          5    1    3    3  502    0  0.11649008637E+02  0.43297023749E+01  0.23717554103E+02  0.27100562679E+02  0.41800000000E+01 0. -1.
         -5    1    3    3    0  502  0.66516556031E+00 -0.44227638093E+02 -0.14648227651E+03  0.15307206195E+03  0.41800000000E+01 0. -1.
        -11    1    4    4    0    0 -0.41132869049E+02  0.52064737462E+02 -0.10684654567E+03  0.12577294671E+03  0.00000000000E+00 0. -1.
         11    1    4    4    0    0  0.28818694851E+02 -0.12166801745E+02 -0.50630392602E+02  0.59514577144E+02  0.00000000000E+00 0.  1.
</event>
<event>
 8    1  0.6627806E-009  0.3049491E+03  0.7561462E-02  0.1082792E+00
          1   -1    0    0  501    0  0.00000000000E+00  0.00000000000E+00  0.53076831891E+03  0.53076831891E+03  0.00000000000E+00 0. -1.
         -1   -1    0    0    0  501 -0.00000000000E+00 -0.00000000000E+00 -0.18494838495E+03  0.18494838495E+03  0.00000000000E+00 0.  1.
         25    2    1    2    0    0  0.60389492453E+02 -0.28650126560E+03  0.14997187307E+03  0.35195019702E+03  0.12509001751E+03 0.  0.
         23    2    1    2    0    0 -0.60389492453E+02  0.28650126560E+03  0.19584806089E+03  0.36376650684E+03  0.90773027697E+02 0.  0.
          5    1    3    3  502    0 -0.97890120347E+01 -0.19380115546E+03  0.54916675592E+02  0.20171273206E+03  0.41800000000E+01 0. -1.
         -5    1    3    3    0  502  0.70178504488E+02 -0.92700110140E+02  0.95055197480E+02  0.15023746497E+03  0.41800000000E+01 0. -1.
        -11    1    4    4    0    0 -0.22627091257E+01  0.16246595012E+03  0.67143980244E+02  0.17580847216E+03  0.00000000000E+00 0. -1.
         11    1    4    4    0    0 -0.58126783328E+02  0.12403531548E+03  0.12870408064E+03  0.18795803468E+03  0.00000000000E+00 0.  1.
</event>
<event>
 8    1  0.6627806E-009  0.2943570E+03  0.7561462E-02  0.1088096E+00
         -1   -1    0    0    0  501 -0.00000000000E+00  0.00000000000E+00  0.99741029890E+02  0.99741029890E+02  0.00000000000E+00 0.  1.
          1   -1    0    0  501    0  0.00000000000E+00 -0.00000000000E+00 -0.10783060469E+04  0.10783060469E+04  0.00000000000E+00 0. -1.
         25    2    1    2    0    0 -0.20416874537E+03 -0.20491635423E+03 -0.30307713244E+03  0.43723995355E+03  0.12508972761E+03 0.  0.
         23    2    1    2    0    0  0.20416874537E+03  0.20491635423E+03 -0.67548788457E+03  0.74080712324E+03  0.93998525677E+02 0.  0.
          5    1    3    3  502    0 -0.15766753182E+03 -0.10824248967E+03 -0.25708367397E+03  0.32044496405E+03  0.41800000000E+01 0.  1.
         -5    1    3    3    0  502 -0.46501213552E+02 -0.96673864564E+02 -0.45993458469E+02  0.11679498951E+03  0.41800000000E+01 0.  1.
        -11    1    4    4    0    0  0.77824246334E+02  0.93117880600E+02 -0.17751689687E+03  0.21503441976E+03  0.00000000000E+00 0.  1.
         11    1    4    4    0    0  0.12634449904E+03  0.11179847363E+03 -0.49797098770E+03  0.52577270349E+03  0.00000000000E+00 0. -1.
</event>
<event>
 8    1  0.6627806E-009  0.8458933E+02  0.7561462E-02  0.1316510E+00
          2   -1    0    0  501    0  0.00000000000E+00  0.00000000000E+00  0.19919263089E+03  0.19919263089E+03  0.00000000000E+00 0. -1.
         -2   -1    0    0    0  501 -0.00000000000E+00 -0.00000000000E+00 -0.80724838529E+02  0.80724838529E+02  0.00000000000E+00 0.  1.
         25    2    1    2    0    0 -0.18460354261E+02  0.30830598259E+01 -0.30815596476E+01  0.12651466889E+03  0.12508467331E+03 0.  0.
         23    2    1    2    0    0  0.18460354261E+02 -0.30830598259E+01  0.12154935201E+03  0.15340280053E+03  0.91694516189E+02 0.  0.
          5    1    3    3  502    0  0.67652442015E+01 -0.35057904065E+02 -0.49529638876E+02  0.61200348804E+02  0.41800000000E+01 0.  1.
         -5    1    3    3    0  502 -0.25225598463E+02  0.38140963891E+02  0.46448079229E+02  0.65314320087E+02  0.41800000000E+01 0.  1.
        -11    1    4    4    0    0  0.52155367694E+02  0.57675701269E+01  0.44343367558E+02  0.68700665869E+02  0.00000000000E+00 0.  1.
         11    1    4    4    0    0 -0.33695013433E+02 -0.88506299528E+01  0.77205984455E+02  0.84702134663E+02  0.00000000000E+00 0. -1.
</event>
<event>
 8    1  0.6627806E-009  0.1108867E+03  0.7561462E-02  0.1258937E+00
         -1   -1    0    0    0  501 -0.00000000000E+00  0.00000000000E+00  0.31757106500E+03  0.31757106500E+03  0.00000000000E+00 0.  1.
          1   -1    0    0  501    0  0.00000000000E+00 -0.00000000000E+00 -0.47015884222E+02  0.47015884222E+02  0.00000000000E+00 0. -1.
         25    2    1    2    0    0  0.16196059685E+02 -0.52166754484E+02  0.14639164032E+03  0.20015516329E+03  0.12509154413E+03 0.  0.
         23    2    1    2    0    0 -0.16196059685E+02  0.52166754484E+02  0.12416354046E+03  0.16443178594E+03  0.92938392627E+02 0.  0.
          5    1    3    3  502    0 -0.12461317621E+02 -0.82382435131E+02  0.13150260517E+03  0.15573232683E+03  0.41800000000E+01 0. -1.
         -5    1    3    3    0  502  0.28657377305E+02  0.30215680647E+02  0.14889035153E+02  0.44422836455E+02  0.41800000000E+01 0. -1.
        -11    1    4    4    0    0  0.22746834352E+02 -0.86024317882E+01  0.70255762740E+02  0.74345763187E+02  0.00000000000E+00 0.  1.
         11    1    4    4    0    0 -0.38942894036E+02  0.60769186272E+02  0.53907777721E+02  0.90086022750E+02  0.00000000000E+00 0. -1.
</event>
<event>
 8    1  0.6627806E-009  0.7780331E+02  0.7561462E-02  0.1335403E+00
         -2   -1    0    0    0  501 -0.00000000000E+00  0.00000000000E+00  0.25383826696E+03  0.25383826696E+03  0.00000000000E+00 0. -1.
          2   -1    0    0  501    0  0.00000000000E+00 -0.00000000000E+00 -0.59898558299E+02  0.59898558299E+02  0.00000000000E+00 0.  1.
         25    2    1    2    0    0 -0.18826584715E+02  0.44443778211E+02  0.65667074278E+02  0.14930125403E+03  0.12509600353E+03 0.  0.
         23    2    1    2    0    0  0.18826584715E+02 -0.44443778211E+02  0.12827263438E+03  0.16443557123E+03  0.90859774591E+02 0.  0.
          5    1    3    3  502    0 -0.16027030401E+02  0.24148236847E+01 -0.35712068845E+02  0.39440098100E+02  0.41800000000E+01 0.  1.
         -5    1    3    3    0  502 -0.27995543146E+01  0.42028954526E+02  0.10137914312E+03  0.10986115594E+03  0.41800000000E+01 0.  1.
        -11    1    4    4    0    0 -0.29168984004E+02  0.26612549924E+01  0.15511801776E+02  0.33144047736E+02  0.00000000000E+00 0.  1.
         11    1    4    4    0    0  0.47995568720E+02 -0.47105033203E+02  0.11276083261E+03  0.13129152349E+03  0.00000000000E+00 0. -1.
</event>
<event>
 8    1  0.6627806E-009  0.1185629E+03  0.7561462E-02  0.1245487E+00
         -3   -1    0    0    0  501 -0.00000000000E+00  0.00000000000E+00  0.56628405787E+02  0.56628405787E+02  0.00000000000E+00 0.  1.
          3   -1    0    0  501    0  0.00000000000E+00 -0.00000000000E+00 -0.46732692776E+03  0.46732692776E+03  0.00000000000E+00 0. -1.
         25    2    1    2    0    0  0.10361364406E+02  0.72937256520E+02 -0.65361029494E+02  0.15921021190E+03  0.12509446885E+03 0.  0.
         23    2    1    2    0    0 -0.10361364406E+02 -0.72937256520E+02 -0.34533749248E+03  0.36474512165E+03  0.91399227521E+02 0.  0.
          5    1    3    3  502    0  0.47828257224E+02  0.14174743649E+02  0.15476737357E+02  0.52397207424E+02  0.41800000000E+01 0. -1.
         -5    1    3    3    0  502 -0.37466892818E+02  0.58762512870E+02 -0.80837766851E+02  0.10681300448E+03  0.41800000000E+01 0. -1.
        -11    1    4    4    0    0 -0.46630268572E+01  0.21824716032E+02 -0.73039271461E+02  0.76372751849E+02  0.00000000000E+00 0. -1.
         11    1    4    4    0    0 -0.56983375486E+01 -0.94761972552E+02 -0.27229822102E+03  0.28837236980E+03  0.00000000000E+00 0.  1.
</event>
<event>
 8    1  0.6627806E-009  0.8175355E+02  0.7561462E-02  0.1324147E+00
          2   -1    0    0  501    0  0.00000000000E+00  0.00000000000E+00  0.13075820177E+03  0.13075820177E+03  0.00000000000E+00 0.  1.
         -2   -1    0    0    0  501 -0.00000000000E+00 -0.00000000000E+00 -0.11309137317E+03  0.11309137317E+03  0.00000000000E+00 0. -1.
         25    2    1    2    0    0 -0.22142023884E+01 -0.32792199868E+02 -0.34847291152E+02  0.13396448496E+03  0.12510762753E+03 0.  0.
         23    2    1    2    0    0  0.22142023884E+01  0.32792199868E+02  0.52514119751E+02  0.10988508998E+03  0.90756648035E+02 0.  0.
          5    1    3    3  502    0  0.31841484378E+01  0.27306379039E+02  0.32944897348E+02  0.43111666620E+02  0.41800000000E+01 0.  1.
         -5    1    3    3    0  502 -0.53983508263E+01 -0.60098578907E+02 -0.67792188501E+02  0.90852818338E+02  0.41800000000E+01 0.  1.
        -11    1    4    4    0    0  0.26679777483E+02  0.41422863659E+02 -0.22121124968E+01  0.49320965136E+02  0.00000000000E+00 0. -1.
         11    1    4    4    0    0 -0.24465575095E+02 -0.86306637906E+01  0.54726232248E+02  0.60564124845E+02  0.00000000000E+00 0.  1.
</event>
<event>
 8    1  0.6627806E-009  0.1163466E+03  0.7561462E-02  0.1249249E+00
         -1   -1    0    0    0  501 -0.00000000000E+00  0.00000000000E+00  0.15966232278E+02  0.15966232278E+02  0.00000000000E+00 0.  1.
          1   -1    0    0  501    0  0.00000000000E+00 -0.00000000000E+00 -0.95176127863E+03  0.95176127863E+03  0.00000000000E+00 0. -1.
         25    2    1    2    0    0 -0.62435122292E+02  0.32198192771E+01 -0.48183744314E+03  0.50172094107E+03  0.12509224342E+03 0.  0.
         23    2    1    2    0    0  0.62435122292E+02 -0.32198192771E+01 -0.45395760322E+03  0.46600656985E+03  0.84711899325E+02 0.  0.
          5    1    3    3  502    0  0.33981987722E+02 -0.20097623520E+02 -0.11378042726E+03  0.12050787521E+03  0.41800000000E+01 0.  1.
         -5    1    3    3    0  502 -0.96417110014E+02  0.23317442798E+02 -0.36805701588E+03  0.38121306586E+03  0.41800000000E+01 0.  1.
        -11    1    4    4    0    0 -0.82519254236E+01  0.18085896732E+02 -0.32246739398E+02  0.37882002793E+02  0.00000000000E+00 0.  1.
         11    1    4    4    0    0  0.70687047715E+02 -0.21305716010E+02 -0.42171086382E+03  0.42812456705E+03  0.00000000000E+00 0. -1.
</event>
<event>
 8    1  0.6627806E-009  0.1044240E+03  0.7561462E-02  0.1271259E+00
          1   -1    0    0  501    0  0.00000000000E+00  0.00000000000E+00  0.26533759378E+02  0.26533759378E+02  0.00000000000E+00 0. -1.
         -1   -1    0    0    0  501 -0.00000000000E+00 -0.00000000000E+00 -0.57660032983E+03  0.57660032983E+03  0.00000000000E+00 0.  1.
         25    2    1    2    0    0 -0.42694910349E+02  0.39898036033E+02 -0.30046936100E+03  0.33067586932E+03  0.12509990009E+03 0.  0.
         23    2    1    2    0    0  0.42694910349E+02 -0.39898036033E+02 -0.24959720945E+03  0.27245821988E+03  0.92303878402E+02 0.  0.
          5    1    3    3  502    0  0.34633021006E+02  0.46169327967E+02 -0.16013601486E+03  0.17027057480E+03  0.41800000000E+01 0. -1.
         -5    1    3    3    0  502 -0.77327931355E+02 -0.62712919347E+01 -0.14033334614E+03  0.16040529452E+03  0.41800000000E+01 0. -1.
        -11    1    4    4    0    0  0.82883362169E+01  0.98039481477E+01  0.26162397957E+01  0.13101855868E+02  0.00000000000E+00 0. -1.
         11    1    4    4    0    0  0.34406574132E+02 -0.49701984181E+02 -0.25221344924E+03  0.25935636401E+03  0.00000000000E+00 0.  1.
</event>
<event>
 8    1  0.6627806E-009  0.1773095E+03  0.7561462E-02  0.1170433E+00
         -1   -1    0    0    0  501 -0.00000000000E+00  0.00000000000E+00  0.20068374430E+03  0.20068374430E+03  0.00000000000E+00 0.  1.
          1   -1    0    0  501    0  0.00000000000E+00 -0.00000000000E+00 -0.17321825056E+03  0.17321825056E+03  0.00000000000E+00 0. -1.
         25    2    1    2    0    0  0.17299458273E+02 -0.14772582139E+03  0.42898660945E+02  0.19901790131E+03  0.12508253422E+03 0.  0.
         23    2    1    2    0    0 -0.17299458273E+02  0.14772582139E+03 -0.15433167206E+02  0.17488409355E+03  0.90686680191E+02 0.  0.
          5    1    3    3  502    0  0.38771882771E+02  0.18959078355E+01  0.25901667132E+02  0.46853197546E+02  0.41800000000E+01 0. -1.
         -5    1    3    3    0  502 -0.21472424498E+02 -0.14962172923E+03  0.16996993814E+02  0.15216470376E+03  0.41800000000E+01 0. -1.
        -11    1    4    4    0    0  0.27084182564E+02  0.66479078005E+02 -0.35609730775E+02  0.80131602277E+02  0.00000000000E+00 0.  1.
         11    1    4    4    0    0 -0.44383640837E+02  0.81246743388E+02  0.20176563569E+02  0.94752491274E+02  0.00000000000E+00 0. -1.
</event>
<event>
 8    1  0.6627806E-009  0.1018309E+03  0.7561462E-02  0.1276492E+00
         -2   -1    0    0    0  501 -0.00000000000E+00  0.00000000000E+00  0.55991620653E+02  0.55991620653E+02  0.00000000000E+00 0. -1.
          2   -1    0    0  501    0  0.00000000000E+00 -0.00000000000E+00 -0.32961927886E+03  0.32961927886E+03  0.00000000000E+00 0.  1.
         25    2    1    2    0    0  0.64602492873E+02  0.43671942325E+02 -0.19112247407E+03  0.24136469907E+03  0.12509355390E+03 0.  0.
         23    2    1    2    0    0 -0.64602492873E+02 -0.43671942325E+02 -0.82505184139E+02  0.14424620045E+03  0.88989551648E+02 0.  0.
          5    1    3    3  502    0  0.40034574843E+02  0.69926653933E+02 -0.48322573881E+02  0.94048113535E+02  0.41800000000E+01 0.  1.
         -5    1    3    3    0  502  0.24567918030E+02 -0.26254711608E+02 -0.14279990019E+03  0.14731658553E+03  0.41800000000E+01 0.  1.
        -11    1    4    4    0    0 -0.60263312682E+02 -0.21187896271E+02 -0.57382299505E+01  0.64136737419E+02  0.00000000000E+00 0. -1.
         11    1    4    4    0    0 -0.43391801913E+01 -0.22484046054E+02 -0.76766954189E+02  0.80109463031E+02  0.00000000000E+00 0.  1.
</event>
<event>
 8    1  0.6627806E-009  0.9350410E+02  0.7561462E-02  0.1294581E+00
          2   -1    0    0  501    0  0.00000000000E+00  0.00000000000E+00  0.18358223253E+03  0.18358223253E+03  0.00000000000E+00 0.  1.
         -2   -1    0    0    0  501 -0.00000000000E+00 -0.00000000000E+00 -0.84291712061E+02  0.84291712061E+02  0.00000000000E+00 0. -1.
         25    2    1    2    0    0 -0.26139229903E+02 -0.12839626594E+02 -0.35452406845E+01  0.12848220415E+03  0.12508793987E+03 0.  0.
         23    2    1    2    0    0  0.26139229903E+02  0.12839626594E+02  0.10283576115E+03  0.13939174044E+03  0.89480434619E+02 0.  0.
          5    1    3    3  502    0 -0.22959406016E+02 -0.50139327331E+02 -0.45849721528E+02  0.71838400832E+02  0.41800000000E+01 0.  1.
         -5    1    3    3    0  502 -0.31798238870E+01  0.37299700737E+02  0.42304480843E+02  0.56643803319E+02  0.41800000000E+01 0.  1.
        -11    1    4    4    0    0 -0.33380547356E+02  0.12844977023E+01  0.34091697616E+02  0.47730019091E+02  0.00000000000E+00 0. -1.
         11    1    4    4    0    0  0.59519777259E+02  0.11555128892E+02  0.68744063533E+02  0.91661721344E+02  0.00000000000E+00 0.  1.
</event>
<event>
 8    1  0.6627806E-009  0.5913384E+02  0.7561462E-02  0.1401503E+00
          1   -1    0    0  501    0  0.00000000000E+00  0.00000000000E+00  0.19663562846E+03  0.19663562846E+03  0.00000000000E+00 0. -1.
         -1   -1    0    0    0  501 -0.00000000000E+00 -0.00000000000E+00 -0.63731113609E+02  0.63731113609E+02  0.00000000000E+00 0.  1.
         25    2    1    2    0    0 -0.44824627875E+01 -0.25563110670E+02  0.80313491232E+02  0.15090419951E+03  0.12509298723E+03 0.  0.
         23    2    1    2    0    0  0.44824627875E+01  0.25563110670E+02  0.52591023617E+02  0.10946254256E+03  0.92426551159E+02 0.  0.
          5    1    3    3  502    0 -0.24632373107E+01 -0.20264249555E+02  0.11430585118E+03  0.11618953207E+03  0.41800000000E+01 0. -1.
         -5    1    3    3    0  502 -0.20192254768E+01 -0.52988611152E+01 -0.33992359947E+02  0.34714667439E+02  0.41800000000E+01 0. -1.
        -11    1    4    4    0    0  0.81494058270E+01 -0.31839758033E+02  0.37762844581E+02  0.50062115794E+02  0.00000000000E+00 0.  1.
         11    1    4    4    0    0 -0.36669430395E+01  0.57402868703E+02  0.14828179036E+02  0.59400426767E+02  0.00000000000E+00 0. -1.
</event>
<event>
 8    1  0.6627806E-009  0.1531789E+03  0.7561462E-02  0.1196620E+00
         -2   -1    0    0    0  501 -0.00000000000E+00  0.00000000000E+00  0.58926226706E+03  0.58926226706E+03  0.00000000000E+00 0.  1.
          2   -1    0    0  501    0  0.00000000000E+00 -0.00000000000E+00 -0.40992877276E+02  0.40992877276E+02  0.00000000000E+00 0. -1.
         25    2    1    2    0    0 -0.95120243630E+02  0.55606709082E+02  0.30773328642E+03  0.34998140315E+03  0.12508892891E+03 0.  0.
         23    2    1    2    0    0  0.95120243630E+02 -0.55606709082E+02  0.24053610337E+03  0.28027374119E+03  0.92497492586E+02 0.  0.
          5    1    3    3  502    0 -0.39232261619E+02  0.89210450881E+02  0.21937522889E+03  0.24008464830E+03  0.41800000000E+01 0. -1.
         -5    1    3    3    0  502 -0.55887982011E+02 -0.33603741798E+02  0.88358057523E+02  0.10989675484E+03  0.41800000000E+01 0. -1.
        -11    1    4    4    0    0  0.95563561576E+02 -0.80446465092E+01  0.17033560882E+03  0.19547718606E+03  0.00000000000E+00 0. -1.
         11    1    4    4    0    0 -0.44331794629E+00 -0.47562062573E+02  0.70200494550E+02  0.84796555131E+02  0.00000000000E+00 0.  1.
</event>
<event>
 8    1  0.6627806E-009  0.1305350E+03  0.7561462E-02  0.1226664E+00
         -1   -1    0    0    0  501 -0.00000000000E+00  0.00000000000E+00  0.30304033804E+02  0.30304033804E+02  0.00000000000E+00 0.  1.
          1   -1    0    0  501    0  0.00000000000E+00 -0.00000000000E+00 -0.76656419145E+03  0.76656419145E+03  0.00000000000E+00 0. -1.
         25    2    1    2    0    0  0.64053373599E+02 -0.80919399681E+02 -0.33442409123E+03  0.37166853159E+03  0.12508893104E+03 0.  0.
         23    2    1    2    0    0 -0.64053373599E+02  0.80919399681E+02 -0.40183606642E+03  0.42519969366E+03  0.93122345875E+02 0.  0.
          5    1    3    3  502    0  0.84915639347E+02 -0.85458113176E+02 -0.32727327128E+03  0.34876786177E+03  0.41800000000E+01 0. -1.
         -5    1    3    3    0  502 -0.20862265747E+02  0.45387134957E+01 -0.71508199536E+01  0.22900669822E+02  0.41800000000E+01 0. -1.
        -11    1    4    4    0    0 -0.47248959325E+02  0.88508208854E+02 -0.39131162562E+03  0.40396900319E+03  0.00000000000E+00 0. -1.
         11    1    4    4    0    0 -0.16804414274E+02 -0.75888091736E+01 -0.10524440795E+02  0.21230690470E+02  0.00000000000E+00 0.  1.
</event>
<event>
 8    1  0.6627806E-009  0.1412013E+03  0.7561462E-02  0.1211722E+00
         -1   -1    0    0    0  501 -0.00000000000E+00  0.00000000000E+00  0.56048135127E+03  0.56048135127E+03  0.00000000000E+00 0.  1.
          1   -1    0    0  501    0  0.00000000000E+00 -0.00000000000E+00 -0.39951988906E+02  0.39951988906E+02  0.00000000000E+00 0. -1.
         25    2    1    2    0    0  0.80176480175E+02  0.54063843673E+02  0.21223530329E+03  0.26465499482E+03  0.12508906889E+03 0.  0.
         23    2    1    2    0    0 -0.80176480175E+02 -0.54063843673E+02  0.30829405907E+03  0.33577834536E+03  0.91382181981E+02 0.  0.
          5    1    3    3  502    0  0.41942095577E+02 -0.38243068180E+02  0.93048597886E+02  0.10907422067E+03  0.41800000000E+01 0.  1.
         -5    1    3    3    0  502  0.38234384598E+02  0.92306911853E+02  0.11918670540E+03  0.15558077415E+03  0.41800000000E+01 0.  1.
        -11    1    4    4    0    0  0.59819356315E+01 -0.37223040397E+02  0.47733523772E+02  0.60826208019E+02  0.00000000000E+00 0. -1.
         11    1    4    4    0    0 -0.86158415807E+02 -0.16840803276E+02  0.26056053530E+03  0.27495213734E+03  0.00000000000E+00 0.  1.
</event>
<event>
 8    1  0.6627806E-009  0.2379024E+03  0.7561462E-02  0.1121198E+00
          1   -1    0    0  501    0  0.00000000000E+00  0.00000000000E+00  0.83363177134E+03  0.83363177134E+03  0.00000000000E+00 0. -1.
         -1   -1    0    0    0  501 -0.00000000000E+00 -0.00000000000E+00 -0.85980067305E+02  0.85980067305E+02  0.00000000000E+00 0.  1.
         25    2    1    2    0    0  0.50132322693E+02 -0.21137564914E+03  0.58019812186E+03  0.63203661591E+03  0.12509000125E+03 0.  0.
         23    2    1    2    0    0 -0.50132322693E+02  0.21137564914E+03  0.16745358218E+03  0.28757522274E+03  0.86405391722E+02 0.  0.
          5    1    3    3  502    0 -0.33674407653E+02 -0.63962809642E+02  0.10561338511E+03  0.12805024897E+03  0.41800000000E+01 0. -1.
         -5    1    3    3    0  502  0.83806730346E+02 -0.14741283950E+03  0.47458473675E+03  0.50398636694E+03  0.41800000000E+01 0. -1.
        -11    1    4    4    0    0  0.15990981866E+02  0.11958383679E+03  0.88079147525E+02  0.14937851837E+03  0.00000000000E+00 0.  1.
         11    1    4    4    0    0 -0.66123304558E+02  0.91791812356E+02  0.79374434653E+02  0.13819670437E+03  0.00000000000E+00 0. -1.
</event>
<event>
 8    1  0.6627806E-009  0.1952018E+03  0.7561462E-02  0.1153852E+00
          2   -1    0    0  501    0  0.00000000000E+00  0.00000000000E+00  0.40382739860E+03  0.40382739860E+03  0.00000000000E+00 0. -1.
         -2   -1    0    0    0  501 -0.00000000000E+00 -0.00000000000E+00 -0.11939814353E+03  0.11939814353E+03  0.00000000000E+00 0.  1.
         25    2    1    2    0    0  0.48003259477E+02 -0.17677988080E+03  0.87558713524E+02  0.23847353989E+03  0.12509061411E+03 0.  0.
         23    2    1    2    0    0 -0.48003259477E+02  0.17677988080E+03  0.19687054155E+03  0.28475200224E+03  0.93649631491E+02 0.  0.
          5    1    3    3  502    0  0.10673632126E+02 -0.81695343603E+02  0.10627844471E+03  0.13453860338E+03  0.41800000000E+01 0. -1.
         -5    1    3    3    0  502  0.37329627351E+02 -0.95084537192E+02 -0.18719731187E+02  0.10393493651E+03  0.41800000000E+01 0. -1.
        -11    1    4    4    0    0 -0.24467017135E+01  0.15527720988E+03  0.15156333779E+03  0.21699871801E+03  0.00000000000E+00 0.  1.
         11    1    4    4    0    0 -0.45556557763E+02  0.21502670915E+02  0.45307203758E+02  0.67753284231E+02  0.00000000000E+00 0. -1.
</event>
<event>
 8    1  0.6627806E-009  0.2473566E+03  0.7561462E-02  0.1114987E+00
         -2   -1    0    0    0  501 -0.00000000000E+00  0.00000000000E+00  0.46918765855E+02  0.46918765855E+02  0.00000000000E+00 0.  1.
          2   -1    0    0  501    0  0.00000000000E+00 -0.00000000000E+00 -0.15448427904E+04  0.15448427904E+04  0.00000000000E+00 0. -1.
         25    2    1    2    0    0  0.22883903221E+03  0.64594070336E+02 -0.57796687373E+03  0.63736392505E+03  0.12508944497E+03 0.  0.
         23    2    1    2    0    0 -0.22883903221E+03 -0.64594070336E+02 -0.91995715084E+03  0.95439763123E+03  0.89520849653E+02 0.  0.
          5    1    3    3  502    0  0.23245564874E+03  0.64339084327E+02 -0.58232954526E+03  0.63031763270E+03  0.41800000000E+01 0. -1.
         -5    1    3    3    0  502 -0.36166165265E+01  0.25498600854E+00  0.43626715369E+01  0.70462923515E+01  0.41800000000E+01 0. -1.
        -11    1    4    4    0    0 -0.34525141899E+02 -0.38789083446E+02 -0.11961837632E+03  0.13040373603E+03  0.00000000000E+00 0.  1.
         11    1    4    4    0    0 -0.19431389032E+03 -0.25804986889E+02 -0.80033877452E+03  0.82399389520E+03  0.00000000000E+00 0. -1.
</event>
<event>
 8    1  0.6627806E-009  0.1019296E+03  0.7561462E-02  0.1276290E+00
          1   -1    0    0  501    0  0.00000000000E+00  0.00000000000E+00  0.20182138519E+03  0.20182138519E+03  0.00000000000E+00 0. -1.
         -1   -1    0    0    0  501 -0.00000000000E+00 -0.00000000000E+00 -0.11906271829E+03  0.11906271829E+03  0.00000000000E+00 0.  1.
         25    2    1    2    0    0 -0.54361154960E+02 -0.33610377041E+02  0.13839501881E+03  0.19718556456E+03  0.12507666859E+03 0.  0.
         23    2    1    2    0    0  0.54361154960E+02  0.33610377041E+02 -0.55636351910E+02  0.12369853892E+03  0.90117324994E+02 0.  0.
          5    1    3    3  502    0 -0.77153403986E+02 -0.91372237772E+01  0.14336610318E+03  0.16311789768E+03  0.41800000000E+01 0.  1.
         -5    1    3    3    0  502  0.22792249026E+02 -0.24473153264E+02 -0.49710843704E+01  0.34067666873E+02  0.41800000000E+01 0.  1.
        -11    1    4    4    0    0  0.69808641655E+02  0.22579321193E+02 -0.97164060102E+01  0.74010004331E+02  0.00000000000E+00 0. -1.
         11    1    4    4    0    0 -0.15447486695E+02  0.11031055848E+02 -0.45919945900E+02  0.49688534591E+02  0.00000000000E+00 0.  1.
</event>
<event>
 8    1  0.6627806E-009  0.8922036E+02  0.7561462E-02  0.1304751E+00
          2   -1    0    0  501    0  0.00000000000E+00  0.00000000000E+00  0.21013180462E+03  0.21013180462E+03  0.00000000000E+00 0. -1.
         -2   -1    0    0    0  501 -0.00000000000E+00 -0.00000000000E+00 -0.60695603737E+02  0.60695603737E+02  0.00000000000E+00 0.  1.
         25    2    1    2    0    0  0.57903021030E+01 -0.18022592240E+02  0.91882483393E+02  0.15636315126E+03  0.12509477562E+03 0.  0.
         23    2    1    2    0    0 -0.57903021030E+01  0.18022592240E+02  0.57553717487E+02  0.11446425710E+03  0.97114851214E+02 0.  0.
          5    1    3    3  502    0  0.54945701022E+02 -0.29638184475E+02  0.84504363379E+02  0.10514709635E+03  0.41800000000E+01 0. -1.
         -5    1    3    3    0  502 -0.49155398919E+02  0.11615592235E+02  0.73781200133E+01  0.51216054912E+02  0.41800000000E+01 0. -1.
        -11    1    4    4    0    0 -0.10116484558E+02 -0.22377747034E+02 -0.16784926816E+02  0.29746270192E+02  0.00000000000E+00 0.  1.
         11    1    4    4    0    0  0.43261824547E+01  0.40400339274E+02  0.74338644303E+02  0.84717986904E+02  0.00000000000E+00 0. -1.
</event>
<event>
 8    1  0.6627806E-009  0.2702943E+03  0.7561462E-02  0.1101111E+00
          1   -1    0    0  501    0  0.00000000000E+00  0.00000000000E+00  0.11290070211E+04  0.11290070211E+04  0.00000000000E+00 0. -1.
         -1   -1    0    0    0  501 -0.00000000000E+00 -0.00000000000E+00 -0.77251901409E+02  0.77251901409E+02  0.00000000000E+00 0.  1.
         25    2    1    2    0    0  0.92013841740E+02  0.23783513447E+03  0.33082495133E+03  0.43604665391E+03  0.12513767500E+03 0.  0.
         23    2    1    2    0    0 -0.92013841740E+02 -0.23783513447E+03  0.72093016840E+03  0.77021226863E+03  0.91948533362E+02 0.  0.
          5    1    3    3  502    0  0.10311573690E+03  0.12382160514E+03  0.14029988109E+03  0.21369645324E+03  0.41800000000E+01 0.  1.
         -5    1    3    3    0  502 -0.11101895159E+02  0.11401352934E+03  0.19052507024E+03  0.22235020067E+03  0.41800000000E+01 0.  1.
        -11    1    4    4    0    0 -0.46120087833E+01 -0.10893097340E+03  0.38119556929E+03  0.39648113402E+03  0.00000000000E+00 0.  1.
         11    1    4    4    0    0 -0.87401832956E+02 -0.12890416107E+03  0.33973459911E+03  0.37373113461E+03  0.00000000000E+00 0. -1.
</event>
<event>
 8    1  0.6627806E-009  0.1117152E+03  0.7561462E-02  0.1257426E+00
         -2   -1    0    0    0  501 -0.00000000000E+00  0.00000000000E+00  0.14518682796E+02  0.14518682796E+02  0.00000000000E+00 0.  1.
          2   -1    0    0  501    0  0.00000000000E+00 -0.00000000000E+00 -0.86738055682E+03  0.86738055682E+03  0.00000000000E+00 0. -1.
         25    2    1    2    0    0 -0.18419816528E+02  0.20644046455E+02 -0.46750148637E+03  0.48473682668E+03  0.12508671028E+03 0.  0.
         23    2    1    2    0    0  0.18419816528E+02 -0.20644046455E+02 -0.38536038766E+03  0.39716241294E+03  0.92031992152E+02 0.  0.
          5    1    3    3  502    0 -0.23703320448E+01  0.72901977313E+02 -0.25280687116E+03  0.26315224353E+03  0.41800000000E+01 0.  1.
         -5    1    3    3    0  502 -0.16049484483E+02 -0.52257930858E+02 -0.21469461520E+03  0.22158458314E+03  0.41800000000E+01 0.  1.
        -11    1    4    4    0    0 -0.12937216355E+02 -0.50569743834E+02 -0.18906667915E+03  0.19613994933E+03  0.00000000000E+00 0.  1.
         11    1    4    4    0    0  0.31357032883E+02  0.29925697379E+02 -0.19629370851E+03  0.20102246360E+03  0.00000000000E+00 0. -1.
</event>
<event>
 8    1  0.6627806E-009  0.1037707E+03  0.7561462E-02  0.1272561E+00
          1   -1    0    0  501    0  0.00000000000E+00  0.00000000000E+00  0.21776236284E+03  0.21776236284E+03  0.00000000000E+00 0. -1.
         -1   -1    0    0    0  501 -0.00000000000E+00 -0.00000000000E+00 -0.10291987383E+03  0.10291987383E+03  0.00000000000E+00 0.  1.
         25    2    1    2    0    0 -0.63900818545E+02  0.18215185650E+02  0.14442147751E+03  0.20228640951E+03  0.12508845154E+03 0.  0.
         23    2    1    2    0    0  0.63900818545E+02 -0.18215185650E+02 -0.29578988494E+02  0.11839582715E+03  0.93421345143E+02 0.  0.
          5    1    3    3  502    0 -0.34056757669E+02  0.54424309606E+02  0.14108175902E+03  0.15505935427E+03  0.41800000000E+01 0. -1.
         -5    1    3    3    0  502 -0.29844060876E+02 -0.36209123956E+02  0.33397184898E+01  0.47227055241E+02  0.41800000000E+01 0. -1.
        -11    1    4    4    0    0  0.54500265009E+02 -0.43106787847E+02 -0.49365605303E+02  0.85237532997E+02  0.00000000000E+00 0.  1.
         11    1    4    4    0    0  0.94005535359E+01  0.24891602197E+02  0.19786616809E+02  0.33158294157E+02  0.00000000000E+00 0. -1.
</event>
<event>
 8    1  0.6627806E-009  0.1181721E+03  0.7561462E-02  0.1246143E+00
          2   -1    0    0  501    0  0.00000000000E+00  0.00000000000E+00  0.12799852162E+04  0.12799852162E+04  0.00000000000E+00 0. -1.
         -2   -1    0    0    0  501 -0.00000000000E+00 -0.00000000000E+00 -0.14086311412E+02  0.14086311412E+02  0.00000000000E+00 0.  1.
         25    2    1    2    0    0  0.65339273083E+02  0.45281321559E+02  0.63991557604E+03  0.65685542220E+03  0.12508989779E+03 0.  0.
         23    2    1    2    0    0 -0.65339273083E+02 -0.45281321559E+02  0.62598332875E+03  0.63721610542E+03  0.88710869868E+02 0.  0.
          5    1    3    3  502    0 -0.15788047409E+02  0.30855537748E+02  0.48756627793E+02  0.59966722476E+02  0.41800000000E+01 0. -1.
         -5    1    3    3    0  502  0.81127320492E+02  0.14425783811E+02  0.59115894825E+03  0.59688869973E+03  0.41800000000E+01 0. -1.
        -11    1    4    4    0    0 -0.52775206723E+02  0.16957601202E+02  0.27382577345E+03  0.27938027291E+03  0.00000000000E+00 0.  1.
         11    1    4    4    0    0 -0.12564066360E+02 -0.62238922761E+02  0.35215755530E+03  0.35783583251E+03  0.00000000000E+00 0. -1.
</event>
<event>
 8    1  0.6627806E-009  0.9088887E+02  0.7561462E-02  0.1300713E+00
          2   -1    0    0  501    0  0.00000000000E+00  0.00000000000E+00  0.90222478272E+02  0.90222478272E+02  0.00000000000E+00 0. -1.
         -2   -1    0    0    0  501 -0.00000000000E+00 -0.00000000000E+00 -0.16218500954E+03  0.16218500954E+03  0.00000000000E+00 0.  1.
         25    2    1    2    0    0  0.11181849091E+02 -0.11989289914E+02  0.11464553657E+02  0.12668023122E+03  0.12509063981E+03 0.  0.
         23    2    1    2    0    0 -0.11181849091E+02  0.11989289914E+02 -0.83427084925E+02  0.12572725659E+03  0.92620125943E+02 0.  0.
          5    1    3    3  502    0 -0.11505539876E+02 -0.65937737740E+02  0.94674014663E+00  0.67071092305E+02  0.41800000000E+01 0. -1.
         -5    1    3    3    0  502  0.22687388967E+02  0.53948447826E+02  0.10517813510E+02  0.59609138913E+02  0.41800000000E+01 0. -1.
        -11    1    4    4    0    0 -0.30722260573E+02 -0.37476999273E+01  0.71284564761E+01  0.31760312359E+02  0.00000000000E+00 0. -1.
         11    1    4    4    0    0  0.19540411482E+02  0.15736989841E+02 -0.90555541401E+02  0.93966944234E+02  0.00000000000E+00 0.  1.
</event>
<event>
 8    1  0.6627806E-009  0.9538887E+02  0.7561462E-02  0.1290303E+00
         -2   -1    0    0    0  501 -0.00000000000E+00  0.00000000000E+00  0.20212118054E+03  0.20212118054E+03  0.00000000000E+00 0.  1.
          2   -1    0    0  501    0  0.00000000000E+00 -0.00000000000E+00 -0.80330407274E+02  0.80330407274E+02  0.00000000000E+00 0. -1.
         25    2    1    2    0    0  0.16106541571E+02  0.52893802857E+02  0.10824866497E+03  0.17441916223E+03  0.12508835127E+03 0.  0.
         23    2    1    2    0    0 -0.16106541571E+02 -0.52893802857E+02  0.13542108298E+02  0.10803242559E+03  0.91817434177E+02 0.  0.
          5    1    3    3  502    0  0.39075158267E+02  0.47143556290E+02  0.12887323105E+03  0.14274160212E+03  0.41800000000E+01 0.  1.
         -5    1    3    3    0  502 -0.22968616697E+02  0.57502465663E+01 -0.20624566083E+02  0.31677560112E+02  0.41800000000E+01 0.  1.
        -11    1    4    4    0    0 -0.22586155354E+02  0.21203474881E+02 -0.49894299217E+01  0.31378594163E+02  0.00000000000E+00 0. -1.
         11    1    4    4    0    0  0.64796137830E+01 -0.74097277738E+02  0.18531538220E+02  0.76653831423E+02  0.00000000000E+00 0.  1.
</event>
<event>
 8    1  0.6627806E-009  0.1229360E+03  0.7561462E-02  0.1238331E+00
         -3   -1    0    0    0  501 -0.00000000000E+00  0.00000000000E+00  0.29556946545E+03  0.29556946545E+03  0.00000000000E+00 0.  1.
          3   -1    0    0  501    0  0.00000000000E+00 -0.00000000000E+00 -0.65468297606E+02  0.65468297606E+02  0.00000000000E+00 0. -1.
         25    2    1    2    0    0 -0.43577664916E+02  0.72123396546E+02  0.12805913592E+03  0.19785814400E+03  0.12509158903E+03 0.  0.
         23    2    1    2    0    0  0.43577664916E+02 -0.72123396546E+02  0.10204203192E+03  0.16317961905E+03  0.95468395745E+02 0.  0.
          5    1    3    3  502    0 -0.68234664497E+02  0.46039932271E+02  0.21269814400E+02  0.85120633264E+02  0.41800000000E+01 0.  1.
         -5    1    3    3    0  502  0.24656999581E+02  0.26083464274E+02  0.10678932152E+03  0.11273751074E+03  0.41800000000E+01 0.  1.
        -11    1    4    4    0    0 -0.17840088330E+02  0.13195668221E+02  0.16640979620E+02  0.27736557359E+02  0.00000000000E+00 0.  1.
         11    1    4    4    0    0  0.61417753246E+02 -0.85319064766E+02  0.85401052300E+02  0.13544306169E+03  0.00000000000E+00 0. -1.
</event>
<event>
 8    1  0.6627806E-009  0.2154759E+03  0.7561462E-02  0.1137302E+00
          2   -1    0    0  501    0  0.00000000000E+00  0.00000000000E+00  0.81099490206E+03  0.81099490206E+03  0.00000000000E+00 0. -1.
         -2   -1    0    0    0  501 -0.00000000000E+00 -0.00000000000E+00 -0.72725637496E+02  0.72725637496E+02  0.00000000000E+00 0.  1.
         25    2    1    2    0    0 -0.11883484462E+02 -0.20522694478E+03  0.25324024563E+03  0.34933923580E+03  0.12509182067E+03 0.  0.
         23    2    1    2    0    0  0.11883484462E+02  0.20522694478E+03  0.48502901894E+03  0.53438130376E+03  0.89726877417E+02 0.  0.
          5    1    3    3  502    0  0.49482279670E+01 -0.87558617367E+02  0.20118291839E+03  0.21950634498E+03  0.41800000000E+01 0. -1.
         -5    1    3    3    0  502 -0.16831712429E+02 -0.11766832741E+03  0.52057327235E+02  0.12983289081E+03  0.41800000000E+01 0. -1.
        -11    1    4    4    0    0  0.32448552781E+02  0.20050558652E+03  0.43493471575E+03  0.48002458872E+03  0.00000000000E+00 0. -1.
         11    1    4    4    0    0 -0.20565068319E+02  0.47213582510E+01  0.50094303186E+02  0.54356715044E+02  0.00000000000E+00 0.  1.
</event>
<event>
 8    1  0.6627806E-009  0.1191078E+03  0.7561462E-02  0.1244576E+00
          1   -1    0    0  501    0  0.00000000000E+00  0.00000000000E+00  0.26801179861E+03  0.26801179861E+03  0.00000000000E+00 0. -1.
         -1   -1    0    0    0  501 -0.00000000000E+00 -0.00000000000E+00 -0.66850103634E+02  0.66850103634E+02  0.00000000000E+00 0.  1.
         25    2    1    2    0    0 -0.45777738575E+02 -0.28246854161E+02  0.40739106521E+02  0.14212934585E+03  0.12509032750E+03 0.  0.
         23    2    1    2    0    0  0.45777738575E+02  0.28246854161E+02  0.16042258845E+03  0.19273255639E+03  0.92287297540E+02 0.  0.
          5    1    3    3  502    0 -0.30657010040E+02  0.46517480226E+02  0.34092025098E+02  0.65448199414E+02  0.41800000000E+01 0. -1.
         -5    1    3    3    0  502 -0.15120728535E+02 -0.74764334388E+02  0.66470814228E+01  0.76681146440E+02  0.41800000000E+01 0. -1.
        -11    1    4    4    0    0  0.63104477106E+02  0.48289851602E+02  0.10903868377E+03  0.13492041860E+03  0.00000000000E+00 0.  1.
         11    1    4    4    0    0 -0.17326738531E+02 -0.20042997441E+02  0.51383904686E+02  0.57812137786E+02  0.00000000000E+00 0. -1.
</event>
<event>
 8    1  0.6627806E-009  0.1049164E+03  0.7561462E-02  0.1270284E+00
         -1   -1    0    0    0  501 -0.00000000000E+00  0.00000000000E+00  0.31414712999E+02  0.31414712999E+02  0.00000000000E+00 0.  1.
          1   -1    0    0  501    0  0.00000000000E+00 -0.00000000000E+00 -0.42364076440E+03  0.42364076440E+03  0.00000000000E+00 0. -1.
         25    2    1    2    0    0 -0.10370617189E+02  0.21792756821E+02 -0.16114810899E+03  0.20542300115E+03  0.12508965753E+03 0.  0.
         23    2    1    2    0    0  0.10370617189E+02 -0.21792756821E+02 -0.23107794241E+03  0.24963247625E+03  0.91306537428E+02 0.  0.
          5    1    3    3  502    0  0.13735637436E+00 -0.46959595002E+02 -0.10783328808E+03  0.11768905152E+03  0.41800000000E+01 0. -1.
         -5    1    3    3    0  502 -0.10507973563E+02  0.68752351824E+02 -0.53314820910E+02  0.87733949634E+02  0.41800000000E+01 0. -1.
        -11    1    4    4    0    0  0.50279101853E+02 -0.15467003570E+02 -0.15170179919E+03  0.16056354555E+03  0.00000000000E+00 0.  1.
         11    1    4    4    0    0 -0.39908484665E+02 -0.63257532508E+01 -0.79376143225E+02  0.89068930698E+02  0.00000000000E+00 0. -1.
</event>
<event>
 8    1  0.6627806E-009  0.1304258E+03  0.7561462E-02  0.1226825E+00
          1   -1    0    0  501    0  0.00000000000E+00  0.00000000000E+00  0.16550658360E+03  0.16550658360E+03  0.00000000000E+00 0. -1.
         -1   -1    0    0    0  501 -0.00000000000E+00 -0.00000000000E+00 -0.19958711811E+03  0.19958711811E+03  0.00000000000E+00 0.  1.
         25    2    1    2    0    0  0.78718805783E+00  0.95198449693E+02  0.93153347872E+02  0.18272519959E+03  0.12509031879E+03 0.  0.
         23    2    1    2    0    0 -0.78718805783E+00 -0.95198449693E+02 -0.12723388238E+03  0.18236850213E+03  0.89478741909E+02 0.  0.
          5    1    3    3  502    0 -0.36428114763E+02  0.17597244018E+01 -0.10554414103E+02  0.38196495025E+02  0.41800000000E+01 0.  1.
         -5    1    3    3    0  502  0.37215302820E+02  0.93438725292E+02  0.10370776197E+03  0.14452870456E+03  0.41800000000E+01 0.  1.
        -11    1    4    4    0    0  0.14289910816E+02 -0.10469095803E+03 -0.81984787950E+02  0.13373819088E+03  0.00000000000E+00 0. -1.
         11    1    4    4    0    0 -0.15077098874E+02  0.94925083397E+01 -0.45249094435E+02  0.48630311249E+02  0.00000000000E+00 0.  1.
</event>
<event>
 8    1  0.6627806E-009  0.1235492E+03  0.7561462E-02  0.1237354E+00
          2   -1    0    0  501    0  0.00000000000E+00  0.00000000000E+00  0.28699366046E+03  0.28699366046E+03  0.00000000000E+00 0. -1.
         -2   -1    0    0    0  501 -0.00000000000E+00 -0.00000000000E+00 -0.72526909503E+02  0.72526909503E+02  0.00000000000E+00 0.  1.
         25    2    1    2    0    0 -0.49966076763E+02  0.45901877949E+02  0.19591007874E+03  0.24213940517E+03  0.12508853408E+03 0.  0.
         23    2    1    2    0    0  0.49966076763E+02 -0.45901877949E+02  0.18556672218E+02  0.11738116479E+03  0.93970189623E+02 0.  0.
          5    1    3    3  502    0  0.38641555969E+02  0.25518603790E+02  0.97928631409E+02  0.10840598801E+03  0.41800000000E+01 0.  1.
         -5    1    3    3    0  502 -0.88607632733E+02  0.20383274159E+02  0.97981447327E+02  0.13373341716E+03  0.41800000000E+01 0.  1.
        -11    1    4    4    0    0 -0.10863675859E+02 -0.47507679209E+02 -0.10649876388E+02  0.49884054607E+02  0.00000000000E+00 0.  1.
         11    1    4    4    0    0  0.60829752622E+02  0.16058012604E+01  0.29206548606E+02  0.67497110184E+02  0.00000000000E+00 0. -1.
</event>
<event>
 8    1  0.6627806E-009  0.1277101E+03  0.7561462E-02  0.1230894E+00
          2   -1    0    0  501    0  0.00000000000E+00  0.00000000000E+00  0.37567985537E+03  0.37567985537E+03  0.00000000000E+00 0. -1.
         -2   -1    0    0    0  501 -0.00000000000E+00 -0.00000000000E+00 -0.68377407211E+02  0.68377407211E+02  0.00000000000E+00 0.  1.
         25    2    1    2    0    0 -0.68782423073E+02 -0.89423123805E+02  0.20947727808E+03  0.26880822414E+03  0.12509841940E+03 0.  0.
         23    2    1    2    0    0  0.68782423073E+02  0.89423123805E+02  0.97825170078E+02  0.17524903844E+03  0.91733008126E+02 0.  0.
          5    1    3    3  502    0 -0.16114970179E+02 -0.34156212897E+02 -0.75206357656E+01  0.38734629283E+02  0.41800000000E+01 0.  1.
         -5    1    3    3    0  502 -0.52667452895E+02 -0.55266910908E+02  0.21699791385E+03  0.23007359485E+03  0.41800000000E+01 0.  1.
        -11    1    4    4    0    0  0.67060536366E+02  0.17882565893E+02  0.69693294849E+02  0.98356784450E+02  0.00000000000E+00 0. -1.
         11    1    4    4    0    0  0.17218867075E+01  0.71540557912E+02  0.28131875229E+02  0.76892253993E+02  0.00000000000E+00 0.  1.
</event>
<event>
 8    1  0.6627806E-009  0.7043909E+02  0.7561462E-02  0.1358606E+00
         -2   -1    0    0    0  501 -0.00000000000E+00  0.00000000000E+00  0.19916364022E+02  0.19916364022E+02  0.00000000000E+00 0. -1.
          2   -1    0    0  501    0  0.00000000000E+00 -0.00000000000E+00 -0.71049341065E+03  0.71049341065E+03  0.00000000000E+00 0.  1.
         25    2    1    2    0    0 -0.98251332996E+01 -0.44752838737E+02 -0.45318278119E+03  0.47235722680E+03  0.12508943491E+03 0.  0.
         23    2    1    2    0    0  0.98251332996E+01  0.44752838737E+02 -0.23739426544E+03  0.25805254787E+03  0.90198283688E+02 0.  0.
          5    1    3    3  502    0  0.82283497355E+01 -0.10687104539E+02  0.30773024110E+01  0.14452063276E+02  0.41800000000E+01 0. -1.
         -5    1    3    3    0  502 -0.18053483035E+02 -0.34065734198E+02 -0.45626008360E+03  0.45790516352E+03  0.41800000000E+01 0. -1.
        -11    1    4    4    0    0  0.36211785838E+02  0.21758514123E+00 -0.16577569315E+03  0.16968477014E+03  0.00000000000E+00 0.  1.
         11    1    4    4    0    0 -0.26386652538E+02  0.44535253596E+02 -0.71618572285E+02  0.88367777731E+02  0.00000000000E+00 0. -1.
</event>
<event>
 8    1  0.6627806E-009  0.1185487E+03  0.7561462E-02  0.1245511E+00
          2   -1    0    0  501    0  0.00000000000E+00  0.00000000000E+00  0.19123895354E+03  0.19123895354E+03  0.00000000000E+00 0. -1.
         -2   -1    0    0    0  501 -0.00000000000E+00 -0.00000000000E+00 -0.98719563616E+02  0.98719563616E+02  0.00000000000E+00 0.  1.
         25    2    1    2    0    0  0.43644814599E+02  0.51404633601E+02  0.10569204059E+03  0.17710536454E+03  0.12509275162E+03 0.  0.
         23    2    1    2    0    0 -0.43644814599E+02 -0.51404633601E+02 -0.13172650673E+02  0.11285315261E+03  0.89526583379E+02 0.  0.
          5    1    3    3  502    0  0.79936921669E+02  0.50285698604E+02  0.10396410819E+03  0.14051537682E+03  0.41800000000E+01 0. -1.
         -5    1    3    3    0  502 -0.36292107070E+02  0.11189349974E+01  0.17279323988E+01  0.36589987722E+02  0.41800000000E+01 0. -1.
        -11    1    4    4    0    0 -0.65810052654E+02 -0.51953162864E+02 -0.25302105675E+02  0.87580195898E+02  0.00000000000E+00 0.  1.
         11    1    4    4    0    0  0.22165238055E+02  0.54852926222E+00  0.12129455002E+02  0.25272956714E+02  0.00000000000E+00 0. -1.
</event>
<event>
 8    1  0.6627806E-009  0.1237009E+03  0.7561462E-02  0.1237114E+00
         -1   -1    0    0    0  501 -0.00000000000E+00  0.00000000000E+00  0.35235355392E+02  0.35235355392E+02  0.00000000000E+00 0.  1.
          1   -1    0    0  501    0  0.00000000000E+00 -0.00000000000E+00 -0.53243990713E+03  0.53243990713E+03  0.00000000000E+00 0. -1.
         25    2    1    2    0    0  0.51605479870E+02 -0.62696701810E+02 -0.23637012414E+03  0.27948692878E+03  0.12509238907E+03 0.  0.
         23    2    1    2    0    0 -0.51605479870E+02  0.62696701810E+02 -0.26083442760E+03  0.28818833374E+03  0.91781888813E+02 0.  0.
          5    1    3    3  502    0  0.75077550539E+02  0.11616260047E+01 -0.85091357841E+02  0.11356055455E+03  0.41800000000E+01 0.  1.
         -5    1    3    3    0  502 -0.23472070670E+02 -0.63858327815E+02 -0.15127876629E+03  0.16592637423E+03  0.41800000000E+01 0.  1.
        -11    1    4    4    0    0 -0.41609723194E+02  0.10910589740E+01 -0.36587756946E+02  0.55418619906E+02  0.00000000000E+00 0.  1.
         11    1    4    4    0    0 -0.99957566760E+01  0.61605642836E+02 -0.22424667065E+03  0.23276971384E+03  0.00000000000E+00 0. -1.
</event>
<event>
 8    1  0.6627806E-009  0.7277985E+02  0.7561462E-02  0.1350887E+00
          1   -1    0    0  501    0  0.00000000000E+00  0.00000000000E+00  0.33906813904E+03  0.33906813904E+03  0.00000000000E+00 0. -1.
         -1   -1    0    0    0  501 -0.00000000000E+00 -0.00000000000E+00 -0.47774023785E+02  0.47774023785E+02  0.00000000000E+00 0.  1.
         25    2    1    2    0    0 -0.26343423940E+02 -0.18400513640E+02  0.72633085528E+02  0.14817327855E+03  0.12508877039E+03 0.  0.
         23    2    1    2    0    0  0.26343423940E+02  0.18400513640E+02  0.21866102973E+03  0.23866888428E+03  0.90097921789E+02 0.  0.
          5    1    3    3  502    0 -0.43622295063E+02 -0.23295232192E+02  0.10203696913E+03  0.11346624140E+03  0.41800000000E+01 0. -1.
         -5    1    3    3    0  502  0.17278871123E+02  0.48947185517E+01 -0.29403883600E+02  0.34707037150E+02  0.41800000000E+01 0. -1.
        -11    1    4    4    0    0  0.22423628046E+02  0.45173837666E+02  0.63129749134E+02  0.80801360942E+02  0.00000000000E+00 0.  1.
         11    1    4    4    0    0  0.39197958940E+01 -0.26773324026E+02  0.15553128060E+03  0.15786752333E+03  0.00000000000E+00 0. -1.
</event>
<event>
 8    1  0.6627806E-009  0.1126155E+03  0.7561462E-02  0.1255802E+00
         -4   -1    0    0    0  501 -0.00000000000E+00  0.00000000000E+00  0.23615375179E+02  0.23615375179E+02  0.00000000000E+00 0.  1.
          4   -1    0    0  501    0  0.00000000000E+00 -0.00000000000E+00 -0.73994495964E+03  0.73994495964E+03  0.00000000000E+00 0. -1.
         25    2    1    2    0    0 -0.21540780375E+02 -0.50465098432E+02 -0.53758830685E+03  0.55467116088E+03  0.12509267629E+03 0.  0.
         23    2    1    2    0    0  0.21540780375E+02  0.50465098432E+02 -0.17874127761E+03  0.20888917395E+03  0.93142424770E+02 0.  0.
          5    1    3    3  502    0 -0.73147122023E+02 -0.22538520539E+02 -0.33866720539E+03  0.34723397699E+03  0.41800000000E+01 0.  1.
         -5    1    3    3    0  502  0.51606341648E+02 -0.27926577893E+02 -0.19892110147E+03  0.20743718389E+03  0.41800000000E+01 0.  1.
        -11    1    4    4    0    0 -0.17445006826E+02  0.47556637319E+02 -0.15519268476E+03  0.16325051736E+03  0.00000000000E+00 0. -1.
         11    1    4    4    0    0  0.38985787201E+02  0.29084611136E+01 -0.23548592852E+02  0.45638656587E+02  0.00000000000E+00 0.  1.
</event>
<event>
 8    1  0.6627806E-009  0.9010566E+02  0.7561462E-02  0.1302596E+00
          1   -1    0    0  501    0  0.00000000000E+00  0.00000000000E+00  0.30197068462E+03  0.30197068462E+03  0.00000000000E+00 0. -1.
         -1   -1    0    0    0  501 -0.00000000000E+00 -0.00000000000E+00 -0.39160698644E+02  0.39160698644E+02  0.00000000000E+00 0.  1.
         25    2    1    2    0    0 -0.16737169034E+02  0.18713677861E+01  0.16050786401E+03  0.20419109877E+03  0.12509034961E+03 0.  0.
         23    2    1    2    0    0  0.16737169034E+02 -0.18713677861E+01  0.10230212197E+03  0.13694028450E+03  0.89461067026E+02 0.  0.
          5    1    3    3  502    0  0.28587291023E+02  0.30690165214E+02  0.86064624574E+01  0.43019333386E+02  0.41800000000E+01 0.  1.
         -5    1    3    3    0  502 -0.45324460057E+02 -0.28818797428E+02  0.15190140155E+03  0.16117176539E+03  0.41800000000E+01 0.  1.
        -11    1    4    4    0    0 -0.62679960014E+01  0.37807253118E+02  0.21274926096E+02  0.43832620759E+02  0.00000000000E+00 0.  1.
         11    1    4    4    0    0  0.23005165035E+02 -0.39678620904E+02  0.81027195876E+02  0.93107663738E+02  0.00000000000E+00 0. -1.
</event>
<event>
 8    1  0.6627806E-009  0.1130221E+03  0.7561462E-02  0.1255074E+00
          1   -1    0    0  501    0  0.00000000000E+00  0.00000000000E+00  0.49885823428E+02  0.49885823428E+02  0.00000000000E+00 0. -1.
         -1   -1    0    0    0  501 -0.00000000000E+00 -0.00000000000E+00 -0.30185134702E+03  0.30185134702E+03  0.00000000000E+00 0.  1.
         25    2    1    2    0    0  0.15593922305E+02  0.53826113896E+02 -0.13079334627E+03  0.18946398093E+03  0.12509708106E+03 0.  0.
         23    2    1    2    0    0 -0.15593922305E+02 -0.53826113896E+02 -0.12117217732E+03  0.16227318952E+03  0.92246791437E+02 0.  0.
          5    1    3    3  502    0 -0.16954468153E+01 -0.31079482929E+02  0.13003495593E+01  0.31432023606E+02  0.41800000000E+01 0.  1.
         -5    1    3    3    0  502  0.17289369121E+02  0.84905596824E+02 -0.13209369583E+03  0.15803195732E+03  0.41800000000E+01 0.  1.
        -11    1    4    4    0    0 -0.12249562325E+01  0.26379426246E+02 -0.31683725520E+02  0.41246007197E+02  0.00000000000E+00 0.  1.
         11    1    4    4    0    0 -0.14368966073E+02 -0.80205540142E+02 -0.89488451801E+02  0.12102718232E+03  0.00000000000E+00 0. -1.
</event>
<event>
 8    1  0.6627806E-009  0.6371483E+02  0.7561462E-02  0.1382872E+00
         -2   -1    0    0    0  501 -0.00000000000E+00  0.00000000000E+00  0.20813408198E+02  0.20813408198E+02  0.00000000000E+00 0.  1.
          2   -1    0    0  501    0  0.00000000000E+00 -0.00000000000E+00 -0.55628117019E+03  0.55628117019E+03  0.00000000000E+00 0. -1.
         25    2    1    2    0    0 -0.36291870705E+02 -0.27449132385E+01 -0.33963159279E+03  0.36375903675E+03  0.12508550503E+03 0.  0.
         23    2    1    2    0    0  0.36291870705E+02  0.27449132385E+01 -0.19583616921E+03  0.21333554164E+03  0.76391188824E+02 0.  0.
          5    1    3    3  502    0 -0.71879133924E+00  0.73398605161E+01  0.94527216174E+01  0.12697108307E+02  0.41800000000E+01 0.  1.
         -5    1    3    3    0  502 -0.35573079366E+02 -0.10084773755E+02 -0.34908431440E+03  0.35106192844E+03  0.41800000000E+01 0.  1.
        -11    1    4    4    0    0 -0.12985094339E+01  0.33284338976E+02 -0.10814377611E+03  0.11315745516E+03  0.00000000000E+00 0.  1.
         11    1    4    4    0    0  0.37590380139E+02 -0.30539425737E+02 -0.87692393102E+02  0.10017808648E+03  0.00000000000E+00 0. -1.
</event>
<event>
 8    1  0.6627806E-009  0.1185677E+03  0.7561462E-02  0.1245479E+00
         -2   -1    0    0    0  501 -0.00000000000E+00  0.00000000000E+00  0.29876955873E+02  0.29876955873E+02  0.00000000000E+00 0.  1.
          2   -1    0    0  501    0  0.00000000000E+00 -0.00000000000E+00 -0.71393140729E+03  0.71393140729E+03  0.00000000000E+00 0. -1.
         25    2    1    2    0    0  0.82178771969E+02  0.67645376888E+01 -0.50677185299E+03  0.52845495687E+03  0.12509125040E+03 0.  0.
         23    2    1    2    0    0 -0.82178771969E+02 -0.67645376888E+01 -0.17728259843E+03  0.21535340630E+03  0.90271038347E+02 0.  0.
          5    1    3    3  502    0  0.11124803533E+03 -0.67964280060E+01 -0.44453676838E+03  0.45831509646E+03  0.41800000000E+01 0.  1.
         -5    1    3    3    0  502 -0.29069263357E+02  0.13560965695E+02 -0.62235084608E+02  0.70139860414E+02  0.41800000000E+01 0.  1.
        -11    1    4    4    0    0 -0.16971834698E+02  0.16837048622E+02 -0.12816078506E+03  0.13037145472E+03  0.00000000000E+00 0. -1.
         11    1    4    4    0    0 -0.65206937271E+02 -0.23601586310E+02 -0.49121813375E+02  0.84981951577E+02  0.00000000000E+00 0.  1.
</event>
<event>
 8    1  0.6627806E-009  0.1815567E+03  0.7561462E-02  0.1166305E+00
         -1   -1    0    0    0  501 -0.00000000000E+00  0.00000000000E+00  0.12638791622E+03  0.12638791622E+03  0.00000000000E+00 0.  1.
          1   -1    0    0  501    0  0.00000000000E+00 -0.00000000000E+00 -0.44655090935E+03  0.44655090935E+03  0.00000000000E+00 0. -1.
         25    2    1    2    0    0  0.17062345204E+03  0.21216570354E+02 -0.31388025890E+03  0.37911810968E+03  0.12508884409E+03 0.  0.
         23    2    1    2    0    0 -0.17062345204E+03 -0.21216570354E+02 -0.62827342232E+01  0.19382071589E+03  0.89244002124E+02 0.  0.
          5    1    3    3  502    0  0.68064231970E+02  0.18939232462E+02 -0.24614487457E+03  0.25611756261E+03  0.41800000000E+01 0.  1.
         -5    1    3    3    0  502  0.10255922007E+03  0.22773378918E+01 -0.67735384333E+02  0.12300054707E+03  0.41800000000E+01 0.  1.
        -11    1    4    4    0    0 -0.75170085334E+02  0.30482410186E+02  0.16804994976E+02  0.82837955770E+02  0.00000000000E+00 0.  1.
         11    1    4    4    0    0 -0.95453366703E+02 -0.51698980540E+02 -0.23087729199E+02  0.11098276012E+03  0.00000000000E+00 0. -1.
</event>
<event>
 8    1  0.6627806E-009  0.8255577E+02  0.7561462E-02  0.1321951E+00
         -1   -1    0    0    0  501 -0.00000000000E+00  0.00000000000E+00  0.40585619646E+03  0.40585619646E+03  0.00000000000E+00 0.  1.
          1   -1    0    0  501    0  0.00000000000E+00 -0.00000000000E+00 -0.37324365395E+02  0.37324365395E+02  0.00000000000E+00 0. -1.
         25    2    1    2    0    0 -0.26997591409E+02 -0.45585978976E+02  0.15877682863E+03  0.20896256931E+03  0.12509325579E+03 0.  0.
         23    2    1    2    0    0  0.26997591409E+02  0.45585978976E+02  0.20975500244E+03  0.23421799254E+03  0.89743832994E+02 0.  0.
          5    1    3    3  502    0 -0.32495656011E+02 -0.32051665790E+02  0.17837191827E+03  0.18416647515E+03  0.41800000000E+01 0. -1.
         -5    1    3    3    0  502  0.54980646015E+01 -0.13534313185E+02 -0.19595089646E+02  0.24796094168E+02  0.41800000000E+01 0. -1.
        -11    1    4    4    0    0 -0.33190970156E+02  0.13059814459E+02  0.66354495285E+02  0.75333381035E+02  0.00000000000E+00 0.  1.
         11    1    4    4    0    0  0.60188561565E+02  0.32526164516E+02  0.14340050715E+03  0.15888461151E+03  0.00000000000E+00 0. -1.
</event>
<event>
 8    1  0.6627806E-009  0.1182362E+03  0.7561462E-02  0.1246035E+00
          1   -1    0    0  501    0  0.00000000000E+00  0.00000000000E+00  0.66860079071E+03  0.66860079071E+03  0.00000000000E+00 0. -1.
         -1   -1    0    0    0  501 -0.00000000000E+00 -0.00000000000E+00 -0.39562514450E+02  0.39562514450E+02  0.00000000000E+00 0.  1.
         25    2    1    2    0    0 -0.66564118716E+02  0.67912498957E+02  0.50148668945E+03  0.52552713313E+03  0.12508788329E+03 0.  0.
         23    2    1    2    0    0  0.66564118716E+02 -0.67912498957E+02  0.12755158681E+03  0.18263617202E+03  0.89686535332E+02 0.  0.
          5    1    3    3  502    0 -0.49439407876E+02 -0.16725964740E+02  0.82490439084E+02  0.97704441495E+02  0.41800000000E+01 0.  1.
         -5    1    3    3    0  502 -0.17124710840E+02  0.84638463697E+02  0.41899625037E+03  0.42782269164E+03  0.41800000000E+01 0.  1.
        -11    1    4    4    0    0  0.12366183449E+02 -0.23374713991E+01 -0.13158085128E+02  0.18207731047E+02  0.00000000000E+00 0.  1.
         11    1    4    4    0    0  0.54197935267E+02 -0.65575027558E+02  0.14070967193E+03  0.16442844098E+03  0.00000000000E+00 0. -1.
</event>
<event>
 8    1  0.6627806E-009  0.1120606E+03  0.7561462E-02  0.1256801E+00
          1   -1    0    0  501    0  0.00000000000E+00  0.00000000000E+00  0.92506515314E+03  0.92506515314E+03  0.00000000000E+00 0. -1.
         -1   -1    0    0    0  501 -0.00000000000E+00 -0.00000000000E+00 -0.14504187250E+02  0.14504187250E+02  0.00000000000E+00 0.  1.
         25    2    1    2    0    0  0.34716767354E+02  0.13338205680E+02  0.59888488890E+03  0.61293876099E+03  0.12509057878E+03 0.  0.
         23    2    1    2    0    0 -0.34716767354E+02 -0.13338205680E+02  0.31167607698E+03  0.32663057940E+03  0.90345983678E+02 0.  0.
          5    1    3    3  502    0  0.74818076653E+02  0.35762737402E+02  0.34128285778E+03  0.35123806656E+03  0.41800000000E+01 0.  1.
         -5    1    3    3    0  502 -0.40101309298E+02 -0.22424531722E+02  0.25760203112E+03  0.26170069443E+03  0.41800000000E+01 0.  1.
        -11    1    4    4    0    0 -0.62082356759E+02  0.45701501666E+01  0.16498936011E+03  0.17634226448E+03  0.00000000000E+00 0.  1.
         11    1    4    4    0    0  0.27365589404E+02 -0.17908355847E+02  0.14668671687E+03  0.15028831492E+03  0.00000000000E+00 0. -1.
</event>
<event>
 8    1  0.6627806E-009  0.1153945E+03  0.7561462E-02  0.1250894E+00
         -1   -1    0    0    0  501 -0.00000000000E+00  0.00000000000E+00  0.29868943842E+03  0.29868943842E+03  0.00000000000E+00 0.  1.
          1   -1    0    0  501    0  0.00000000000E+00 -0.00000000000E+00 -0.78624571770E+02  0.78624571770E+02  0.00000000000E+00 0. -1.
         25    2    1    2    0    0  0.86543808409E+02  0.35436552868E+02  0.48016764077E+02  0.16338800235E+03  0.12507777431E+03 0.  0.
         23    2    1    2    0    0 -0.86543808409E+02 -0.35436552868E+02  0.17204810257E+03  0.21392600784E+03  0.86129014724E+02 0.  0.
          5    1    3    3  502    0  0.62935725404E+02  0.46019264885E+02  0.86692574604E+02  0.11666941829E+03  0.41800000000E+01 0. -1.
         -5    1    3    3    0  502  0.23608083005E+02 -0.10582712018E+02 -0.38675810527E+02  0.46718584062E+02  0.41800000000E+01 0. -1.
        -11    1    4    4    0    0 -0.44074294182E+02  0.26483615137E+02  0.59619107259E+02  0.78729684546E+02  0.00000000000E+00 0.  1.
         11    1    4    4    0    0 -0.42469514228E+02 -0.61920168004E+02  0.11242899531E+03  0.13519632329E+03  0.00000000000E+00 0. -1.
</event>
<event>
 8    1  0.6627806E-009  0.1108138E+03  0.7561462E-02  0.1259070E+00
          1   -1    0    0  501    0  0.00000000000E+00  0.00000000000E+00  0.20028142997E+03  0.20028142997E+03  0.00000000000E+00 0. -1.
         -1   -1    0    0    0  501 -0.00000000000E+00 -0.00000000000E+00 -0.11408595733E+03  0.11408595733E+03  0.00000000000E+00 0.  1.
         25    2    1    2    0    0  0.19684458127E+02 -0.21512775418E+02  0.15128764786E+03  0.19845800793E+03  0.12508937253E+03 0.  0.
         23    2    1    2    0    0 -0.19684458127E+02  0.21512775418E+02 -0.65092175222E+02  0.11590937936E+03  0.91365833604E+02 0.  0.
          5    1    3    3  502    0 -0.30920198297E+02  0.38674503400E+02  0.57574711793E+02  0.76053242627E+02  0.41800000000E+01 0. -1.
         -5    1    3    3    0  502  0.50604656424E+02 -0.60187278818E+02  0.93712936069E+02  0.12240476531E+03  0.41800000000E+01 0. -1.
        -11    1    4    4    0    0  0.24292496141E+02 -0.20935856705E+02 -0.36015549584E+02  0.48224011411E+02  0.00000000000E+00 0.  1.
         11    1    4    4    0    0 -0.43976954268E+02  0.42448632123E+02 -0.29076625638E+02  0.67685367948E+02  0.00000000000E+00 0. -1.
</event>
<event>
 7    1  0.6627806E-009  0.7827879E+02  0.7561462E-02  0.1334008E+00
          1   -1    0    0  501    0  0.00000000000E+00  0.00000000000E+00  0.16717681806E+03  0.16717681806E+03  0.00000000000E+00 0. -1.
         -1   -1    0    0    0  501 -0.00000000000E+00 -0.00000000000E+00 -0.71219997793E+02  0.71219997793E+02  0.00000000000E+00 0.  1.
         23    2    1    2    0    0 -0.40219659109E+02  0.28523434334E+02  0.22550313277E+02  0.85129828668E+02  0.65630509788E+02 0.  0.
          5    1    1    2  502    0 -0.21707208402E+01  0.26221094543E+02 -0.22523772105E+02  0.34886251415E+02  0.41800000000E+01 0.  1.
         -5    1    1    2    0  502  0.42390379950E+02 -0.54744528876E+02  0.95930279093E+02  0.11838073577E+03  0.41800000000E+01 0.  1.
        -11    1    3    3    0    0 -0.99841777639E+01  0.28625858401E+02 -0.17455756616E+02  0.34983239041E+02  0.00000000000E+00 0.  1.
         11    1    3    3    0    0 -0.30235481346E+02 -0.10242406713E+00  0.40006069893E+02  0.50146589626E+02  0.00000000000E+00 0. -1.
</event>
<event>
 8    1  0.6627806E-009  0.9211721E+02  0.7561462E-02  0.1297804E+00
         -1   -1    0    0    0  501 -0.00000000000E+00  0.00000000000E+00  0.28889538913E+03  0.28889538913E+03  0.00000000000E+00 0.  1.
          1   -1    0    0  501    0  0.00000000000E+00 -0.00000000000E+00 -0.46656228695E+02  0.46656228695E+02  0.00000000000E+00 0. -1.
         25    2    1    2    0    0 -0.29960562197E+02  0.21422363470E+02  0.16793311966E+03  0.21261580034E+03  0.12508953966E+03 0.  0.
         23    2    1    2    0    0  0.29960562197E+02 -0.21422363470E+02  0.74306040778E+02  0.12293581749E+03  0.90748413658E+02 0.  0.
          5    1    3    3  502    0  0.30044821680E+02  0.12196146736E+02 -0.13549433049E+01  0.32722248950E+02  0.41800000000E+01 0.  1.
         -5    1    3    3    0  502 -0.60005383877E+02  0.92262167339E+01  0.16928806297E+03  0.17989355139E+03  0.41800000000E+01 0.  1.
        -11    1    4    4    0    0  0.32127080166E+02 -0.51408512972E+02  0.69940437278E+02  0.92556195107E+02  0.00000000000E+00 0.  1.
         11    1    4    4    0    0 -0.21665179694E+01  0.29986149502E+02  0.43656035001E+01  0.30379622381E+02  0.00000000000E+00 0. -1.
</event>
<event>
 8    1  0.6627806E-009  0.7681901E+02  0.7561462E-02  0.1338329E+00
          2   -1    0    0  501    0  0.00000000000E+00  0.00000000000E+00  0.20376392925E+03  0.20376392925E+03  0.00000000000E+00 0. -1.
         -2   -1    0    0    0  501 -0.00000000000E+00 -0.00000000000E+00 -0.72150893631E+02  0.72150893631E+02  0.00000000000E+00 0.  1.
         25    2    1    2    0    0 -0.49058240626E+02  0.15345640802E+02  0.57427819484E+02  0.14691975531E+03  0.12508101528E+03 0.  0.
         23    2    1    2    0    0  0.49058240626E+02 -0.15345640802E+02  0.74185216140E+02  0.12899506758E+03  0.92163341417E+02 0.  0.
          5    1    3    3  502    0 -0.26095900462E+02  0.68564859940E+01 -0.38853075965E+02  0.47487275485E+02  0.41800000000E+01 0.  1.
         -5    1    3    3    0  502 -0.22962340165E+02  0.84891548076E+01  0.96280895448E+02  0.99432479822E+02  0.41800000000E+01 0.  1.
        -11    1    4    4    0    0  0.62399463490E+02 -0.39538465058E+02  0.68594192470E+02  0.10080747246E+03  0.00000000000E+00 0. -1.
         11    1    4    4    0    0 -0.13341222863E+02  0.24192824256E+02  0.55910236698E+01  0.28187595120E+02  0.00000000000E+00 0.  1.
</event>
<event>
 8    1  0.6627806E-009  0.9456394E+02  0.7561462E-02  0.1292161E+00
          2   -1    0    0  501    0  0.00000000000E+00  0.00000000000E+00  0.55097260562E+02  0.55097260562E+02  0.00000000000E+00 0. -1.
         -2   -1    0    0    0  501 -0.00000000000E+00 -0.00000000000E+00 -0.31987993184E+03  0.31987993184E+03  0.00000000000E+00 0.  1.
         25    2    1    2    0    0 -0.64377378246E+02  0.37977687548E+01 -0.89112996290E+02  0.16657553880E+03  0.12508962443E+03 0.  0.
         23    2    1    2    0    0  0.64377378246E+02 -0.37977687548E+01 -0.17566967499E+03  0.20840165361E+03  0.91719924980E+02 0.  0.
          5    1    3    3  502    0 -0.59658885502E+02 -0.44532623050E+02 -0.91187007662E+02  0.11779168010E+03  0.41800000000E+01 0.  1.
         -5    1    3    3    0  502 -0.47184927446E+01  0.48330391805E+02  0.20740113724E+01  0.48783858693E+02  0.41800000000E+01 0.  1.
        -11    1    4    4    0    0  0.28616863853E+02 -0.82626359728E+01 -0.16918221409E+03  0.17178421817E+03  0.00000000000E+00 0.  1.
         11    1    4    4    0    0  0.35760514394E+02  0.44648672180E+01 -0.64874609039E+01  0.36617435437E+02  0.00000000000E+00 0. -1.
</event>
<event>
 8    1  0.6627806E-009  0.1623489E+03  0.7561462E-02  0.1186070E+00
         -2   -1    0    0    0  501 -0.00000000000E+00  0.00000000000E+00  0.26822035334E+02  0.26822035334E+02  0.00000000000E+00 0.  1.
          2   -1    0    0  501    0  0.00000000000E+00 -0.00000000000E+00 -0.12379562494E+04  0.12379562494E+04  0.00000000000E+00 0. -1.
         25    2    1    2    0    0 -0.28498421940E+02 -0.13565643731E+03 -0.80019002491E+03  0.82168523517E+03  0.12509084978E+03 0.  0.
         23    2    1    2    0    0  0.28498421940E+02  0.13565643731E+03 -0.41094418911E+03  0.44309304952E+03  0.90782679671E+02 0.  0.
          5    1    3    3  502    0 -0.49231339880E+02 -0.13353152909E+03 -0.47697673360E+03  0.49777371454E+03  0.41800000000E+01 0.  1.
         -5    1    3    3    0  502  0.20732917940E+02 -0.21249082171E+01 -0.32321329131E+03  0.32391152063E+03  0.41800000000E+01 0.  1.
        -11    1    4    4    0    0  0.57369634851E+02  0.81147513352E+02 -0.20022453604E+03  0.22353088995E+03  0.00000000000E+00 0.  1.
         11    1    4    4    0    0 -0.28871212911E+02  0.54508923958E+02 -0.21071965307E+03  0.21956215957E+03  0.00000000000E+00 0. -1.
</event>
<event>
 8    1  0.6627806E-009  0.9588883E+02  0.7561462E-02  0.1289187E+00
         -3   -1    0    0    0  501 -0.00000000000E+00  0.00000000000E+00  0.13939496986E+03  0.13939496986E+03  0.00000000000E+00 0.  1.
          3   -1    0    0  501    0  0.00000000000E+00 -0.00000000000E+00 -0.98809188812E+02  0.98809188812E+02  0.00000000000E+00 0. -1.
         25    2    1    2    0    0  0.46981261338E+02 -0.15152581608E+02  0.29993793177E+02  0.13778170938E+03  0.12508929677E+03 0.  0.
         23    2    1    2    0    0 -0.46981261338E+02  0.15152581608E+02  0.10591987874E+02  0.10042244929E+03  0.86808055319E+02 0.  0.
          5    1    3    3  502    0 -0.24345760593E+02  0.14795271035E+02 -0.28648382225E+02  0.40617955487E+02  0.41800000000E+01 0. -1.
         -5    1    3    3    0  502  0.71327021931E+02 -0.29947852643E+02  0.58642175402E+02  0.97163753897E+02  0.41800000000E+01 0. -1.
        -11    1    4    4    0    0 -0.34591727717E+02 -0.25524782776E+02 -0.20615698414E+02  0.47677134807E+02  0.00000000000E+00 0. -1.
         11    1    4    4    0    0 -0.12389533621E+02  0.40677364385E+02  0.31207686288E+02  0.52745314484E+02  0.00000000000E+00 0.  1.
</event>
<event>
 8    1  0.6627806E-009  0.1453250E+03  0.7561462E-02  0.1206338E+00
         -2   -1    0    0    0  501 -0.00000000000E+00  0.00000000000E+00  0.41110802290E+02  0.41110802290E+02  0.00000000000E+00 0.  1.
          2   -1    0    0  501    0  0.00000000000E+00 -0.00000000000E+00 -0.61117705613E+03  0.61117705613E+03  0.00000000000E+00 0. -1.
         25    2    1    2    0    0  0.61101475350E+02  0.89602439095E+02 -0.22606206767E+03  0.28020265227E+03  0.12508988975E+03 0.  0.
         23    2    1    2    0    0 -0.61101475350E+02 -0.89602439095E+02 -0.34400418618E+03  0.37208520615E+03  0.91359362689E+02 0.  0.
          5    1    3    3  502    0 -0.27940528546E+02  0.49269983912E+02 -0.38373728190E+02  0.68543561808E+02  0.41800000000E+01 0. -1.
         -5    1    3    3    0  502  0.89042003896E+02  0.40332455183E+02 -0.18768833948E+03  0.21165909046E+03  0.41800000000E+01 0. -1.
        -11    1    4    4    0    0 -0.79803324421E+02 -0.55775768761E+02 -0.19241267631E+03  0.21564356001E+03  0.00000000000E+00 0. -1.
         11    1    4    4    0    0  0.18701849071E+02 -0.33826670335E+02 -0.15159150987E+03  0.15644164615E+03  0.00000000000E+00 0.  1.
</event>
<event>
 8    1  0.6627806E-009  0.6383448E+02  0.7561462E-02  0.1382410E+00
         -2   -1    0    0    0  501 -0.00000000000E+00  0.00000000000E+00  0.21211095996E+02  0.21211095996E+02  0.00000000000E+00 0.  1.
          2   -1    0    0  501    0  0.00000000000E+00 -0.00000000000E+00 -0.48433586718E+03  0.48433586718E+03  0.00000000000E+00 0. -1.
         25    2    1    2    0    0 -0.92931733703E+01 -0.20309209528E+02 -0.33833657112E+03  0.36141927013E+03  0.12511365394E+03 0.  0.
         23    2    1    2    0    0  0.92931733703E+01  0.20309209528E+02 -0.12478820007E+03  0.14412769305E+03  0.68570182764E+02 0.  0.
          5    1    3    3  502    0 -0.19634266539E+02 -0.44918371390E+02 -0.44487973214E+02  0.66331113903E+02  0.41800000000E+01 0.  1.
         -5    1    3    3    0  502  0.10341093169E+02  0.24609161862E+02 -0.29384859790E+03  0.29508815623E+03  0.41800000000E+01 0.  1.
        -11    1    4    4    0    0  0.17487459693E+02  0.32415260024E+02 -0.12414671661E+03  0.12949504845E+03  0.00000000000E+00 0. -1.
         11    1    4    4    0    0 -0.81942863226E+01 -0.12106050496E+02 -0.64148346318E+00  0.14632644600E+02  0.00000000000E+00 0.  1.
</event>
<event>
 8    1  0.6627806E-009  0.8847805E+02  0.7561462E-02  0.1306580E+00
          1   -1    0    0  501    0  0.00000000000E+00  0.00000000000E+00  0.38002994006E+03  0.38002994006E+03  0.00000000000E+00 0. -1.
         -1   -1    0    0    0  501 -0.00000000000E+00 -0.00000000000E+00 -0.46319493891E+02  0.46319493891E+02  0.00000000000E+00 0.  1.
         25    2    1    2    0    0  0.72118387499E+02  0.21402157069E+02  0.18020232168E+03  0.23190592831E+03  0.12509343990E+03 0.  0.
         23    2    1    2    0    0 -0.72118387499E+02 -0.21402157069E+02  0.15350812449E+03  0.19444350564E+03  0.92652136821E+02 0.  0.
          5    1    3    3  502    0  0.34877730916E+02 -0.18687578852E+00  0.18507929034E+03  0.18838340465E+03  0.41800000000E+01 0. -1.
         -5    1    3    3    0  502  0.37240656583E+02  0.21589032857E+02 -0.48769686599E+01  0.43522523660E+02  0.41800000000E+01 0. -1.
        -11    1    4    4    0    0 -0.50879002323E+02 -0.44217782944E+02  0.43789624384E+02  0.80382936059E+02  0.00000000000E+00 0.  1.
         11    1    4    4    0    0 -0.21239385176E+02  0.22815625875E+02  0.10971850011E+03  0.11406056958E+03  0.00000000000E+00 0. -1.
</event>
<event>
 8    1  0.6627806E-009  0.8264819E+02  0.7561462E-02  0.1321700E+00
          2   -1    0    0  501    0  0.00000000000E+00  0.00000000000E+00  0.33204002719E+03  0.33204002719E+03  0.00000000000E+00 0. -1.
         -2   -1    0    0    0  501 -0.00000000000E+00 -0.00000000000E+00 -0.61671546289E+02  0.61671546289E+02  0.00000000000E+00 0.  1.
         25    2    1    2    0    0 -0.99215734620E+01  0.35469064428E+02  0.25999458654E+03  0.29086658192E+03  0.12509872622E+03 0.  0.
         23    2    1    2    0    0  0.99215734620E+01 -0.35469064428E+02  0.10373894363E+02  0.10284499155E+03  0.95461942426E+02 0.  0.
          5    1    3    3  502    0 -0.62813625617E+02  0.37797624617E+01  0.89261907936E+02  0.10929317808E+03  0.41800000000E+01 0.  1.
         -5    1    3    3    0  502  0.52892052154E+02  0.31689301966E+02  0.17073267860E+03  0.18157340384E+03  0.41800000000E+01 0.  1.
        -11    1    4    4    0    0  0.14648407764E+02 -0.25824489046E+02  0.51987289759E+02  0.59867840958E+02  0.00000000000E+00 0. -1.
         11    1    4    4    0    0 -0.47268343016E+01 -0.96445753820E+01 -0.41613395396E+02  0.42977150594E+02  0.00000000000E+00 0.  1.
</event>
<event>
 8    1  0.6627806E-009  0.1463571E+03  0.7561462E-02  0.1205022E+00
         -2   -1    0    0    0  501 -0.00000000000E+00  0.00000000000E+00  0.44564836606E+02  0.44564836606E+02  0.00000000000E+00 0.  1.
          2   -1    0    0  501    0  0.00000000000E+00 -0.00000000000E+00 -0.74877316872E+03  0.74877316872E+03  0.00000000000E+00 0. -1.
         25    2    1    2    0    0  0.31877113209E+02  0.10608811180E+03 -0.58413305510E+03  0.60756058213E+03  0.12509035568E+03 0.  0.
         23    2    1    2    0    0 -0.31877113209E+02 -0.10608811180E+03 -0.12007527702E+03  0.18577742320E+03  0.88455305142E+02 0.  0.
          5    1    3    3  502    0  0.30909769803E+02 -0.11889949970E+02 -0.26858544574E+03  0.27065180370E+03  0.41800000000E+01 0. -1.
         -5    1    3    3    0  502  0.96734340578E+00  0.11797806177E+03 -0.31554760936E+03  0.33690877843E+03  0.41800000000E+01 0. -1.
        -11    1    4    4    0    0  0.30152465194E+02 -0.45379208373E+02 -0.53834602591E+02  0.76593786602E+02  0.00000000000E+00 0. -1.
         11    1    4    4    0    0 -0.62029578403E+02 -0.60708903431E+02 -0.66240674427E+02  0.10918363660E+03  0.00000000000E+00 0.  1.
</event>
<event>
 8    1  0.6627806E-009  0.1300949E+03  0.7561462E-02  0.1227315E+00
         -4   -1    0    0    0  501 -0.00000000000E+00  0.00000000000E+00  0.32524639708E+03  0.32524639708E+03  0.00000000000E+00 0.  1.
          4   -1    0    0  501    0  0.00000000000E+00 -0.00000000000E+00 -0.87151669356E+02  0.87151669356E+02  0.00000000000E+00 0. -1.
         25    2    1    2    0    0  0.76151964180E+02 -0.51329375159E+02  0.23436485173E+03  0.28108660953E+03  0.12509585094E+03 0.  0.
         23    2    1    2    0    0 -0.76151964180E+02  0.51329375159E+02  0.37298759886E+01  0.13131145691E+03  0.93781449862E+02 0.  0.
          5    1    3    3  502    0 -0.29591842282E+02 -0.24175348350E+02  0.27902902557E+02  0.47499147030E+02  0.41800000000E+01 0.  1.
         -5    1    3    3    0  502  0.10574380646E+03 -0.27154026809E+02  0.20646194918E+03  0.23358746250E+03  0.41800000000E+01 0.  1.
        -11    1    4    4    0    0  0.71716711755E+01 -0.75921331604E+01 -0.23477036377E+02  0.25695225051E+02  0.00000000000E+00 0. -1.
         11    1    4    4    0    0 -0.83323635355E+02  0.58921508319E+02  0.27206912366E+02  0.10561623186E+03  0.00000000000E+00 0.  1.
</event>
<event>
 8    1  0.6627806E-009  0.1422346E+03  0.7561462E-02  0.1210353E+00
          2   -1    0    0  501    0  0.00000000000E+00  0.00000000000E+00  0.17283831831E+03  0.17283831831E+03  0.00000000000E+00 0. -1.
         -2   -1    0    0    0  501 -0.00000000000E+00 -0.00000000000E+00 -0.16503438908E+03  0.16503438908E+03  0.00000000000E+00 0.  1.
         25    2    1    2    0    0  0.97075538305E+02 -0.80296514109E+02  0.29467195651E+02  0.17996390987E+03  0.12508997930E+03 0.  0.
         23    2    1    2    0    0 -0.97075538305E+02  0.80296514109E+02 -0.21663266423E+02  0.15790879753E+03  0.92707609766E+02 0.  0.
          5    1    3    3  502    0  0.62790665525E+02 -0.24791484708E+02  0.74467607871E+02  0.10059911736E+03  0.41800000000E+01 0.  1.
         -5    1    3    3    0  502  0.34284872780E+02 -0.55505029401E+02 -0.45000412220E+02  0.79364792511E+02  0.41800000000E+01 0.  1.
        -11    1    4    4    0    0 -0.10556599641E+03  0.44317555667E+02 -0.33157575499E+02  0.11919584788E+03  0.00000000000E+00 0.  1.
         11    1    4    4    0    0  0.84904581036E+01  0.35978958441E+02  0.11494309076E+02  0.38712949648E+02  0.00000000000E+00 0. -1.
</event>
<event>
 8    1  0.6627806E-009  0.8635300E+02  0.7561462E-02  0.1311932E+00
         -1   -1    0    0    0  501 -0.00000000000E+00  0.00000000000E+00  0.29969911297E+02  0.29969911297E+02  0.00000000000E+00 0.  1.
          1   -1    0    0  501    0  0.00000000000E+00 -0.00000000000E+00 -0.39747121906E+03  0.39747121906E+03  0.00000000000E+00 0. -1.
         25    2    1    2    0    0 -0.18738191165E+02 -0.42090951857E+00 -0.17668434200E+03  0.21729325745E+03  0.12509079123E+03 0.  0.
         23    2    1    2    0    0  0.18738191165E+02  0.42090951857E+00 -0.19081696576E+03  0.21014787291E+03  0.86021608292E+02 0.  0.
          5    1    3    3  502    0  0.11335123648E+02  0.36252752155E+02 -0.42990565874E+01  0.38453886078E+02  0.41800000000E+01 0. -1.
         -5    1    3    3    0  502 -0.30073314812E+02 -0.36673661674E+02 -0.17238528541E+03  0.17883937137E+03  0.41800000000E+01 0. -1.
        -11    1    4    4    0    0  0.44859465670E+02 -0.24213243407E+02 -0.12826212743E+03  0.13802110763E+03  0.00000000000E+00 0. -1.
         11    1    4    4    0    0 -0.26121274505E+02  0.24634152925E+02 -0.62554838328E+02  0.72126765284E+02  0.00000000000E+00 0.  1.
</event>
<event>
 8    1  0.6627806E-009  0.9734004E+02  0.7561462E-02  0.1285991E+00
          3   -1    0    0  501    0  0.00000000000E+00  0.00000000000E+00  0.25878922557E+03  0.25878922557E+03  0.00000000000E+00 0. -1.
         -3   -1    0    0    0  501 -0.00000000000E+00 -0.00000000000E+00 -0.49292103367E+02  0.49292103367E+02  0.00000000000E+00 0.  1.
         25    2    1    2    0    0 -0.61720622598E+01  0.92611515606E+01  0.90943218981E+02  0.15505674213E+03  0.12509220967E+03 0.  0.
         23    2    1    2    0    0  0.61720622598E+01 -0.92611515606E+01  0.11855390322E+03  0.15302458681E+03  0.96112605409E+02 0.  0.
          5    1    3    3  502    0 -0.56633188878E+02  0.20878928631E+02  0.82680857614E+02  0.10245410855E+03  0.41800000000E+01 0.  1.
         -5    1    3    3    0  502  0.50461126619E+02 -0.11617777071E+02  0.82623613672E+01  0.52602633575E+02  0.41800000000E+01 0.  1.
        -11    1    4    4    0    0  0.35382642057E+02  0.20196841535E+02  0.99212940565E+02  0.10725227896E+03  0.00000000000E+00 0. -1.
         11    1    4    4    0    0 -0.29210579798E+02 -0.29457993095E+02  0.19340962659E+02  0.45772307850E+02  0.00000000000E+00 0.  1.
</event>
<event>
 8    1  0.6627806E-009  0.2432924E+03  0.7561462E-02  0.1117619E+00
          1   -1    0    0  501    0  0.00000000000E+00  0.00000000000E+00  0.39151432956E+03  0.39151432956E+03  0.00000000000E+00 0. -1.
         -1   -1    0    0    0  501 -0.00000000000E+00 -0.00000000000E+00 -0.16098707659E+03  0.16098707659E+03  0.00000000000E+00 0.  1.
         25    2    1    2    0    0 -0.21091845712E+03 -0.79991846003E+02  0.10655383210E+03  0.27907964718E+03  0.12508572801E+03 0.  0.
         23    2    1    2    0    0  0.21091845712E+03  0.79991846003E+02  0.12397342086E+03  0.27342175897E+03  0.92221246018E+02 0.  0.
          5    1    3    3  502    0 -0.89190503506E+02 -0.97870419139E+02  0.73985385839E+02  0.15173949577E+03  0.41800000000E+01 0.  1.
         -5    1    3    3    0  502 -0.12172795362E+03  0.17878573135E+02  0.32568446263E+02  0.12734015141E+03  0.41800000000E+01 0.  1.
        -11    1    4    4    0    0  0.50802681316E+02 -0.25371130675E+01  0.67746505147E+02  0.84716812566E+02  0.00000000000E+00 0. -1.
         11    1    4    4    0    0  0.16011577581E+03  0.82528959071E+02  0.56226915714E+02  0.18870494641E+03  0.00000000000E+00 0.  1.
</event>
<event>
 8    1  0.6627806E-009  0.1512424E+03  0.7561462E-02  0.1198955E+00
          2   -1    0    0  501    0  0.00000000000E+00  0.00000000000E+00  0.70003755647E+03  0.70003755647E+03  0.00000000000E+00 0. -1.
         -2   -1    0    0    0  501 -0.00000000000E+00 -0.00000000000E+00 -0.45525088610E+02  0.45525088610E+02  0.00000000000E+00 0.  1.
         25    2    1    2    0    0  0.89635472045E+01 -0.12023314812E+03  0.18949240121E+03  0.25708233143E+03  0.12509036708E+03 0.  0.
         23    2    1    2    0    0 -0.89635472045E+01  0.12023314812E+03  0.46502006665E+03  0.48848031364E+03  0.88504233480E+02 0.  0.
          5    1    3    3  502    0  0.55348018642E+02 -0.40520012334E+02  0.13059771328E+03  0.14757543725E+03  0.41800000000E+01 0.  1.
         -5    1    3    3    0  502 -0.46384471437E+02 -0.79713135783E+02  0.58894687929E+02  0.10950689418E+03  0.41800000000E+01 0.  1.
        -11    1    4    4    0    0  0.27952857287E+02  0.88337923262E+02  0.22110286030E+03  0.23973198733E+03  0.00000000000E+00 0.  1.
         11    1    4    4    0    0 -0.36916404491E+02  0.31895224855E+02  0.24391720635E+03  0.24874832631E+03  0.00000000000E+00 0. -1.
</event>
<event>
 8    1  0.6627806E-009  0.9869011E+02  0.7561462E-02  0.1283075E+00
         -2   -1    0    0    0  501 -0.00000000000E+00  0.00000000000E+00  0.11212695552E+03  0.11212695552E+03  0.00000000000E+00 0.  1.
          2   -1    0    0  501    0  0.00000000000E+00 -0.00000000000E+00 -0.20930953677E+03  0.20930953677E+03  0.00000000000E+00 0. -1.
         25    2    1    2    0    0 -0.43965707554E+02  0.58184291305E+02 -0.14000574304E+03  0.20141742458E+03  0.12509586582E+03 0.  0.
         23    2    1    2    0    0  0.43965707554E+02 -0.58184291305E+02  0.42823161800E+02  0.12001906771E+03  0.85160778717E+02 0.  0.
          5    1    3    3  502    0 -0.18249106601E+02  0.60651034046E+02 -0.15758655616E+03  0.16988988465E+03  0.41800000000E+01 0.  1.
         -5    1    3    3    0  502 -0.25716600953E+02 -0.24667427412E+01  0.17580813120E+02  0.31527539934E+02  0.41800000000E+01 0.  1.
        -11    1    4    4    0    0  0.19968872443E+02 -0.75530117613E+02  0.45295711525E+02  0.90306456114E+02  0.00000000000E+00 0.  1.
         11    1    4    4    0    0  0.23996835111E+02  0.17345826308E+02 -0.24725497244E+01  0.29712611595E+02  0.00000000000E+00 0. -1.
</event>
<event>
 8    1  0.6627806E-009  0.1297924E+03  0.7561462E-02  0.1227764E+00
          2   -1    0    0  501    0  0.00000000000E+00  0.00000000000E+00  0.33376019606E+03  0.33376019606E+03  0.00000000000E+00 0. -1.
         -2   -1    0    0    0  501 -0.00000000000E+00 -0.00000000000E+00 -0.89776702079E+02  0.89776702079E+02  0.00000000000E+00 0.  1.
         25    2    1    2    0    0 -0.10920294335E+03  0.12149011674E+02  0.34253640785E+02  0.16997659103E+03  0.12508336528E+03 0.  0.
         23    2    1    2    0    0  0.10920294335E+03 -0.12149011674E+02  0.20972985319E+03  0.25356030710E+03  0.90737735788E+02 0.  0.
          5    1    3    3  502    0 -0.11870934982E+03 -0.12216712108E+02 -0.84693030050E+01  0.11970947867E+03  0.41800000000E+01 0. -1.
         -5    1    3    3    0  502  0.95064064682E+01  0.24365723782E+02  0.42722943790E+02  0.50267112365E+02  0.41800000000E+01 0. -1.
        -11    1    4    4    0    0  0.62503326592E+02  0.76418575384E+01  0.35903450137E+02  0.72485319572E+02  0.00000000000E+00 0.  1.
         11    1    4    4    0    0  0.46699616762E+02 -0.19790869213E+02  0.17382640306E+03  0.18107498753E+03  0.00000000000E+00 0. -1.
</event>
<event>
 8    1  0.6627806E-009  0.1166097E+03  0.7561462E-02  0.1248797E+00
         -1   -1    0    0    0  501 -0.00000000000E+00  0.00000000000E+00  0.32006468436E+03  0.32006468436E+03  0.00000000000E+00 0.  1.
          1   -1    0    0  501    0  0.00000000000E+00 -0.00000000000E+00 -0.47165523996E+02  0.47165523996E+02  0.00000000000E+00 0. -1.
         25    2    1    2    0    0 -0.12535699340E+02 -0.54665822529E+02  0.15824797281E+03  0.20936630363E+03  0.12508530004E+03 0.  0.
         23    2    1    2    0    0  0.12535699340E+02  0.54665822529E+02  0.11465118755E+03  0.15786390472E+03  0.92901139375E+02 0.  0.
          5    1    3    3  502    0 -0.30203907176E+02  0.32993074992E+02  0.34551768529E+02  0.56675533651E+02  0.41800000000E+01 0.  1.
         -5    1    3    3    0  502  0.17668207837E+02 -0.87658897521E+02  0.12369620429E+03  0.15269076998E+03  0.41800000000E+01 0.  1.
        -11    1    4    4    0    0  0.15158955339E+02 -0.19423571273E+02  0.62616030078E+02  0.67289198767E+02  0.00000000000E+00 0.  1.
         11    1    4    4    0    0 -0.26232559990E+01  0.74089393802E+02  0.52035157469E+02  0.90574705954E+02  0.00000000000E+00 0. -1.
</event>
<event>
 8    1  0.6627806E-009  0.5483666E+02  0.7561462E-02  0.1420873E+00
          2   -1    0    0  501    0  0.00000000000E+00  0.00000000000E+00  0.54549707097E+02  0.54549707097E+02  0.00000000000E+00 0.  1.
         -2   -1    0    0    0  501 -0.00000000000E+00 -0.00000000000E+00 -0.23744349864E+03  0.23744349864E+03  0.00000000000E+00 0. -1.
         25    2    1    2    0    0 -0.12942498887E+02 -0.99094029024E+01 -0.14585786909E+03  0.19284158821E+03  0.12509058967E+03 0.  0.
         23    2    1    2    0    0  0.12942498887E+02  0.99094029024E+01 -0.37035922451E+02  0.99151617526E+02  0.90518943668E+02 0.  0.
          5    1    3    3  502    0  0.83992997576E+00 -0.15216181260E+02 -0.16642773697E+03  0.16717625934E+03  0.41800000000E+01 0. -1.
         -5    1    3    3    0  502 -0.13782428863E+02  0.53067783578E+01  0.20569867873E+02  0.25665328874E+02  0.41800000000E+01 0. -1.
        -11    1    4    4    0    0  0.26274159564E+02  0.38710624291E+02 -0.46571210904E+02  0.66013040976E+02  0.00000000000E+00 0. -1.
         11    1    4    4    0    0 -0.13331660677E+02 -0.28801221389E+02  0.95352884527E+01  0.33138576550E+02  0.00000000000E+00 0.  1.
</event>
<event>
 8    1  0.6627806E-009  0.7708724E+02  0.7561462E-02  0.1337527E+00
         -2   -1    0    0    0  501 -0.00000000000E+00  0.00000000000E+00  0.42495940939E+02  0.42495940939E+02  0.00000000000E+00 0.  1.
          2   -1    0    0  501    0  0.00000000000E+00 -0.00000000000E+00 -0.34992857090E+03  0.34992857090E+03  0.00000000000E+00 0. -1.
         25    2    1    2    0    0  0.24962272076E+02 -0.10048030323E+02 -0.94031745326E+02  0.15878252468E+03  0.12508334452E+03 0.  0.
         23    2    1    2    0    0 -0.24962272076E+02  0.10048030323E+02 -0.21340088463E+03  0.23364198715E+03  0.91239041304E+02 0.  0.
          5    1    3    3  502    0  0.44273236078E+02 -0.41570081238E+02 -0.35804762813E+01  0.60979367800E+02  0.41800000000E+01 0.  1.
         -5    1    3    3    0  502 -0.19310964002E+02  0.31522050915E+02 -0.90451269044E+02  0.97803156883E+02  0.41800000000E+01 0.  1.
        -11    1    4    4    0    0  0.11674929246E+02  0.15129025397E+02 -0.22109130034E+01  0.19237450940E+02  0.00000000000E+00 0.  1.
         11    1    4    4    0    0 -0.36637201323E+02 -0.50809950740E+01 -0.21118997163E+03  0.21440453621E+03  0.00000000000E+00 0. -1.
</event>
<event>
 8    1  0.6627806E-009  0.1049702E+03  0.7561462E-02  0.1270178E+00
         -3   -1    0    0    0  501 -0.00000000000E+00  0.00000000000E+00  0.32648285525E+02  0.32648285525E+02  0.00000000000E+00 0.  1.
          3   -1    0    0  501    0  0.00000000000E+00 -0.00000000000E+00 -0.39069556008E+03  0.39069556008E+03  0.00000000000E+00 0. -1.
         25    2    1    2    0    0 -0.16718060645E+02  0.19756414213E+02 -0.16545801329E+03  0.20904130448E+03  0.12510836648E+03 0.  0.
         23    2    1    2    0    0  0.16718060645E+02 -0.19756414213E+02 -0.19258926127E+03  0.21430254113E+03  0.90361198109E+02 0.  0.
          5    1    3    3  502    0  0.54595249131E+02  0.98222360732E+01 -0.72970714942E+02  0.91756826385E+02  0.41800000000E+01 0.  1.
         -5    1    3    3    0  502 -0.71313309776E+02  0.99341781400E+01 -0.92487298350E+02  0.11728447810E+03  0.41800000000E+01 0.  1.
        -11    1    4    4    0    0  0.11743181981E+01  0.30019154658E+02 -0.12702752173E+03  0.13053168177E+03  0.00000000000E+00 0. -1.
         11    1    4    4    0    0  0.15543742447E+02 -0.49775568871E+02 -0.65561739535E+02  0.83770859352E+02  0.00000000000E+00 0.  1.
</event>
<event>
 8    1  0.6627806E-009  0.1401209E+03  0.7561462E-02  0.1213166E+00
         -2   -1    0    0    0  501 -0.00000000000E+00  0.00000000000E+00  0.11974595169E+03  0.11974595169E+03  0.00000000000E+00 0.  1.
          2   -1    0    0  501    0  0.00000000000E+00 -0.00000000000E+00 -0.24707919704E+03  0.24707919704E+03  0.00000000000E+00 0. -1.
         25    2    1    2    0    0  0.11487452264E+03  0.79051235685E+01  0.54109561726E+01  0.17009982895E+03  0.12508407744E+03 0.  0.
         23    2    1    2    0    0 -0.11487452264E+03 -0.79051235685E+01 -0.13274420153E+03  0.19672531978E+03  0.88437443841E+02 0.  0.
          5    1    3    3  502    0  0.11855914245E+03 -0.74505645680E+01  0.45135717342E+02  0.12714749919E+03  0.41800000000E+01 0. -1.
         -5    1    3    3    0  502 -0.36846198084E+01  0.15355688137E+02 -0.39724761169E+02  0.42952329753E+02  0.41800000000E+01 0. -1.
        -11    1    4    4    0    0 -0.10879992519E+03  0.24953146992E+02 -0.98333229447E+02  0.14875989809E+03  0.00000000000E+00 0.  1.
         11    1    4    4    0    0 -0.60745974499E+01 -0.32858270561E+02 -0.34410972081E+02  0.47965421691E+02  0.00000000000E+00 0. -1.
</event>
<event>
 8    1  0.6627806E-009  0.1513384E+03  0.7561462E-02  0.1198838E+00
         -3   -1    0    0    0  501 -0.00000000000E+00  0.00000000000E+00  0.31048753707E+03  0.31048753707E+03  0.00000000000E+00 0.  1.
          3   -1    0    0  501    0  0.00000000000E+00 -0.00000000000E+00 -0.87575515862E+02  0.87575515862E+02  0.00000000000E+00 0. -1.
         25    2    1    2    0    0  0.92455648577E+02  0.82416544871E+02  0.11531574219E+03  0.21043877332E+03  0.12508486359E+03 0.  0.
         23    2    1    2    0    0 -0.92455648577E+02 -0.82416544871E+02  0.10759627903E+03  0.18762427962E+03  0.91024047474E+02 0.  0.
          5    1    3    3  502    0  0.15164614625E+02  0.80207672231E+02  0.14010077832E+02  0.82927624482E+02  0.41800000000E+01 0. -1.
         -5    1    3    3    0  502  0.77291033952E+02  0.22088726403E+01  0.10130566436E+03  0.12751114884E+03  0.41800000000E+01 0. -1.
        -11    1    4    4    0    0 -0.26372965352E+01  0.12531351225E+02  0.36837246694E+02  0.38999651800E+02  0.00000000000E+00 0.  1.
         11    1    4    4    0    0 -0.89818352042E+02 -0.94947896096E+02  0.70759032332E+02  0.14862462782E+03  0.00000000000E+00 0. -1.
</event>
<event>
 8    1  0.6627806E-009  0.1329733E+03  0.7561462E-02  0.1223109E+00
          2   -1    0    0  501    0  0.00000000000E+00  0.00000000000E+00  0.13433908817E+03  0.13433908817E+03  0.00000000000E+00 0. -1.
         -2   -1    0    0    0  501 -0.00000000000E+00 -0.00000000000E+00 -0.17463888396E+03  0.17463888396E+03  0.00000000000E+00 0.  1.
         25    2    1    2    0    0 -0.18918904194E+02 -0.90264803407E+02 -0.72430413489E+02  0.17146795200E+03  0.12509769820E+03 0.  0.
         23    2    1    2    0    0  0.18918904194E+02  0.90264803407E+02  0.32130617695E+02  0.13751002013E+03  0.96803767349E+02 0.  0.
          5    1    3    3  502    0 -0.18189538226E+02 -0.11410304894E+03 -0.85643745448E+02  0.14388428897E+03  0.41800000000E+01 0. -1.
         -5    1    3    3    0  502 -0.72936596845E+00  0.23838245529E+02  0.13213331959E+02  0.27583663029E+02  0.41800000000E+01 0. -1.
        -11    1    4    4    0    0 -0.23286388561E+02 -0.32542470720E+01  0.25512913553E+02  0.34695169320E+02  0.00000000000E+00 0. -1.
         11    1    4    4    0    0  0.42205292755E+02  0.93519050479E+02  0.66177041422E+01  0.10281485081E+03  0.00000000000E+00 0.  1.
</event>
<event>
 8    1  0.6627806E-009  0.1103140E+03  0.7561462E-02  0.1259990E+00
          1   -1    0    0  501    0  0.00000000000E+00  0.00000000000E+00  0.46523964394E+03  0.46523964394E+03  0.00000000000E+00 0.  1.
         -1   -1    0    0    0  501 -0.00000000000E+00 -0.00000000000E+00 -0.31394365713E+02  0.31394365713E+02  0.00000000000E+00 0. -1.
         25    2    1    2    0    0 -0.11450351981E+02 -0.50365758264E+02  0.21850858404E+03  0.25702439854E+03  0.12509084691E+03 0.  0.
         23    2    1    2    0    0  0.11450351981E+02  0.50365758264E+02  0.21533669418E+03  0.23960961111E+03  0.91515319518E+02 0.  0.
          5    1    3    3  502    0  0.54553351778E+02 -0.11835165972E+02  0.67227564378E+02  0.87482324821E+02  0.41800000000E+01 0. -1.
         -5    1    3    3    0  502 -0.66003703759E+02 -0.38530592292E+02  0.15128101966E+03  0.16954207372E+03  0.41800000000E+01 0. -1.
        -11    1    4    4    0    0 -0.29739804423E+02  0.29677149550E+02  0.38920862958E+02  0.57271482833E+02  0.00000000000E+00 0. -1.
         11    1    4    4    0    0  0.41190156404E+02  0.20688608714E+02  0.17641583123E+03  0.18233812827E+03  0.00000000000E+00 0.  1.
</event>
<event>
 8    1  0.6627806E-009  0.1968209E+03  0.7561462E-02  0.1152449E+00
         -2   -1    0    0    0  501 -0.00000000000E+00  0.00000000000E+00  0.84853085377E+02  0.84853085377E+02  0.00000000000E+00 0.  1.
          2   -1    0    0  501    0  0.00000000000E+00 -0.00000000000E+00 -0.68697396144E+03  0.68697396144E+03  0.00000000000E+00 0. -1.
         25    2    1    2    0    0 -0.10144459240E+03  0.15218294893E+03 -0.51692259120E+03  0.56241182908E+03  0.12508974748E+03 0.  0.
         23    2    1    2    0    0  0.10144459240E+03 -0.15218294893E+03 -0.85198284865E+02  0.20941521774E+03  0.56083245301E+02 0.  0.
          5    1    3    3  502    0 -0.11088620177E+03  0.77568147702E+02 -0.24135968669E+03  0.27673911549E+03  0.41800000000E+01 0.  1.
         -5    1    3    3    0  502  0.94416093732E+01  0.74614801232E+02 -0.27556290451E+03  0.28567271359E+03  0.41800000000E+01 0.  1.
        -11    1    4    4    0    0  0.15515836611E+02 -0.21103787569E+02 -0.37199667085E+02  0.45496442353E+02  0.00000000000E+00 0. -1.
         11    1    4    4    0    0  0.85928755787E+02 -0.13107916136E+03 -0.47998617780E+02  0.16391877539E+03  0.00000000000E+00 0.  1.
</event>
<event>
 8    1  0.6627806E-009  0.1239754E+03  0.7561462E-02  0.1236679E+00
         -1   -1    0    0    0  501 -0.00000000000E+00  0.00000000000E+00  0.13591201492E+03  0.13591201492E+03  0.00000000000E+00 0.  1.
          1   -1    0    0  501    0  0.00000000000E+00 -0.00000000000E+00 -0.14650425532E+03  0.14650425532E+03  0.00000000000E+00 0. -1.
         25    2    1    2    0    0  0.85027187648E+02 -0.18957365943E+02 -0.19015808189E+02  0.15362325499E+03  0.12509795822E+03 0.  0.
         23    2    1    2    0    0 -0.85027187648E+02  0.18957365943E+02  0.84235677974E+01  0.12879301525E+03  0.94486400708E+02 0.  0.
          5    1    3    3  502    0  0.16459645112E+02 -0.63786345371E+02  0.96933854887E+01  0.66716204143E+02  0.41800000000E+01 0. -1.
         -5    1    3    3    0  502  0.68567542536E+02  0.44828979428E+02 -0.28709193678E+02  0.86907050851E+02  0.41800000000E+01 0. -1.
        -11    1    4    4    0    0 -0.12864869340E+02 -0.15336456689E+02 -0.33151682222E+02  0.38726551629E+02  0.00000000000E+00 0. -1.
         11    1    4    4    0    0 -0.72162318308E+02  0.34293822633E+02  0.41575250019E+02  0.90066463617E+02  0.00000000000E+00 0.  1.
</event>
<event>
 8    1  0.6627806E-009  0.1877487E+03  0.7561462E-02  0.1160508E+00
         -1   -1    0    0    0  501 -0.00000000000E+00  0.00000000000E+00  0.75276177604E+02  0.75276177604E+02  0.00000000000E+00 0.  1.
          1   -1    0    0  501    0  0.00000000000E+00 -0.00000000000E+00 -0.48463467946E+03  0.48463467946E+03  0.00000000000E+00 0. -1.
         25    2    1    2    0    0  0.14058439873E+03  0.66074668117E+02 -0.18036827921E+03  0.26890564875E+03  0.12509075445E+03 0.  0.
         23    2    1    2    0    0 -0.14058439873E+03 -0.66074668117E+02 -0.22899022264E+03  0.29100520832E+03  0.90098136889E+02 0.  0.
          5    1    3    3  502    0  0.68111101441E+02  0.98498092826E+02 -0.11279295320E+03  0.16456220441E+03  0.41800000000E+01 0. -1.
         -5    1    3    3    0  502  0.72473297286E+02 -0.32423424709E+02 -0.67575326018E+02  0.10434344434E+03  0.41800000000E+01 0. -1.
        -11    1    4    4    0    0 -0.14614110817E+03 -0.42862560829E+02 -0.17509761398E+03  0.23206377795E+03  0.00000000000E+00 0.  1.
         11    1    4    4    0    0  0.55567094438E+01 -0.23212107288E+02 -0.53892608668E+02  0.58941430367E+02  0.00000000000E+00 0. -1.
</event>
<event>
 8    1  0.6627806E-009  0.9938660E+02  0.7561462E-02  0.1281591E+00
          2   -1    0    0  501    0  0.00000000000E+00  0.00000000000E+00  0.79459335667E+03  0.79459335667E+03  0.00000000000E+00 0. -1.
         -2   -1    0    0    0  501 -0.00000000000E+00 -0.00000000000E+00 -0.17803853987E+02  0.17803853987E+02  0.00000000000E+00 0.  1.
         25    2    1    2    0    0 -0.49953211495E+02 -0.20803002152E+02  0.49701942900E+03  0.51536706873E+03  0.12508722751E+03 0.  0.
         23    2    1    2    0    0  0.49953211495E+02  0.20803002152E+02  0.27977007368E+03  0.29703014193E+03  0.83830321783E+02 0.  0.
          5    1    3    3  502    0 -0.19823224383E+02 -0.69441218187E+02  0.19582468568E+03  0.20875780926E+03  0.41800000000E+01 0.  1.
         -5    1    3    3    0  502 -0.30129987112E+02  0.48638216035E+02  0.30119474332E+03  0.30660925946E+03  0.41800000000E+01 0.  1.
        -11    1    4    4    0    0  0.12823913105E+02 -0.13428970645E+02  0.73527811585E+01  0.19971314195E+02  0.00000000000E+00 0.  1.
         11    1    4    4    0    0  0.37129298389E+02  0.34231972797E+02  0.27241729252E+03  0.27705882773E+03  0.00000000000E+00 0. -1.
</event>
<event>
 8    1  0.6627806E-009  0.3402014E+03  0.7561462E-02  0.1066710E+00
          2   -1    0    0  501    0  0.00000000000E+00  0.00000000000E+00  0.82806678070E+03  0.82806678070E+03  0.00000000000E+00 0.  1.
         -2   -1    0    0    0  501 -0.00000000000E+00 -0.00000000000E+00 -0.16524258759E+03  0.16524258759E+03  0.00000000000E+00 0. -1.
         25    2    1    2    0    0 -0.32931363418E+03  0.12059764586E+02  0.50652832569E+03  0.61709836375E+03  0.12508612328E+03 0.  0.
         23    2    1    2    0    0  0.32931363418E+03 -0.12059764586E+02  0.15629586741E+03  0.37621100454E+03  0.92268164544E+02 0.  0.
          5    1    3    3  502    0 -0.40038413729E+02  0.33765448459E+02  0.14072768286E+03  0.15021628809E+03  0.41800000000E+01 0.  1.
         -5    1    3    3    0  502 -0.28927522045E+03 -0.21705683873E+02  0.36580064283E+03  0.46688207566E+03  0.41800000000E+01 0.  1.
        -11    1    4    4    0    0  0.68608805409E+02 -0.33127126371E+02  0.61829974529E+02  0.98119928819E+02  0.00000000000E+00 0.  1.
         11    1    4    4    0    0  0.26070482877E+03  0.21067361786E+02  0.94465892879E+02  0.27809107572E+03  0.00000000000E+00 0. -1.
</event>
<event>
 8    1  0.6627806E-009  0.1638128E+03  0.7561462E-02  0.1184458E+00
          2   -1    0    0  501    0  0.00000000000E+00  0.00000000000E+00  0.18904999018E+03  0.18904999018E+03  0.00000000000E+00 0. -1.
         -2   -1    0    0    0  501 -0.00000000000E+00 -0.00000000000E+00 -0.17862455250E+03  0.17862455250E+03  0.00000000000E+00 0.  1.
         25    2    1    2    0    0 -0.47712911678E+02  0.13827963696E+03 -0.16108621668E+02  0.19314004050E+03  0.12508320277E+03 0.  0.
         23    2    1    2    0    0  0.47712911678E+02 -0.13827963696E+03  0.26534059343E+02  0.17453450218E+03  0.91435530334E+02 0.  0.
          5    1    3    3  502    0 -0.35864880672E+02  0.15712495922E+02 -0.51610759724E+02  0.64917756531E+02  0.41800000000E+01 0. -1.
         -5    1    3    3    0  502 -0.11848031006E+02  0.12256714103E+03  0.35502138056E+02  0.12822228397E+03  0.41800000000E+01 0. -1.
        -11    1    4    4    0    0  0.68879154614E+02 -0.10795281173E+03 -0.16024412824E+01  0.12806527757E+03  0.00000000000E+00 0.  1.
         11    1    4    4    0    0 -0.21166242936E+02 -0.30326825231E+02  0.28136500626E+02  0.46469224612E+02  0.00000000000E+00 0. -1.
</event>
<event>
 8    1  0.6627806E-009  0.8311294E+02  0.7561462E-02  0.1320442E+00
          3   -1    0    0  501    0  0.00000000000E+00  0.00000000000E+00  0.62233863120E+02  0.62233863120E+02  0.00000000000E+00 0. -1.
         -3   -1    0    0    0  501 -0.00000000000E+00 -0.00000000000E+00 -0.30339482902E+03  0.30339482902E+03  0.00000000000E+00 0.  1.
         25    2    1    2    0    0  0.19336432258E+02 -0.82461420546E+01 -0.24063045986E+03  0.27201054317E+03  0.12507925852E+03 0.  0.
         23    2    1    2    0    0 -0.19336432258E+02  0.82461420546E+01 -0.53050603484E+00  0.93618148966E+02  0.91225982636E+02 0.  0.
          5    1    3    3  502    0 -0.42881759737E+02 -0.13013733312E+02 -0.34810468885E+02  0.56898538793E+02  0.41800000000E+01 0.  1.
         -5    1    3    3    0  502  0.62218191995E+02  0.47675912571E+01 -0.20581999098E+03  0.21511200438E+03  0.41800000000E+01 0.  1.
        -11    1    4    4    0    0  0.19368136298E+02  0.35285469716E+01  0.35458282355E+02  0.40556936953E+02  0.00000000000E+00 0. -1.
         11    1    4    4    0    0 -0.38704568557E+02  0.47175950830E+01 -0.35988788390E+02  0.53061212013E+02  0.00000000000E+00 0.  1.
</event>
<event>
 8    1  0.6627806E-009  0.1020259E+03  0.7561462E-02  0.1276093E+00
         -2   -1    0    0    0  501 -0.00000000000E+00  0.00000000000E+00  0.53821521308E+02  0.53821521308E+02  0.00000000000E+00 0.  1.
          2   -1    0    0  501    0  0.00000000000E+00 -0.00000000000E+00 -0.55042529971E+03  0.55042529971E+03  0.00000000000E+00 0. -1.
         25    2    1    2    0    0  0.86397092977E+02  0.12714444687E+02 -0.44545839336E+03  0.47085830217E+03  0.12509294838E+03 0.  0.
         23    2    1    2    0    0 -0.86397092977E+02 -0.12714444687E+02 -0.51145385047E+02  0.13338851885E+03  0.86893795924E+02 0.  0.
          5    1    3    3  502    0  0.33503419867E+01 -0.24570817986E+02 -0.28672940935E+03  0.28783011738E+03  0.41800000000E+01 0.  1.
         -5    1    3    3    0  502  0.83046750991E+02  0.37285262673E+02 -0.15872898401E+03  0.18302818479E+03  0.41800000000E+01 0.  1.
        -11    1    4    4    0    0 -0.18241526990E+02 -0.63834267759E+01  0.24608956686E+02  0.31290608711E+02  0.00000000000E+00 0.  1.
         11    1    4    4    0    0 -0.68155565988E+02 -0.63310179110E+01 -0.75754341733E+02  0.10209791014E+03  0.00000000000E+00 0. -1.
</event>
<event>
 8    1  0.6627806E-009  0.1137596E+03  0.7561462E-02  0.1253762E+00
          1   -1    0    0  501    0  0.00000000000E+00  0.00000000000E+00  0.56307308335E+02  0.56307308335E+02  0.00000000000E+00 0. -1.
         -1   -1    0    0    0  501 -0.00000000000E+00 -0.00000000000E+00 -0.25126471607E+03  0.25126471607E+03  0.00000000000E+00 0.  1.
         25    2    1    2    0    0 -0.48896244071E+02  0.63390527214E+01 -0.11764671228E+03  0.17866206520E+03  0.12509339853E+03 0.  0.
         23    2    1    2    0    0  0.48896244071E+02 -0.63390527214E+01 -0.77310695454E+02  0.12890995921E+03  0.90607989043E+02 0.  0.
          5    1    3    3  502    0 -0.56345028694E+02 -0.47230441097E+02 -0.94192901396E+02  0.11956275297E+03  0.41800000000E+01 0. -1.
         -5    1    3    3    0  502  0.74487846236E+01  0.53569493819E+02 -0.23453810886E+02  0.59099312225E+02  0.41800000000E+01 0. -1.
        -11    1    4    4    0    0  0.43598966191E+02 -0.43798879780E+02 -0.63572023756E+02  0.88660103358E+02  0.00000000000E+00 0.  1.
         11    1    4    4    0    0  0.52972778793E+01  0.37459827058E+02 -0.13738671698E+02  0.40249855853E+02  0.00000000000E+00 0. -1.
</event>
<event>
 8    1  0.6627806E-009  0.1069452E+03  0.7561462E-02  0.1266334E+00
         -1   -1    0    0    0  501 -0.00000000000E+00  0.00000000000E+00  0.39288701475E+02  0.39288701475E+02  0.00000000000E+00 0.  1.
          1   -1    0    0  501    0  0.00000000000E+00 -0.00000000000E+00 -0.35061664926E+03  0.35061664926E+03  0.00000000000E+00 0. -1.
         25    2    1    2    0    0 -0.41286674190E+02  0.19961847518E+01 -0.21126267030E+03  0.24897517906E+03  0.12509256455E+03 0.  0.
         23    2    1    2    0    0  0.41286674190E+02 -0.19961847518E+01 -0.10006527749E+03  0.14093017168E+03  0.90220171311E+02 0.  0.
          5    1    3    3  502    0 -0.63782685565E+02  0.37561484029E+02 -0.71669968428E+02  0.10311718011E+03  0.41800000000E+01 0. -1.
         -5    1    3    3    0  502  0.22496011375E+02 -0.35565299277E+02 -0.13959270187E+03  0.14585799894E+03  0.41800000000E+01 0. -1.
        -11    1    4    4    0    0  0.44338461955E+02  0.37364565805E+02 -0.72235753235E+02  0.92628365157E+02  0.00000000000E+00 0.  1.
         11    1    4    4    0    0 -0.30517877653E+01 -0.39360750557E+02 -0.27829524251E+02  0.48301806519E+02  0.00000000000E+00 0. -1.
</event>
<event>
 8    1  0.6627806E-009  0.1079600E+03  0.7561462E-02  0.1264395E+00
         -2   -1    0    0    0  501 -0.00000000000E+00  0.00000000000E+00  0.65589952950E+02  0.65589952950E+02  0.00000000000E+00 0.  1.
          2   -1    0    0  501    0  0.00000000000E+00 -0.00000000000E+00 -0.24484554670E+03  0.24484554670E+03  0.00000000000E+00 0. -1.
         25    2    1    2    0    0  0.43768729666E+01  0.56334224907E+02 -0.59343237439E+02  0.14953818680E+03  0.12508935834E+03 0.  0.
         23    2    1    2    0    0 -0.43768729666E+01 -0.56334224907E+02 -0.11991235631E+03  0.16089731285E+03  0.91193586247E+02 0.  0.
          5    1    3    3  502    0  0.21991381100E+02  0.80887897167E+02 -0.12675406965E+01  0.83937785354E+02  0.41800000000E+01 0. -1.
         -5    1    3    3    0  502 -0.17614508133E+02 -0.24553672259E+02 -0.58075696742E+02  0.65600401449E+02  0.41800000000E+01 0. -1.
        -11    1    4    4    0    0 -0.11012912130E+01  0.22528245838E+02 -0.52340881811E+02  0.56993882230E+02  0.00000000000E+00 0. -1.
         11    1    4    4    0    0 -0.32755817537E+01 -0.78862470746E+02 -0.67571474501E+02  0.10390343062E+03  0.00000000000E+00 0.  1.
</event>
<event>
 8    1  0.6627806E-009  0.8664259E+02  0.7561462E-02  0.1311192E+00
         -1   -1    0    0    0  501 -0.00000000000E+00  0.00000000000E+00  0.10940794319E+03  0.10940794319E+03  0.00000000000E+00 0.  1.
          1   -1    0    0  501    0  0.00000000000E+00 -0.00000000000E+00 -0.12904772546E+03  0.12904772546E+03  0.00000000000E+00 0. -1.
         25    2    1    2    0    0 -0.15465762334E+02 -0.27643088620E+01 -0.27419251247E+02  0.12901847706E+03  0.12508845221E+03 0.  0.
         23    2    1    2    0    0  0.15465762334E+02  0.27643088620E+01  0.77794689845E+01  0.10943719159E+03  0.10802382865E+03 0.  0.
          5    1    3    3  502    0  0.31915917316E+02  0.21707204964E+02 -0.56176466368E+02  0.68286867692E+02  0.41800000000E+01 0.  1.
         -5    1    3    3    0  502 -0.47381679651E+02 -0.24471513826E+02  0.28757215121E+02  0.60731609372E+02  0.41800000000E+01 0.  1.
        -11    1    4    4    0    0  0.40385875688E+02  0.25061913747E+02  0.40653650625E+02  0.62544686304E+02  0.00000000000E+00 0.  1.
         11    1    4    4    0    0 -0.24920113354E+02 -0.22297604885E+02 -0.32874181640E+02  0.46892505283E+02  0.00000000000E+00 0. -1.
</event>
<event>
 8    1  0.6627806E-009  0.1607059E+03  0.7561462E-02  0.1187902E+00
         -3   -1    0    0    0  501 -0.00000000000E+00  0.00000000000E+00  0.86815791720E+02  0.86815791720E+02  0.00000000000E+00 0.  1.
          3   -1    0    0  501    0  0.00000000000E+00 -0.00000000000E+00 -0.34576487321E+03  0.34576487321E+03  0.00000000000E+00 0. -1.
         25    2    1    2    0    0 -0.98319558477E+02 -0.84907119341E+02 -0.91789727046E+02  0.20235918859E+03  0.12509169725E+03 0.  0.
         23    2    1    2    0    0  0.98319558477E+02  0.84907119341E+02 -0.16715935444E+03  0.23022147634E+03  0.90463937002E+02 0.  0.
          5    1    3    3  502    0  0.15999691648E+02  0.69892216160E+01  0.12899030191E+02  0.22106486186E+02  0.41800000000E+01 0. -1.
         -5    1    3    3    0  502 -0.11431925012E+03 -0.91896340957E+02 -0.10468875724E+03  0.18025270240E+03  0.41800000000E+01 0. -1.
        -11    1    4    4    0    0  0.99588519674E+02  0.33165069782E+02 -0.12666715719E+03  0.16450642484E+03  0.00000000000E+00 0.  1.
         11    1    4    4    0    0 -0.12689611979E+01  0.51742049559E+02 -0.40492197254E+02  0.65715051499E+02  0.00000000000E+00 0. -1.
</event>
<event>
 8    1  0.6627806E-009  0.1773269E+03  0.7561462E-02  0.1170415E+00
         -2   -1    0    0    0  501 -0.00000000000E+00  0.00000000000E+00  0.34176905462E+03  0.34176905462E+03  0.00000000000E+00 0.  1.
          2   -1    0    0  501    0  0.00000000000E+00 -0.00000000000E+00 -0.16127679045E+03  0.16127679045E+03  0.00000000000E+00 0. -1.
         25    2    1    2    0    0 -0.12793144858E+03  0.84040044801E+02  0.24413453291E+03  0.31412914960E+03  0.12508504229E+03 0.  0.
         23    2    1    2    0    0  0.12793144858E+03 -0.84040044801E+02 -0.63642268744E+02  0.18891669547E+03  0.90609021579E+02 0.  0.
          5    1    3    3  502    0 -0.53657688975E+02  0.10660451792E+03  0.13664280195E+03  0.18147285899E+03  0.41800000000E+01 0. -1.
         -5    1    3    3    0  502 -0.74273759607E+02 -0.22564473118E+02  0.10749173096E+03  0.13265629061E+03  0.41800000000E+01 0. -1.
        -11    1    4    4    0    0  0.12346986365E+02 -0.24596325628E+02 -0.51479713836E+02  0.58374551333E+02  0.00000000000E+00 0. -1.
         11    1    4    4    0    0  0.11558446222E+03 -0.59443719172E+02 -0.12162554908E+02  0.13054214414E+03  0.00000000000E+00 0.  1.
</event>
<event>
 8    1  0.6627806E-009  0.1190316E+03  0.7561462E-02  0.1244703E+00
         -2   -1    0    0    0  501 -0.00000000000E+00  0.00000000000E+00  0.11233771899E+03  0.11233771899E+03  0.00000000000E+00 0.  1.
          2   -1    0    0  501    0  0.00000000000E+00 -0.00000000000E+00 -0.30488442790E+03  0.30488442790E+03  0.00000000000E+00 0. -1.
         25    2    1    2    0    0 -0.52442710959E+02  0.47206496326E+02 -0.25086574439E+03  0.28907029957E+03  0.12509726279E+03 0.  0.
         23    2    1    2    0    0  0.52442710959E+02 -0.47206496326E+02  0.58319035483E+02  0.12815184732E+03  0.89683303035E+02 0.  0.
          5    1    3    3  502    0 -0.18918237837E+01  0.81670144136E+02 -0.13130334091E+03  0.15469851704E+03  0.41800000000E+01 0.  1.
         -5    1    3    3    0  502 -0.50550887175E+02 -0.34463647811E+02 -0.11956240347E+03  0.13437178253E+03  0.41800000000E+01 0.  1.
        -11    1    4    4    0    0 -0.41158382885E+01  0.12224242120E+02  0.42739883389E+02  0.44643810908E+02  0.00000000000E+00 0.  1.
         11    1    4    4    0    0  0.56558549247E+02 -0.59430738445E+02  0.15579152094E+02  0.83508036410E+02  0.00000000000E+00 0. -1.
</event>
<event>
 8    1  0.6627806E-009  0.9841679E+02  0.7561462E-02  0.1283661E+00
         -2   -1    0    0    0  501 -0.00000000000E+00  0.00000000000E+00  0.86399081732E+02  0.86399081732E+02  0.00000000000E+00 0. -1.
          2   -1    0    0  501    0  0.00000000000E+00 -0.00000000000E+00 -0.31713895746E+03  0.31713895746E+03  0.00000000000E+00 0.  1.
         25    2    1    2    0    0  0.38029457918E+02 -0.34168976459E+02  0.13094160574E+01  0.13513508378E+03  0.12508404245E+03 0.  0.
         23    2    1    2    0    0 -0.38029457918E+02  0.34168976459E+02 -0.23204929179E+03  0.26840295542E+03  0.12481792353E+03 0.  0.
          5    1    3    3  502    0 -0.14418374960E+02 -0.55474281992E+02 -0.35435262439E+02  0.67516040488E+02  0.41800000000E+01 0.  1.
         -5    1    3    3    0  502  0.52447832878E+02  0.21305305533E+02  0.36744678497E+02  0.67619043289E+02  0.41800000000E+01 0.  1.
        -11    1    4    4    0    0  0.14572229501E+01  0.42266362204E+02 -0.22315218229E+03  0.22712433893E+03  0.00000000000E+00 0.  1.
         11    1    4    4    0    0 -0.39486680868E+02 -0.80973857450E+01 -0.88971094990E+01  0.41278616490E+02  0.00000000000E+00 0. -1.
</event>
<event>
 8    1  0.6627806E-009  0.1233042E+03  0.7561462E-02  0.1237744E+00
          2   -1    0    0  501    0  0.00000000000E+00  0.00000000000E+00  0.27466567054E+03  0.27466567054E+03  0.00000000000E+00 0. -1.
         -2   -1    0    0    0  501 -0.00000000000E+00 -0.00000000000E+00 -0.73263194589E+02  0.73263194589E+02  0.00000000000E+00 0.  1.
         25    2    1    2    0    0  0.36051303036E+02 -0.82078222023E+02  0.11856291570E+03  0.19427023298E+03  0.12508887825E+03 0.  0.
         23    2    1    2    0    0 -0.36051303036E+02  0.82078222023E+02  0.82839560248E+02  0.15365863215E+03  0.93338371047E+02 0.  0.
          5    1    3    3  502    0  0.42925138849E+02  0.17242742671E+02  0.68480370264E+02  0.82746076835E+02  0.41800000000E+01 0.  1.
         -5    1    3    3    0  502 -0.68738358134E+01 -0.99320964694E+02  0.50082545435E+02  0.11152415615E+03  0.41800000000E+01 0.  1.
        -11    1    4    4    0    0 -0.35482010836E+02  0.24931774556E+02 -0.10125905524E+02  0.44532015878E+02  0.00000000000E+00 0.  1.
         11    1    4    4    0    0 -0.56929219989E+00  0.57146447467E+02  0.92965465773E+02  0.10912661627E+03  0.00000000000E+00 0. -1.
</event>
<event>
 8    1  0.6627806E-009  0.1119810E+03  0.7561462E-02  0.1256945E+00
         -4   -1    0    0    0  501 -0.00000000000E+00  0.00000000000E+00  0.97939256885E+03  0.97939256885E+03  0.00000000000E+00 0.  1.
          4   -1    0    0  501    0  0.00000000000E+00 -0.00000000000E+00 -0.13892286512E+02  0.13892286512E+02  0.00000000000E+00 0. -1.
         25    2    1    2    0    0  0.17583804874E+02  0.43434256022E+02  0.54842220158E+03  0.56445651830E+03  0.12509406490E+03 0.  0.
         23    2    1    2    0    0 -0.17583804874E+02 -0.43434256022E+02  0.41707808076E+03  0.42882833706E+03  0.87999388799E+02 0.  0.
          5    1    3    3  502    0  0.61059985755E+02 -0.25127898851E+01  0.16864638308E+03  0.17942605970E+03  0.41800000000E+01 0. -1.
         -5    1    3    3    0  502 -0.43476180882E+02  0.45947045907E+02  0.37977581850E+03  0.38503045860E+03  0.41800000000E+01 0. -1.
        -11    1    4    4    0    0 -0.34107944315E+02  0.15964610290E+02  0.17678679309E+03  0.18075339792E+03  0.00000000000E+00 0.  1.
         11    1    4    4    0    0  0.16524139441E+02 -0.59398866312E+02  0.24029128766E+03  0.24807493914E+03  0.00000000000E+00 0. -1.
</event>
<event>
 8    1  0.6627806E-009  0.1241140E+03  0.7561462E-02  0.1236461E+00
         -2   -1    0    0    0  501 -0.00000000000E+00  0.00000000000E+00  0.35828026618E+02  0.35828026618E+02  0.00000000000E+00 0.  1.
          2   -1    0    0  501    0  0.00000000000E+00 -0.00000000000E+00 -0.57779611196E+03  0.57779611196E+03  0.00000000000E+00 0. -1.
         25    2    1    2    0    0  0.91577598986E+02 -0.21722714209E+02 -0.31587857167E+03  0.35254078916E+03  0.12508958003E+03 0.  0.
         23    2    1    2    0    0 -0.91577598986E+02  0.21722714209E+02 -0.22608951367E+03  0.26108334942E+03  0.90497039742E+02 0.  0.
          5    1    3    3  502    0  0.91604402467E+02 -0.39866942754E+02 -0.31841813474E+03  0.33374888855E+03  0.41800000000E+01 0.  1.
         -5    1    3    3    0  502 -0.26803480358E-01  0.18144228544E+02  0.25395630741E+01  0.18791900609E+02  0.41800000000E+01 0.  1.
        -11    1    4    4    0    0 -0.72856414161E+01  0.42240512070E+02 -0.60512762358E+02  0.74156158469E+02  0.00000000000E+00 0. -1.
         11    1    4    4    0    0 -0.84291957570E+02 -0.20517797860E+02 -0.16557675131E+03  0.18692719095E+03  0.00000000000E+00 0.  1.
</event>
<event>
 8    1  0.6627806E-009  0.9142508E+02  0.7561462E-02  0.1299437E+00
          2   -1    0    0  501    0  0.00000000000E+00  0.00000000000E+00  0.70710552137E+02  0.70710552137E+02  0.00000000000E+00 0. -1.
         -2   -1    0    0    0  501 -0.00000000000E+00 -0.00000000000E+00 -0.20804775347E+03  0.20804775347E+03  0.00000000000E+00 0.  1.
         25    2    1    2    0    0  0.36317552493E+02  0.30845660970E+02 -0.11855039685E+03  0.17880398243E+03  0.12508496361E+03 0.  0.
         23    2    1    2    0    0 -0.36317552493E+02 -0.30845660970E+02 -0.18786804489E+02  0.99954323180E+02  0.85834161496E+02 0.  0.
          5    1    3    3  502    0  0.76497121420E+02 -0.87027248962E+01 -0.63347619869E+02  0.99789480153E+02  0.41800000000E+01 0.  1.
         -5    1    3    3    0  502 -0.40179568927E+02  0.39548385866E+02 -0.55202776979E+02  0.79014502276E+02  0.41800000000E+01 0.  1.
        -11    1    4    4    0    0 -0.20631223131E+02 -0.94728114895E+01 -0.52422195276E+02  0.57126772034E+02  0.00000000000E+00 0.  1.
         11    1    4    4    0    0 -0.15686329362E+02 -0.21372849481E+02  0.33635390788E+02  0.42827551146E+02  0.00000000000E+00 0. -1.
</event>
<event>
 8    1  0.6627806E-009  0.7587424E+02  0.7561462E-02  0.1341185E+00
         -1   -1    0    0    0  501 -0.00000000000E+00  0.00000000000E+00  0.24972226891E+03  0.24972226891E+03  0.00000000000E+00 0.  1.
          1   -1    0    0  501    0  0.00000000000E+00 -0.00000000000E+00 -0.10796110050E+03  0.10796110050E+03  0.00000000000E+00 0. -1.
         25    2    1    2    0    0  0.27777628326E+02  0.18723418241E+02 -0.54765201583E+02  0.14060713528E+03  0.12509586788E+03 0.  0.
         23    2    1    2    0    0 -0.27777628326E+02 -0.18723418241E+02  0.19652637000E+03  0.21707623413E+03  0.85891293482E+02 0.  0.
          5    1    3    3  502    0  0.15874743350E+02 -0.27153331261E+02  0.29829637931E+02  0.43549863077E+02  0.41800000000E+01 0.  1.
         -5    1    3    3    0  502  0.11902884976E+02  0.45876749501E+02 -0.84594839513E+02  0.97057272205E+02  0.41800000000E+01 0.  1.
        -11    1    4    4    0    0 -0.41959488576E+02  0.75017067366E+01  0.17547817523E+03  0.18058090781E+03  0.00000000000E+00 0.  1.
         11    1    4    4    0    0  0.14181860250E+02 -0.26225124977E+02  0.21048194768E+02  0.36495326320E+02  0.00000000000E+00 0. -1.
</event>
<event>
 8    1  0.6627806E-009  0.1633393E+03  0.7561462E-02  0.1184977E+00
         -1   -1    0    0    0  501 -0.00000000000E+00  0.00000000000E+00  0.67496581683E+03  0.67496581683E+03  0.00000000000E+00 0.  1.
          1   -1    0    0  501    0  0.00000000000E+00 -0.00000000000E+00 -0.99917860249E+02  0.99917860249E+02  0.00000000000E+00 0. -1.
         25    2    1    2    0    0 -0.14502071252E+03 -0.29338550549E+02  0.23660258064E+02  0.19518588543E+03  0.12508382969E+03 0.  0.
         23    2    1    2    0    0  0.14502071252E+03  0.29338550549E+02  0.55138769851E+03  0.57969779165E+03  0.10064481090E+03 0.  0.
          5    1    3    3  502    0 -0.99444948866E+02 -0.58446304541E+02  0.59813956901E+02  0.13000173156E+03  0.41800000000E+01 0. -1.
         -5    1    3    3    0  502 -0.45575763657E+02  0.29107753992E+02 -0.36153698837E+02  0.65184153864E+02  0.41800000000E+01 0. -1.
        -11    1    4    4    0    0  0.10694297738E+03  0.44761554608E+02  0.50316371139E+03  0.51634689661E+03  0.00000000000E+00 0.  1.
         11    1    4    4    0    0  0.38077735143E+02 -0.15423004058E+02  0.48223987127E+02  0.63350895039E+02  0.00000000000E+00 0. -1.
</event>
<event>
 8    1  0.6627806E-009  0.1243014E+03  0.7561462E-02  0.1236165E+00
          3   -1    0    0  501    0  0.00000000000E+00  0.00000000000E+00  0.14397489102E+03  0.14397489102E+03  0.00000000000E+00 0. -1.
         -3   -1    0    0    0  501 -0.00000000000E+00 -0.00000000000E+00 -0.13412724148E+03  0.13412724148E+03  0.00000000000E+00 0.  1.
         25    2    1    2    0    0 -0.69107885252E+02 -0.50885569634E+02 -0.38350026667E+01  0.15174816899E+03  0.12509020164E+03 0.  0.
         23    2    1    2    0    0  0.69107885252E+02  0.50885569634E+02  0.13682652203E+02  0.12635396351E+03  0.91721688399E+02 0.  0.
          5    1    3    3  502    0 -0.45369074344E+01  0.39599456814E+02  0.37334703530E+01  0.40250611299E+02  0.41800000000E+01 0.  1.
         -5    1    3    3    0  502 -0.64570977818E+02 -0.90485026448E+02 -0.75684730197E+01  0.11149755769E+03  0.41800000000E+01 0.  1.
        -11    1    4    4    0    0  0.59916048430E+02  0.17153234451E+02  0.47000184360E+02  0.78058847297E+02  0.00000000000E+00 0. -1.
         11    1    4    4    0    0  0.91918368228E+01  0.33732335183E+02 -0.33317532157E+02  0.48295116214E+02  0.00000000000E+00 0.  1.
</event>
<event>
 8    1  0.6627806E-009  0.2036063E+03  0.7561462E-02  0.1146732E+00
          1   -1    0    0  501    0  0.00000000000E+00  0.00000000000E+00  0.55525816532E+03  0.55525816532E+03  0.00000000000E+00 0. -1.
         -1   -1    0    0    0  501 -0.00000000000E+00 -0.00000000000E+00 -0.97523303579E+02  0.97523303579E+02  0.00000000000E+00 0.  1.
         25    2    1    2    0    0  0.56691038463E+02  0.18062704173E+03  0.34825523605E+03  0.41565499045E+03  0.12508940644E+03 0.  0.
         23    2    1    2    0    0 -0.56691038463E+02 -0.18062704173E+03  0.10947962569E+03  0.23712647845E+03  0.91668840363E+02 0.  0.
          5    1    3    3  502    0  0.77608223678E+02  0.92822333073E+02  0.12131632506E+03  0.17138887078E+03  0.41800000000E+01 0.  1.
         -5    1    3    3    0  502 -0.20917185216E+02  0.87804708658E+02  0.22693891098E+03  0.24426611967E+03  0.41800000000E+01 0.  1.
        -11    1    4    4    0    0 -0.19734700061E+02 -0.13786928312E+03  0.34951140955E+02  0.14359310522E+03  0.00000000000E+00 0.  1.
         11    1    4    4    0    0 -0.36956338402E+02 -0.42757758614E+02  0.74528484737E+02  0.93533373225E+02  0.00000000000E+00 0. -1.
</event>
<event>
 8    1  0.6627806E-009  0.1160935E+03  0.7561462E-02  0.1249684E+00
          2   -1    0    0  501    0  0.00000000000E+00  0.00000000000E+00  0.33095507088E+03  0.33095507088E+03  0.00000000000E+00 0. -1.
         -2   -1    0    0    0  501 -0.00000000000E+00 -0.00000000000E+00 -0.41974149162E+02  0.41974149162E+02  0.00000000000E+00 0.  1.
         25    2    1    2    0    0 -0.36822444665E+01 -0.42711216020E+02  0.13636126100E+03  0.18995058804E+03  0.12509606508E+03 0.  0.
         23    2    1    2    0    0  0.36822444665E+01  0.42711216020E+02  0.15261966071E+03  0.18297863200E+03  0.91381683246E+02 0.  0.
          5    1    3    3  502    0  0.55038290930E+02  0.63965011427E+01  0.58403216530E+02  0.80613502569E+02  0.41800000000E+01 0. -1.
         -5    1    3    3    0  502 -0.58720535396E+02 -0.49107717163E+02  0.77958044474E+02  0.10933708548E+03  0.41800000000E+01 0. -1.
        -11    1    4    4    0    0  0.46580048217E+02  0.29231411239E+02  0.96467333737E+02  0.11104108597E+03  0.00000000000E+00 0.  1.
         11    1    4    4    0    0 -0.42897803751E+02  0.13479804781E+02  0.56152326975E+02  0.71937546026E+02  0.00000000000E+00 0. -1.
</event>
<event>
 8    1  0.6627806E-009  0.1142809E+03  0.7561462E-02  0.1252842E+00
         -1   -1    0    0    0  501 -0.00000000000E+00  0.00000000000E+00  0.84191338804E+03  0.84191338804E+03  0.00000000000E+00 0.  1.
          1   -1    0    0  501    0  0.00000000000E+00 -0.00000000000E+00 -0.18658022151E+02  0.18658022151E+02  0.00000000000E+00 0. -1.
         25    2    1    2    0    0  0.13638668509E+02  0.29150750783E+02  0.59934453096E+03  0.61310496970E+03  0.12509219609E+03 0.  0.
         23    2    1    2    0    0 -0.13638668509E+02 -0.29150750783E+02  0.22391083492E+03  0.24746644049E+03  0.10033841549E+03 0.  0.
          5    1    3    3  502    0 -0.49779524365E+02  0.35188890291E+02  0.21582976982E+03  0.22431277491E+03  0.41800000000E+01 0. -1.
         -5    1    3    3    0  502  0.63418192873E+02 -0.60381395082E+01  0.38351476115E+03  0.38879219479E+03  0.41800000000E+01 0. -1.
        -11    1    4    4    0    0 -0.18595651769E+02  0.34808617651E+02  0.64283462627E+02  0.75430774189E+02  0.00000000000E+00 0. -1.
         11    1    4    4    0    0  0.49569832608E+01 -0.63959368433E+02  0.15962737230E+03  0.17203566630E+03  0.00000000000E+00 0.  1.
</event>
<event>
 8    1  0.6627806E-009  0.1061155E+03  0.7561462E-02  0.1267937E+00
          1   -1    0    0  501    0  0.00000000000E+00  0.00000000000E+00  0.65381341594E+03  0.65381341594E+03  0.00000000000E+00 0. -1.
         -1   -1    0    0    0  501 -0.00000000000E+00 -0.00000000000E+00 -0.18868349046E+02  0.18868349046E+02  0.00000000000E+00 0.  1.
         25    2    1    2    0    0  0.99971498464E+01 -0.54840435491E+01  0.42673046586E+03  0.44483425555E+03  0.12509439108E+03 0.  0.
         23    2    1    2    0    0 -0.99971498464E+01  0.54840435491E+01  0.20821460104E+03  0.22784750944E+03  0.91821292377E+02 0.  0.
          5    1    3    3  502    0  0.42382492070E+01  0.59094718158E+02  0.23525177875E+03  0.24263351021E+03  0.41800000000E+01 0. -1.
         -5    1    3    3    0  502  0.57589006394E+01 -0.64578761707E+02  0.19147868711E+03  0.20220074534E+03  0.41800000000E+01 0. -1.
        -11    1    4    4    0    0  0.23320945406E+02  0.35863254170E+02  0.65955960152E+02  0.78614427263E+02  0.00000000000E+00 0.  1.
         11    1    4    4    0    0 -0.33318095253E+02 -0.30379210621E+02  0.14225864089E+03  0.14923308218E+03  0.00000000000E+00 0. -1.
</event>
<event>
 8    1  0.6627806E-009  0.1739531E+03  0.7561462E-02  0.1173787E+00
          3   -1    0    0  501    0  0.00000000000E+00  0.00000000000E+00  0.50222114402E+03  0.50222114402E+03  0.00000000000E+00 0. -1.
         -3   -1    0    0    0  501 -0.00000000000E+00 -0.00000000000E+00 -0.64377240129E+02  0.64377240129E+02  0.00000000000E+00 0.  1.
         25    2    1    2    0    0 -0.11051453254E+03  0.80846418051E+02  0.16677995088E+03  0.24942310545E+03  0.12508688302E+03 0.  0.
         23    2    1    2    0    0  0.11051453254E+03 -0.80846418051E+02  0.27106395301E+03  0.31717527869E+03  0.91514400934E+02 0.  0.
          5    1    3    3  502    0 -0.83398603432E+02 -0.15216718009E+02  0.66026076691E+02  0.10753506760E+03  0.41800000000E+01 0. -1.
         -5    1    3    3    0  502 -0.27115929110E+02  0.96063136060E+02  0.10075387419E+03  0.14188803785E+03  0.41800000000E+01 0. -1.
        -11    1    4    4    0    0  0.12051352963E+03 -0.49609076721E+02  0.23263536850E+03  0.26665293172E+03  0.00000000000E+00 0. -1.
         11    1    4    4    0    0 -0.99989970917E+01 -0.31237341330E+02  0.38428584505E+02  0.50522346969E+02  0.00000000000E+00 0.  1.
</event>
<event>
 8    1  0.6627806E-009  0.8874847E+02  0.7561462E-02  0.1305911E+00
         -2   -1    0    0    0  501 -0.00000000000E+00  0.00000000000E+00  0.16208800204E+03  0.16208800204E+03  0.00000000000E+00 0.  1.
          2   -1    0    0  501    0  0.00000000000E+00 -0.00000000000E+00 -0.10000140923E+03  0.10000140923E+03  0.00000000000E+00 0. -1.
         25    2    1    2    0    0  0.55318381582E+02  0.81061641968E+01  0.73601089053E+02  0.15553593106E+03  0.12509385397E+03 0.  0.
         23    2    1    2    0    0 -0.55318381582E+02 -0.81061641968E+01 -0.11514496245E+02  0.10655348021E+03  0.89973480998E+02 0.  0.
          5    1    3    3  502    0 -0.25636076369E+02  0.11095913699E+02 -0.17756395854E+02  0.33362999058E+02  0.41800000000E+01 0. -1.
         -5    1    3    3    0  502  0.80954457951E+02 -0.29897495018E+01  0.91357484907E+02  0.12217293200E+03  0.41800000000E+01 0. -1.
        -11    1    4    4    0    0 -0.48617679353E+02 -0.21498649853E+02 -0.45143422938E+02  0.69740944400E+02  0.00000000000E+00 0. -1.
         11    1    4    4    0    0 -0.67007022290E+01  0.13392485656E+02  0.33628926694E+02  0.36812535813E+02  0.00000000000E+00 0.  1.
</event>
<event>
 8    1  0.6627806E-009  0.1509669E+03  0.7561462E-02  0.1199290E+00
         -2   -1    0    0    0  501 -0.00000000000E+00  0.00000000000E+00  0.27098870776E+02  0.27098870776E+02  0.00000000000E+00 0.  1.
          2   -1    0    0  501    0  0.00000000000E+00 -0.00000000000E+00 -0.98162143435E+03  0.98162143435E+03  0.00000000000E+00 0. -1.
         25    2    1    2    0    0 -0.70043628653E+02  0.52301672673E+02 -0.65227599123E+03  0.66989049135E+03  0.12509087409E+03 0.  0.
         23    2    1    2    0    0  0.70043628653E+02 -0.52301672673E+02 -0.30224657234E+03  0.33882981378E+03  0.12574210645E+03 0.  0.
          5    1    3    3  502    0 -0.81373193066E+02  0.83851401449E+02 -0.54585610308E+03  0.55823741522E+03  0.41800000000E+01 0. -1.
         -5    1    3    3    0  502  0.11329564414E+02 -0.31549728776E+02 -0.10641988815E+03  0.11165307613E+03  0.41800000000E+01 0. -1.
        -11    1    4    4    0    0 -0.20031683480E+01 -0.75512683628E+02 -0.17764587943E+03  0.19303946889E+03  0.00000000000E+00 0. -1.
         11    1    4    4    0    0  0.72046797001E+02  0.23211010956E+02 -0.12460069291E+03  0.14579034489E+03  0.00000000000E+00 0.  1.
</event>
<event>
 8    1  0.6627806E-009  0.1312787E+03  0.7561462E-02  0.1225571E+00
          3   -1    0    0  501    0  0.00000000000E+00  0.00000000000E+00  0.22172858333E+03  0.22172858333E+03  0.00000000000E+00 0. -1.
         -3   -1    0    0    0  501 -0.00000000000E+00 -0.00000000000E+00 -0.12104415773E+03  0.12104415773E+03  0.00000000000E+00 0.  1.
         25    2    1    2    0    0 -0.67701754472E+02  0.33759586936E+02  0.15454413900E+03  0.21273005053E+03  0.12508775411E+03 0.  0.
         23    2    1    2    0    0  0.67701754472E+02 -0.33759586936E+02 -0.53859713409E+02  0.13004269053E+03  0.91032935602E+02 0.  0.
          5    1    3    3  502    0 -0.28212515735E+02  0.79294036620E+02  0.74750608164E+02  0.11264375752E+03  0.41800000000E+01 0. -1.
         -5    1    3    3    0  502 -0.39489238737E+02 -0.45534449684E+02  0.79793530839E+02  0.10008629301E+03  0.41800000000E+01 0. -1.
        -11    1    4    4    0    0 -0.15014992512E+02 -0.31761615708E+02 -0.10720665611E+02  0.36731225186E+02  0.00000000000E+00 0. -1.
         11    1    4    4    0    0  0.82716746984E+02 -0.19979712284E+01 -0.43139047798E+02  0.93311465349E+02  0.00000000000E+00 0.  1.
</event>
<event>
 8    1  0.6627806E-009  0.1249885E+03  0.7561462E-02  0.1235087E+00
         -3   -1    0    0    0  501 -0.00000000000E+00  0.00000000000E+00  0.82124235741E+03  0.82124235741E+03  0.00000000000E+00 0.  1.
          3   -1    0    0  501    0  0.00000000000E+00 -0.00000000000E+00 -0.21547014680E+02  0.21547014680E+02  0.00000000000E+00 0. -1.
         25    2    1    2    0    0  0.26003914917E+01 -0.75789843654E+02  0.39864639187E+03  0.42463717420E+03  0.12508765537E+03 0.  0.
         23    2    1    2    0    0 -0.26003914917E+01  0.75789843654E+02  0.40104895086E+03  0.41815219788E+03  0.90885296806E+02 0.  0.
          5    1    3    3  502    0 -0.37565012032E+02 -0.84492265363E+02  0.18307936282E+03  0.20514774804E+03  0.41800000000E+01 0. -1.
         -5    1    3    3    0  502  0.40165403523E+02  0.87024217096E+01  0.21556702906E+03  0.21948942617E+03  0.41800000000E+01 0. -1.
        -11    1    4    4    0    0  0.22239936915E+02 -0.11720295979E+02  0.12494072859E+03  0.12744475584E+03  0.00000000000E+00 0.  1.
         11    1    4    4    0    0 -0.24840328406E+02  0.87510139633E+02  0.27610822227E+03  0.29070744204E+03  0.00000000000E+00 0. -1.
</event>
<event>
 8    1  0.6627806E-009  0.1904651E+03  0.7561462E-02  0.1158042E+00
          1   -1    0    0  501    0  0.00000000000E+00  0.00000000000E+00  0.92130240683E+03  0.92130240683E+03  0.00000000000E+00 0. -1.
         -1   -1    0    0    0  501 -0.00000000000E+00 -0.00000000000E+00 -0.51667360626E+02  0.51667360626E+02  0.00000000000E+00 0.  1.
         25    2    1    2    0    0 -0.67792686348E+02 -0.15324096331E+03  0.64381970673E+03  0.67692723918E+03  0.12509209093E+03 0.  0.
         23    2    1    2    0    0  0.67792686348E+02  0.15324096331E+03  0.22581533947E+03  0.29604252827E+03  0.92574131629E+02 0.  0.
          5    1    3    3  502    0 -0.38168974698E+02 -0.26307375774E+00  0.50306498583E+02  0.63286302127E+02  0.41800000000E+01 0.  1.
         -5    1    3    3    0  502 -0.29623711650E+02 -0.15297788955E+03  0.59351320815E+03  0.61364093705E+03  0.41800000000E+01 0.  1.
        -11    1    4    4    0    0 -0.19001729136E+02  0.19557430950E+02  0.13139189315E+02  0.30268748097E+02  0.00000000000E+00 0.  1.
         11    1    4    4    0    0  0.86794415483E+02  0.13368353236E+03  0.21267615016E+03  0.26577378018E+03  0.00000000000E+00 0. -1.
</event>
<event>
 7    1  0.6627806E-009  0.1594801E+03  0.7561462E-02  0.1189285E+00
         -2   -1    0    0    0  501 -0.00000000000E+00  0.00000000000E+00  0.12492411740E+03  0.12492411740E+03  0.00000000000E+00 0.  1.
          2   -1    0    0  501    0  0.00000000000E+00 -0.00000000000E+00 -0.21975031107E+03  0.21975031107E+03  0.00000000000E+00 0. -1.
         23    2    1    2    0    0  0.12224323577E+03 -0.45412708281E+02 -0.60934396783E+02  0.16086311271E+03  0.71820732074E+02 0.  0.
          5    1    1    2  502    0 -0.64083621515E+02 -0.41151757898E+02 -0.15467958817E+02  0.77826138762E+02  0.41800000000E+01 0. -1.
         -5    1    1    2    0  502 -0.58159614251E+02  0.86564466178E+02 -0.18423838064E+02  0.10598517700E+03  0.41800000000E+01 0. -1.
        -11    1    3    3    0    0  0.42143031435E+02 -0.39884900452E+02  0.31844980452E+01  0.58111800956E+02  0.00000000000E+00 0.  1.
         11    1    3    3    0    0  0.80100204331E+02 -0.55278078291E+01 -0.64118894828E+02  0.10275131175E+03  0.00000000000E+00 0. -1.
</event>
<event>
 8    1  0.6627806E-009  0.2417551E+03  0.7561462E-02  0.1118629E+00
         -2   -1    0    0    0  501 -0.00000000000E+00  0.00000000000E+00  0.30978389393E+02  0.30978389393E+02  0.00000000000E+00 0.  1.
          2   -1    0    0  501    0  0.00000000000E+00 -0.00000000000E+00 -0.20325569220E+04  0.20325569220E+04  0.00000000000E+00 0. -1.
         25    2    1    2    0    0  0.82510057653E+02 -0.20977640926E+03 -0.11054576254E+04  0.11351198667E+04  0.12508596532E+03 0.  0.
         23    2    1    2    0    0 -0.82510057653E+02  0.20977640926E+03 -0.89612090725E+03  0.92841544474E+03  0.90047243811E+02 0.  0.
          5    1    3    3  502    0  0.10193273269E+03 -0.10976056055E+03 -0.53359310726E+03  0.55423527419E+03  0.41800000000E+01 0.  1.
         -5    1    3    3    0  502 -0.19422675041E+02 -0.10001584871E+03 -0.57186451813E+03  0.58088459249E+03  0.41800000000E+01 0.  1.
        -11    1    4    4    0    0 -0.40829003770E+02  0.16717857984E+03 -0.76895259939E+03  0.78797448259E+03  0.00000000000E+00 0.  1.
         11    1    4    4    0    0 -0.41681053883E+02  0.42597829424E+02 -0.12716830786E+03  0.14044096215E+03  0.00000000000E+00 0. -1.
</event>
<event>
 8    1  0.6627806E-009  0.1162892E+03  0.7561462E-02  0.1249347E+00
         -3   -1    0    0    0  501 -0.00000000000E+00  0.00000000000E+00  0.32032582901E+03  0.32032582901E+03  0.00000000000E+00 0.  1.
          3   -1    0    0  501    0  0.00000000000E+00 -0.00000000000E+00 -0.61070139552E+02  0.61070139552E+02  0.00000000000E+00 0. -1.
         25    2    1    2    0    0  0.55605795469E+02  0.21135758114E+02  0.22900145284E+03  0.26763324757E+03  0.12508862875E+03 0.  0.
         23    2    1    2    0    0 -0.55605795469E+02 -0.21135758114E+02  0.30254236627E+02  0.11376272100E+03  0.92129870804E+02 0.  0.
          5    1    3    3  502    0  0.27333570887E+02 -0.51365652573E+02  0.12232723341E+03  0.13552482723E+03  0.41800000000E+01 0. -1.
         -5    1    3    3    0  502  0.28272224582E+02  0.72501410686E+02  0.10667421943E+03  0.13210842034E+03  0.41800000000E+01 0. -1.
        -11    1    4    4    0    0 -0.74606489275E+02 -0.20178050136E+02  0.45231546153E+02  0.89549844872E+02  0.00000000000E+00 0.  1.
         11    1    4    4    0    0  0.19000693806E+02 -0.95770797774E+00 -0.14977309526E+02  0.24212876127E+02  0.00000000000E+00 0. -1.
</event>
<event>
 8    1  0.6627806E-009  0.1414138E+03  0.7561462E-02  0.1211439E+00
         -1   -1    0    0    0  501 -0.00000000000E+00  0.00000000000E+00  0.55791713816E+02  0.55791713816E+02  0.00000000000E+00 0.  1.
          1   -1    0    0  501    0  0.00000000000E+00 -0.00000000000E+00 -0.37479705027E+03  0.37479705027E+03  0.00000000000E+00 0. -1.
         25    2    1    2    0    0 -0.14918718802E+02  0.81039229262E+02 -0.19707285768E+03  0.24753753042E+03  0.12508874004E+03 0.  0.
         23    2    1    2    0    0  0.14918718802E+02 -0.81039229262E+02 -0.12193247877E+03  0.18305123366E+03  0.10885908283E+03 0.  0.
          5    1    3    3  502    0 -0.12416000494E+01 -0.33356395329E+02 -0.56265579597E+02  0.65555156375E+02  0.41800000000E+01 0.  1.
         -5    1    3    3    0  502 -0.13677118752E+02  0.11439562459E+03 -0.14080727808E+03  0.18198237405E+03  0.41800000000E+01 0.  1.
        -11    1    4    4    0    0  0.60756102663E+02 -0.46291349204E+02 -0.86926759330E+02  0.11571713144E+03  0.00000000000E+00 0. -1.
         11    1    4    4    0    0 -0.45837383861E+02 -0.34747880058E+02 -0.35005719440E+02  0.67334102216E+02  0.00000000000E+00 0.  1.
</event>
<event>
 8    1  0.6627806E-009  0.1470701E+03  0.7561462E-02  0.1204120E+00
          2   -1    0    0  501    0  0.00000000000E+00  0.00000000000E+00  0.12113651645E+03  0.12113651645E+03  0.00000000000E+00 0.  1.
         -2   -1    0    0    0  501 -0.00000000000E+00 -0.00000000000E+00 -0.20405683709E+03  0.20405683709E+03  0.00000000000E+00 0. -1.
         25    2    1    2    0    0  0.45937226682E+02  0.10404003995E+03 -0.31236403474E+02  0.17192199063E+03  0.12508756633E+03 0.  0.
         23    2    1    2    0    0 -0.45937226682E+02 -0.10404003995E+03 -0.51683917165E+02  0.15327136291E+03  0.88804981208E+02 0.  0.
          5    1    3    3  502    0  0.75144797283E+02  0.89779897357E+02  0.11893842172E+02  0.11775443265E+03  0.41800000000E+01 0. -1.
         -5    1    3    3    0  502 -0.29207570601E+02  0.14260142594E+02 -0.43130245646E+02  0.54167557972E+02  0.41800000000E+01 0. -1.
        -11    1    4    4    0    0 -0.69871180095E+02 -0.52518201417E+02 -0.28874334577E+02  0.92053628311E+02  0.00000000000E+00 0. -1.
         11    1    4    4    0    0  0.23933953413E+02 -0.51521838534E+02 -0.22809582588E+02  0.61217734602E+02  0.00000000000E+00 0.  1.
</event>
<event>
 8    1  0.6627806E-009  0.8981653E+02  0.7561462E-02  0.1303297E+00
         -1   -1    0    0    0  501 -0.00000000000E+00  0.00000000000E+00  0.14934384230E+03  0.14934384230E+03  0.00000000000E+00 0.  1.
          1   -1    0    0  501    0  0.00000000000E+00 -0.00000000000E+00 -0.10291184090E+03  0.10291184090E+03  0.00000000000E+00 0. -1.
         25    2    1    2    0    0 -0.37760110635E+02  0.11895512556E+02  0.75157657096E+02  0.15121156495E+03  0.12509570248E+03 0.  0.
         23    2    1    2    0    0  0.37760110635E+02 -0.11895512556E+02 -0.28725655693E+02  0.10104411826E+03  0.88416182714E+02 0.  0.
          5    1    3    3  502    0 -0.59357156236E+02 -0.17693152981E+01  0.99319323738E+02  0.11579379492E+03  0.41800000000E+01 0.  1.
         -5    1    3    3    0  502  0.21597045602E+02  0.13664827854E+02 -0.24161666642E+02  0.35417770030E+02  0.41800000000E+01 0.  1.
        -11    1    4    4    0    0  0.39372373015E+02 -0.45723737028E+02 -0.29508580618E+02  0.67168446571E+02  0.00000000000E+00 0. -1.
         11    1    4    4    0    0 -0.16122623803E+01  0.33828224472E+02  0.78292492573E+00  0.33875671688E+02  0.00000000000E+00 0.  1.
</event>
<event>
 8    1  0.6627806E-009  0.1262615E+03  0.7561462E-02  0.1233111E+00
         -3   -1    0    0    0  501 -0.00000000000E+00  0.00000000000E+00  0.59993404537E+03  0.59993404537E+03  0.00000000000E+00 0.  1.
          3   -1    0    0  501    0  0.00000000000E+00 -0.00000000000E+00 -0.39926013441E+02  0.39926013441E+02  0.00000000000E+00 0. -1.
         25    2    1    2    0    0 -0.57202352380E+02  0.85097293363E+02  0.38735847473E+03  0.41977135770E+03  0.12509095226E+03 0.  0.
         23    2    1    2    0    0  0.57202352380E+02 -0.85097293363E+02  0.17264955720E+03  0.22008870112E+03  0.90097215851E+02 0.  0.
          5    1    3    3  502    0 -0.25142774726E+02  0.10069592563E+03  0.35986313714E+03  0.37455410615E+03  0.41800000000E+01 0. -1.
         -5    1    3    3    0  502 -0.32059577654E+02 -0.15598632271E+02  0.27495337593E+02  0.45217251546E+02  0.41800000000E+01 0. -1.
        -11    1    4    4    0    0  0.54328044565E+02 -0.39753102435E+02  0.36541069006E+02  0.76596966673E+02  0.00000000000E+00 0. -1.
         11    1    4    4    0    0  0.28743078153E+01 -0.45344190928E+02  0.13610848819E+03  0.14349173445E+03  0.00000000000E+00 0.  1.
</event>
<event>
 8    1  0.6627806E-009  0.1183386E+03  0.7561462E-02  0.1245863E+00
          1   -1    0    0  501    0  0.00000000000E+00  0.00000000000E+00  0.10013003239E+04  0.10013003239E+04  0.00000000000E+00 0. -1.
         -1   -1    0    0    0  501 -0.00000000000E+00 -0.00000000000E+00 -0.24617760906E+02  0.24617760906E+02  0.00000000000E+00 0.  1.
         25    2    1    2    0    0 -0.77525898535E+02 -0.66094488867E+02  0.36179032888E+03  0.39612978147E+03  0.12509122789E+03 0.  0.
         23    2    1    2    0    0  0.77525898535E+02  0.66094488867E+02  0.61489223408E+03  0.62978830330E+03  0.90344347035E+02 0.  0.
          5    1    3    3  502    0 -0.69788860832E+02 -0.64308411058E+02  0.37117957103E+03  0.38314201437E+03  0.41800000000E+01 0. -1.
         -5    1    3    3    0  502 -0.77370377025E+01 -0.17860778084E+01 -0.93892421419E+01  0.12987767104E+02  0.41800000000E+01 0. -1.
        -11    1    4    4    0    0  0.57507428834E+02 -0.60651551213E+01  0.33982118992E+03  0.34470615254E+03  0.00000000000E+00 0. -1.
         11    1    4    4    0    0  0.20018469701E+02  0.72159643988E+02  0.27507104416E+03  0.28508215076E+03  0.00000000000E+00 0.  1.
</event>
<event>
 8    1  0.6627806E-009  0.1143830E+03  0.7561462E-02  0.1252662E+00
          1   -1    0    0  501    0  0.00000000000E+00  0.00000000000E+00  0.15063988465E+03  0.15063988465E+03  0.00000000000E+00 0. -1.
         -1   -1    0    0    0  501 -0.00000000000E+00 -0.00000000000E+00 -0.12192245413E+03  0.12192245413E+03  0.00000000000E+00 0.  1.
         25    2    1    2    0    0  0.65017335962E+02 -0.37208969286E+02 -0.13341829228E+02  0.14641210820E+03  0.12508692837E+03 0.  0.
         23    2    1    2    0    0 -0.65017335962E+02  0.37208969286E+02  0.42059259744E+02  0.12615023059E+03  0.92374985663E+02 0.  0.
          5    1    3    3  502    0  0.71508138068E+02  0.22387677280E+00  0.39032295613E+02  0.81574851710E+02  0.41800000000E+01 0. -1.
         -5    1    3    3    0  502 -0.64908021059E+01 -0.37432846059E+02 -0.52374124841E+02  0.64837256488E+02  0.41800000000E+01 0. -1.
        -11    1    4    4    0    0  0.20331594363E+02 -0.85694703661E+01  0.69633940015E+01  0.23136516759E+02  0.00000000000E+00 0.  1.
         11    1    4    4    0    0 -0.85348930325E+02  0.45778439653E+02  0.35095865743E+02  0.10301371383E+03  0.00000000000E+00 0. -1.
</event>
<event>
 8    1  0.6627806E-009  0.8294871E+02  0.7561462E-02  0.1320886E+00
         -4   -1    0    0    0  501 -0.00000000000E+00  0.00000000000E+00  0.21576508008E+03  0.21576508008E+03  0.00000000000E+00 0.  1.
          4   -1    0    0  501    0  0.00000000000E+00 -0.00000000000E+00 -0.68205241019E+02  0.68205241019E+02  0.00000000000E+00 0. -1.
         25    2    1    2    0    0  0.51292985212E+01  0.43699795311E+02  0.12457553937E+03  0.18193997219E+03  0.12508839538E+03 0.  0.
         23    2    1    2    0    0 -0.51292985212E+01 -0.43699795311E+02  0.22984299696E+02  0.10203034891E+03  0.89139958784E+02 0.  0.
          5    1    3    3  502    0 -0.27000525134E+02  0.29383099301E+02 -0.11169855330E+02  0.41648924958E+02  0.41800000000E+01 0. -1.
         -5    1    3    3    0  502  0.32129823656E+02  0.14316696011E+02  0.13574539470E+03  0.14029104724E+03  0.41800000000E+01 0. -1.
        -11    1    4    4    0    0  0.28009641971E+02  0.78320084543E+01  0.28238926611E+02  0.40537851151E+02  0.00000000000E+00 0.  1.
         11    1    4    4    0    0 -0.33138940492E+02 -0.51531803766E+02 -0.52546269155E+01  0.61492497756E+02  0.00000000000E+00 0. -1.
</event>
<event>
 8    1  0.6627806E-009  0.1733217E+03  0.7561462E-02  0.1174428E+00
          1   -1    0    0  501    0  0.00000000000E+00  0.00000000000E+00  0.29573478437E+03  0.29573478437E+03  0.00000000000E+00 0. -1.
         -1   -1    0    0    0  501 -0.00000000000E+00 -0.00000000000E+00 -0.12415459492E+03  0.12415459492E+03  0.00000000000E+00 0.  1.
         25    2    1    2    0    0  0.12417521288E+02  0.15223486838E+03  0.47290058553E+02  0.20301147483E+03  0.12509060432E+03 0.  0.
         23    2    1    2    0    0 -0.12417521288E+02 -0.15223486838E+03  0.12429013090E+03  0.21687790447E+03  0.90875402724E+02 0.  0.
          5    1    3    3  502    0 -0.62603294111E+01  0.15037340342E+03 -0.14992506319E+01  0.15056916129E+03  0.41800000000E+01 0.  1.
         -5    1    3    3    0  502  0.18677850699E+02  0.18614649666E+01  0.48789309185E+02  0.52442313539E+02  0.41800000000E+01 0.  1.
        -11    1    4    4    0    0  0.36473432185E+02 -0.38397301373E+02  0.27590618115E+02  0.59715209253E+02  0.00000000000E+00 0.  1.
         11    1    4    4    0    0 -0.48890953473E+02 -0.11383756701E+03  0.96699512785E+02  0.15716269521E+03  0.00000000000E+00 0. -1.
</event>
<event>
 8    1  0.6627806E-009  0.7802452E+02  0.7561462E-02  0.1334753E+00
          2   -1    0    0  501    0  0.00000000000E+00  0.00000000000E+00  0.12676938766E+04  0.12676938766E+04  0.00000000000E+00 0. -1.
         -2   -1    0    0    0  501 -0.00000000000E+00 -0.00000000000E+00 -0.13640000997E+02  0.13640000997E+02  0.00000000000E+00 0.  1.
         25    2    1    2    0    0 -0.21439929119E+01 -0.47697320036E+02  0.96734350993E+03  0.97656530440E+03  0.12508675597E+03 0.  0.
         23    2    1    2    0    0  0.21439929119E+01  0.47697320036E+02  0.28671036569E+03  0.30476857321E+03  0.91659251459E+02 0.  0.
          5    1    3    3  502    0  0.26513596190E+02 -0.97096700195E+00  0.43746052542E+02  0.51333255038E+02  0.41800000000E+01 0.  1.
         -5    1    3    3    0  502 -0.28657589102E+02 -0.46726353034E+02  0.92359745739E+03  0.92523204936E+03  0.41800000000E+01 0.  1.
        -11    1    4    4    0    0 -0.21727400298E+02  0.45280485180E+02  0.27205799479E+03  0.27665493813E+03  0.00000000000E+00 0. -1.
         11    1    4    4    0    0  0.23871393210E+02  0.24168348563E+01  0.14652370901E+02  0.28113635082E+02  0.00000000000E+00 0.  1.
</event>
<event>
 8    1  0.6627806E-009  0.1012151E+03  0.7561462E-02  0.1277761E+00
         -2   -1    0    0    0  501 -0.00000000000E+00  0.00000000000E+00  0.40245945600E+02  0.40245945600E+02  0.00000000000E+00 0. -1.
          2   -1    0    0  501    0  0.00000000000E+00 -0.00000000000E+00 -0.35250507279E+03  0.35250507279E+03  0.00000000000E+00 0.  1.
         25    2    1    2    0    0 -0.45690927969E+02 -0.18286407330E+02 -0.17004778583E+03  0.21676069081E+03  0.12508754545E+03 0.  0.
         23    2    1    2    0    0  0.45690927969E+02  0.18286407330E+02 -0.14221134136E+03  0.17599032757E+03  0.91249527101E+02 0.  0.
          5    1    3    3  502    0  0.39156440685E+01 -0.55548452919E+02 -0.13331549490E+03  0.14453877151E+03  0.41800000000E+01 0.  1.
         -5    1    3    3    0  502 -0.49606572038E+02  0.37262045589E+02 -0.36732290929E+02  0.72221919303E+02  0.41800000000E+01 0.  1.
        -11    1    4    4    0    0  0.34912713267E+01 -0.24241805924E+02 -0.99352072785E+02  0.10232638221E+03  0.00000000000E+00 0.  1.
         11    1    4    4    0    0  0.42199656643E+02  0.42528213254E+02 -0.42859268573E+02  0.73663945360E+02  0.00000000000E+00 0. -1.
</event>
<event>
 8    1  0.6627806E-009  0.1393572E+03  0.7561462E-02  0.1214196E+00
         -2   -1    0    0    0  501 -0.00000000000E+00  0.00000000000E+00  0.11183516577E+03  0.11183516577E+03  0.00000000000E+00 0.  1.
          2   -1    0    0  501    0  0.00000000000E+00 -0.00000000000E+00 -0.18306065618E+03  0.18306065618E+03  0.00000000000E+00 0. -1.
         25    2    1    2    0    0  0.90272791130E+02 -0.21580278984E+02 -0.13486922271E+02  0.15634445688E+03  0.12508719705E+03 0.  0.
         23    2    1    2    0    0 -0.90272791130E+02  0.21580278984E+02 -0.57738568145E+02  0.13855136507E+03  0.85134324754E+02 0.  0.
          5    1    3    3  502    0  0.39305553299E+02 -0.72894839832E+02 -0.12742725851E+02  0.83895373272E+02  0.41800000000E+01 0.  1.
         -5    1    3    3    0  502  0.50967237831E+02  0.51314560848E+02 -0.74419641920E+00  0.72449083606E+02  0.41800000000E+01 0.  1.
        -11    1    4    4    0    0 -0.63064529463E+01 -0.26056713355E+02 -0.15543877818E+01  0.26854045896E+02  0.00000000000E+00 0. -1.
         11    1    4    4    0    0 -0.83966338184E+02  0.47636992339E+02 -0.56184180363E+02  0.11169731917E+03  0.00000000000E+00 0.  1.
</event>
<event>
 8    1  0.6627806E-009  0.7180677E+02  0.7561462E-02  0.1354055E+00
         -1   -1    0    0    0  501 -0.00000000000E+00  0.00000000000E+00  0.18306864752E+03  0.18306864752E+03  0.00000000000E+00 0.  1.
          1   -1    0    0  501    0  0.00000000000E+00 -0.00000000000E+00 -0.69509738572E+02  0.69509738572E+02  0.00000000000E+00 0. -1.
         25    2    1    2    0    0 -0.23432010964E+02 -0.85322397555E+01  0.51762082452E+02  0.13765901489E+03  0.12509529547E+03 0.  0.
         23    2    1    2    0    0  0.23432010964E+02  0.85322397555E+01  0.61796826494E+02  0.11491937120E+03  0.93625615395E+02 0.  0.
          5    1    3    3  502    0  0.95336788178E+01 -0.34821463078E+02  0.79226633850E+02  0.87165114775E+02  0.41800000000E+01 0.  1.
         -5    1    3    3    0  502 -0.32965689782E+02  0.26289223322E+02 -0.27464551398E+02  0.50493900118E+02  0.41800000000E+01 0.  1.
        -11    1    4    4    0    0 -0.19552170405E+02 -0.43395335660E+01 -0.15647281769E+02  0.25415671265E+02  0.00000000000E+00 0. -1.
         11    1    4    4    0    0  0.42984181369E+02  0.12871773321E+02  0.77444108263E+02  0.89503699930E+02  0.00000000000E+00 0.  1.
</event>
<event>
 8    1  0.6627806E-009  0.1276014E+03  0.7561462E-02  0.1231059E+00
         -1   -1    0    0    0  501 -0.00000000000E+00  0.00000000000E+00  0.13652909994E+03  0.13652909994E+03  0.00000000000E+00 0.  1.
          1   -1    0    0  501    0  0.00000000000E+00 -0.00000000000E+00 -0.14649951320E+03  0.14649951320E+03  0.00000000000E+00 0. -1.
         25    2    1    2    0    0  0.16452349955E+02 -0.86479698410E+02 -0.25353176440E+02  0.15504931623E+03  0.12509232132E+03 0.  0.
         23    2    1    2    0    0 -0.16452349955E+02  0.86479698410E+02  0.15382763183E+02  0.12797929691E+03  0.91611423837E+02 0.  0.
          5    1    3    3  502    0 -0.44017995230E+02 -0.63579331002E+02  0.14766571031E+02  0.78838057147E+02  0.41800000000E+01 0. -1.
         -5    1    3    3    0  502  0.60470345186E+02 -0.22900367408E+02 -0.40119747471E+02  0.76211259086E+02  0.41800000000E+01 0. -1.
        -11    1    4    4    0    0  0.24714743802E+02  0.11137829675E+02 -0.21438509114E+02  0.34561242514E+02  0.00000000000E+00 0. -1.
         11    1    4    4    0    0 -0.41167093757E+02  0.75341868735E+02  0.36821272297E+02  0.93418054393E+02  0.00000000000E+00 0.  1.
</event>
<event>
 8    1  0.6627806E-009  0.1348501E+03  0.7561462E-02  0.1220432E+00
         -2   -1    0    0    0  501 -0.00000000000E+00  0.00000000000E+00  0.64722513121E+02  0.64722513121E+02  0.00000000000E+00 0.  1.
          2   -1    0    0  501    0  0.00000000000E+00 -0.00000000000E+00 -0.48284713301E+03  0.48284713301E+03  0.00000000000E+00 0. -1.
         25    2    1    2    0    0 -0.11506776627E+03  0.27666089069E+02 -0.33315166965E+03  0.37500756027E+03  0.12503852186E+03 0.  0.
         23    2    1    2    0    0  0.11506776627E+03 -0.27666089069E+02 -0.84972950240E+02  0.17256208586E+03  0.92473065739E+02 0.  0.
          5    1    3    3  502    0 -0.45563568520E+02  0.25779864361E+02 -0.23354943572E+02  0.57476655888E+02  0.41800000000E+01 0. -1.
         -5    1    3    3    0  502 -0.69504197746E+02  0.18862247076E+01 -0.30979672608E+03  0.31753090438E+03  0.41800000000E+01 0. -1.
        -11    1    4    4    0    0  0.41018477673E+02  0.32326297323E+02 -0.15018983409E+02  0.54342201573E+02  0.00000000000E+00 0.  1.
         11    1    4    4    0    0  0.74049288593E+02 -0.59992386392E+02 -0.69953966831E+02  0.11821988429E+03  0.00000000000E+00 0. -1.
</event>
<event>
 8    1  0.6627806E-009  0.1066495E+03  0.7561462E-02  0.1266903E+00
         -1   -1    0    0    0  501 -0.00000000000E+00  0.00000000000E+00  0.12507119098E+03  0.12507119098E+03  0.00000000000E+00 0.  1.
          1   -1    0    0  501    0  0.00000000000E+00 -0.00000000000E+00 -0.17386627898E+03  0.17386627898E+03  0.00000000000E+00 0. -1.
         25    2    1    2    0    0  0.39526991636E+02  0.60741179312E+02 -0.96553932356E+02  0.17384453516E+03  0.12508951442E+03 0.  0.
         23    2    1    2    0    0 -0.39526991636E+02 -0.60741179312E+02  0.47758844365E+02  0.12509293480E+03  0.90085854554E+02 0.  0.
          5    1    3    3  502    0 -0.22612783432E+00  0.70332071198E+02 -0.10996945020E+03  0.13060399592E+03  0.41800000000E+01 0.  1.
         -5    1    3    3    0  502  0.39753119471E+02 -0.95908918864E+01  0.13415517840E+02  0.43240539240E+02  0.41800000000E+01 0.  1.
        -11    1    4    4    0    0  0.54924978902E+01  0.13688838327E+02 -0.12450410895E+02  0.19301931491E+02  0.00000000000E+00 0. -1.
         11    1    4    4    0    0 -0.45019489527E+02 -0.74430017639E+02  0.60209255260E+02  0.10579100331E+03  0.00000000000E+00 0.  1.
</event>
<event>
 8    1  0.6627806E-009  0.1786984E+03  0.7561462E-02  0.1169069E+00
         -1   -1    0    0    0  501 -0.00000000000E+00  0.00000000000E+00  0.19062414900E+03  0.19062414900E+03  0.00000000000E+00 0.  1.
          1   -1    0    0  501    0  0.00000000000E+00 -0.00000000000E+00 -0.17367120586E+03  0.17367120586E+03  0.00000000000E+00 0. -1.
         25    2    1    2    0    0  0.54727674065E+02 -0.13138040447E+03  0.39918082821E+02  0.19364088597E+03  0.12508960947E+03 0.  0.
         23    2    1    2    0    0 -0.54727674065E+02  0.13138040447E+03 -0.22965139680E+02  0.17065446888E+03  0.91321526051E+02 0.  0.
          5    1    3    3  502    0 -0.15625706535E+02  0.17506257910E+02 -0.11879412731E+01  0.23864521265E+02  0.41800000000E+01 0. -1.
         -5    1    3    3    0  502  0.70353380600E+02 -0.14888666238E+03  0.41106024094E+02  0.16977636471E+03  0.41800000000E+01 0. -1.
        -11    1    4    4    0    0 -0.68205268455E+02  0.45693632534E+02 -0.63921170052E+01  0.82345162936E+02  0.00000000000E+00 0.  1.
         11    1    4    4    0    0  0.13477594390E+02  0.85686771937E+02 -0.16573022675E+02  0.88309305943E+02  0.00000000000E+00 0. -1.
</event>
<event>
 8    1  0.6627806E-009  0.1353003E+03  0.7561462E-02  0.1219796E+00
          1   -1    0    0  501    0  0.00000000000E+00  0.00000000000E+00  0.15704626503E+03  0.15704626503E+03  0.00000000000E+00 0. -1.
         -1   -1    0    0    0  501 -0.00000000000E+00 -0.00000000000E+00 -0.13620960902E+03  0.13620960902E+03  0.00000000000E+00 0.  1.
         25    2    1    2    0    0  0.76885854701E+02 -0.40971478549E+02 -0.33856733124E+02  0.15615047229E+03  0.12508634982E+03 0.  0.
         23    2    1    2    0    0 -0.76885854701E+02  0.40971478549E+02  0.54693389137E+02  0.13710540176E+03  0.90644512624E+02 0.  0.
          5    1    3    3  502    0  0.32263139619E+02  0.41340399651E+02  0.85220587685E+01  0.53291994775E+02  0.41800000000E+01 0. -1.
         -5    1    3    3    0  502  0.44622715081E+02 -0.82311878200E+02 -0.42378791892E+02  0.10285847751E+03  0.41800000000E+01 0. -1.
        -11    1    4    4    0    0  0.69842920683E+01  0.39784957621E+02  0.82495726902E+01  0.41227158988E+02  0.00000000000E+00 0.  1.
         11    1    4    4    0    0 -0.83870146769E+02  0.11865209277E+01  0.46443816447E+02  0.95878242772E+02  0.00000000000E+00 0. -1.
</event>
<event>
 8    1  0.6627806E-009  0.1592058E+03  0.7561462E-02  0.1189596E+00
         -1   -1    0    0    0  501 -0.00000000000E+00  0.00000000000E+00  0.18013106568E+02  0.18013106568E+02  0.00000000000E+00 0.  1.
          1   -1    0    0  501    0  0.00000000000E+00 -0.00000000000E+00 -0.21309204833E+04  0.21309204833E+04  0.00000000000E+00 0. -1.
         25    2    1    2    0    0 -0.12582997927E+03  0.17104705495E+02 -0.16598249103E+04  0.16693686335E+04  0.12508855662E+03 0.  0.
         23    2    1    2    0    0  0.12582997927E+03 -0.17104705495E+02 -0.45308246643E+03  0.47956495637E+03  0.92590881637E+02 0.  0.
          5    1    3    3  502    0 -0.13983178049E+03 -0.15639111203E+01 -0.15776859766E+04  0.15838768531E+04  0.41800000000E+01 0.  1.
         -5    1    3    3    0  502  0.14001801215E+02  0.18668616616E+02 -0.82138933692E+02  0.85491780375E+02  0.41800000000E+01 0.  1.
        -11    1    4    4    0    0  0.34421118716E+02 -0.47331642193E+02 -0.13277423736E+03  0.14510029591E+03  0.00000000000E+00 0. -1.
         11    1    4    4    0    0  0.91408860557E+02  0.30226936698E+02 -0.32030822906E+03  0.33446466046E+03  0.00000000000E+00 0.  1.
</event>
<event>
 8    1  0.6627806E-009  0.1665229E+03  0.7561462E-02  0.1181523E+00
         -4   -1    0    0    0  501 -0.00000000000E+00  0.00000000000E+00  0.96754713167E+02  0.96754713167E+02  0.00000000000E+00 0.  1.
          4   -1    0    0  501    0  0.00000000000E+00 -0.00000000000E+00 -0.35939520233E+03  0.35939520233E+03  0.00000000000E+00 0. -1.
         25    2    1    2    0    0  0.11604183081E+03  0.91353102111E+02 -0.96034983509E+02  0.21605810978E+03  0.12508914013E+03 0.  0.
         23    2    1    2    0    0 -0.11604183081E+03 -0.91353102111E+02 -0.16660550565E+03  0.24009180572E+03  0.89864258171E+02 0.  0.
          5    1    3    3  502    0  0.13532116432E+03  0.79391423117E+02 -0.50259822163E+02  0.16479786923E+03  0.41800000000E+01 0.  1.
         -5    1    3    3    0  502 -0.19279333507E+02  0.11961678994E+02 -0.45775161347E+02  0.51260240549E+02  0.41800000000E+01 0.  1.
        -11    1    4    4    0    0 -0.55260778126E+02 -0.18779284440E+02 -0.13214599983E+02  0.59841797900E+02  0.00000000000E+00 0.  1.
         11    1    4    4    0    0 -0.60781052687E+02 -0.72573817671E+02 -0.15339090567E+03  0.18025000782E+03  0.00000000000E+00 0. -1.
</event>
<event>
 8    1  0.6627806E-009  0.8468246E+02  0.7561462E-02  0.1316265E+00
          2   -1    0    0  501    0  0.00000000000E+00  0.00000000000E+00  0.73148256156E+03  0.73148256156E+03  0.00000000000E+00 0. -1.
         -2   -1    0    0    0  501 -0.00000000000E+00 -0.00000000000E+00 -0.22672346470E+02  0.22672346470E+02  0.00000000000E+00 0.  1.
         25    2    1    2    0    0  0.24690542372E+02  0.39561561082E+02  0.53880757710E+03  0.55509933916E+03  0.12508769402E+03 0.  0.
         23    2    1    2    0    0 -0.24690542372E+02 -0.39561561082E+02  0.17000263799E+03  0.19905556887E+03  0.92452596376E+02 0.  0.
          5    1    3    3  502    0 -0.10368190563E+02  0.35400736663E+02  0.50393232797E+03  0.50529790729E+03  0.41800000000E+01 0. -1.
         -5    1    3    3    0  502  0.35058732935E+02  0.41608244188E+01  0.34875249128E+02  0.49801431874E+02  0.41800000000E+01 0. -1.
        -11    1    4    4    0    0  0.13657545162E+02 -0.54009963960E+02  0.13154975755E+03  0.14285987350E+03  0.00000000000E+00 0. -1.
         11    1    4    4    0    0 -0.38348087534E+02  0.14448402878E+02  0.38452880438E+02  0.56195695362E+02  0.00000000000E+00 0.  1.
</event>
<event>
 8    1  0.6627806E-009  0.1263708E+03  0.7561462E-02  0.1232942E+00
         -2   -1    0    0    0  501 -0.00000000000E+00  0.00000000000E+00  0.12106097033E+03  0.12106097033E+03  0.00000000000E+00 0.  1.
          2   -1    0    0  501    0  0.00000000000E+00 -0.00000000000E+00 -0.16752586355E+03  0.16752586355E+03  0.00000000000E+00 0. -1.
         25    2    1    2    0    0  0.51681575656E+02 -0.75145476866E+02  0.21199621149E+01  0.15482090399E+03  0.12508872898E+03 0.  0.
         23    2    1    2    0    0 -0.51681575656E+02  0.75145476866E+02 -0.48584855333E+02  0.13376592989E+03  0.84941202468E+02 0.  0.
          5    1    3    3  502    0 -0.26919892788E+02 -0.80981109187E+01 -0.34889068675E+02  0.44999772679E+02  0.41800000000E+01 0. -1.
         -5    1    3    3    0  502  0.78601468444E+02 -0.67047365948E+02  0.37009030790E+02  0.10982113131E+03  0.41800000000E+01 0. -1.
        -11    1    4    4    0    0 -0.10434756965E+02 -0.17011783966E+02 -0.21276448309E+02  0.29171427789E+02  0.00000000000E+00 0. -1.
         11    1    4    4    0    0 -0.41246818691E+02  0.92157260832E+02 -0.27308407024E+02  0.10459450210E+03  0.00000000000E+00 0.  1.
</event>
<event>
 8    1  0.6627806E-009  0.9723296E+02  0.7561462E-02  0.1286225E+00
          2   -1    0    0  501    0  0.00000000000E+00  0.00000000000E+00  0.55285935224E+03  0.55285935224E+03  0.00000000000E+00 0.  1.
         -2   -1    0    0    0  501 -0.00000000000E+00 -0.00000000000E+00 -0.30443175083E+02  0.30443175083E+02  0.00000000000E+00 0. -1.
         25    2    1    2    0    0 -0.67611129080E+02 -0.22237309947E+02  0.27868301780E+03  0.31365186806E+03  0.12508999640E+03 0.  0.
         23    2    1    2    0    0  0.67611129080E+02  0.22237309947E+02  0.24373315935E+03  0.26965065926E+03  0.90773687495E+02 0.  0.
          5    1    3    3  502    0 -0.53910477439E+02  0.12570419447E+01  0.26967959777E+02  0.60437264885E+02  0.41800000000E+01 0. -1.
         -5    1    3    3    0  502 -0.13700651641E+02 -0.23494351892E+02  0.25171505802E+03  0.25321460317E+03  0.41800000000E+01 0. -1.
        -11    1    4    4    0    0  0.17501803770E+02 -0.33570822752E+02  0.10983621807E+03  0.11617791561E+03  0.00000000000E+00 0. -1.
         11    1    4    4    0    0  0.50109325310E+02  0.55808132700E+02  0.13389694129E+03  0.15347274365E+03  0.00000000000E+00 0.  1.
</event>
<event>
 8    1  0.6627806E-009  0.1412666E+03  0.7561462E-02  0.1211635E+00
         -2   -1    0    0    0  501 -0.00000000000E+00  0.00000000000E+00  0.57812327449E+02  0.57812327449E+02  0.00000000000E+00 0. -1.
          2   -1    0    0  501    0  0.00000000000E+00 -0.00000000000E+00 -0.45244697145E+03  0.45244697145E+03  0.00000000000E+00 0.  1.
         25    2    1    2    0    0  0.15617562578E+02  0.11261768450E+03 -0.27049946358E+03  0.31897520948E+03  0.12509425782E+03 0.  0.
         23    2    1    2    0    0 -0.15617562578E+02 -0.11261768450E+03 -0.12413518042E+03  0.19128408942E+03  0.90848273111E+02 0.  0.
          5    1    3    3  502    0  0.61832549922E+02  0.21719465706E+02 -0.12575061731E+03  0.14186504000E+03  0.41800000000E+01 0. -1.
         -5    1    3    3    0  502 -0.46214987344E+02  0.90898218790E+02 -0.14474884628E+03  0.17711016948E+03  0.41800000000E+01 0. -1.
        -11    1    4    4    0    0  0.33297869284E+01 -0.19117575512E+02 -0.86628613565E+02  0.88775480076E+02  0.00000000000E+00 0.  1.
         11    1    4    4    0    0 -0.18947349506E+02 -0.93500108984E+02 -0.37506566852E+02  0.10250860935E+03  0.00000000000E+00 0. -1.
</event>
<event>
 8    1  0.6627806E-009  0.1619667E+03  0.7561462E-02  0.1186494E+00
          1   -1    0    0  501    0  0.00000000000E+00  0.00000000000E+00  0.11252396271E+03  0.11252396271E+03  0.00000000000E+00 0. -1.
         -1   -1    0    0    0  501 -0.00000000000E+00 -0.00000000000E+00 -0.31045900647E+03  0.31045900647E+03  0.00000000000E+00 0.  1.
         25    2    1    2    0    0 -0.66857849566E+02 -0.12437206095E+03 -0.34593162381E+02  0.19179456061E+03  0.12510029977E+03 0.  0.
         23    2    1    2    0    0  0.66857849566E+02  0.12437206095E+03 -0.16334188138E+03  0.23118840857E+03  0.82638540963E+02 0.  0.
          5    1    3    3  502    0 -0.85455333454E+02 -0.71992145092E+02 -0.63933268884E+02  0.12880379746E+03  0.41800000000E+01 0.  1.
         -5    1    3    3    0  502  0.18597483888E+02 -0.52379915856E+02  0.29340106504E+02  0.62990763146E+02  0.41800000000E+01 0.  1.
        -11    1    4    4    0    0  0.58821229986E+02  0.13248548680E+03 -0.12574760348E+03  0.19189789236E+03  0.00000000000E+00 0. -1.
         11    1    4    4    0    0  0.80366195797E+01 -0.81134258561E+01 -0.37594277904E+02  0.39290516216E+02  0.00000000000E+00 0.  1.
</event>
<event>
 8    1  0.6627806E-009  0.1009299E+03  0.7561462E-02  0.1278353E+00
         -2   -1    0    0    0  501 -0.00000000000E+00  0.00000000000E+00  0.36405692328E+02  0.36405692328E+02  0.00000000000E+00 0.  1.
          2   -1    0    0  501    0  0.00000000000E+00 -0.00000000000E+00 -0.44695913754E+03  0.44695913754E+03  0.00000000000E+00 0. -1.
         25    2    1    2    0    0  0.47618151832E+02 -0.22181133807E+02 -0.18537673755E+03  0.22971792839E+03  0.12508517385E+03 0.  0.
         23    2    1    2    0    0 -0.47618151832E+02  0.22181133807E+02 -0.22517670766E+03  0.25364690147E+03  0.10427228719E+03 0.  0.
          5    1    3    3  502    0  0.35176812456E+02 -0.60854554158E+02 -0.17341016344E+03  0.18716100577E+03  0.41800000000E+01 0. -1.
         -5    1    3    3    0  502  0.12441339377E+02  0.38673420350E+02 -0.11966574112E+02  0.42556922622E+02  0.41800000000E+01 0. -1.
        -11    1    4    4    0    0 -0.54960302133E+02 -0.11485664018E+02 -0.50222499392E+02  0.75331631694E+02  0.00000000000E+00 0.  1.
         11    1    4    4    0    0  0.73421503007E+01  0.33666797826E+02 -0.17495420827E+03  0.17831526978E+03  0.00000000000E+00 0. -1.
</event>
<event>
 8    1  0.6627806E-009  0.1753867E+03  0.7561462E-02  0.1172344E+00
         -1   -1    0    0    0  501 -0.00000000000E+00  0.00000000000E+00  0.12953796906E+03  0.12953796906E+03  0.00000000000E+00 0.  1.
          1   -1    0    0  501    0  0.00000000000E+00 -0.00000000000E+00 -0.43558184189E+03  0.43558184189E+03  0.00000000000E+00 0. -1.
         25    2    1    2    0    0  0.11782799394E+03  0.94473784870E+02 -0.33017492293E+03  0.38402059643E+03  0.12509039358E+03 0.  0.
         23    2    1    2    0    0 -0.11782799394E+03 -0.94473784870E+02  0.24131050101E+02  0.18109921452E+03  0.96983945784E+02 0.  0.
          5    1    3    3  502    0  0.78394838771E+00  0.48662106301E+02 -0.18783836488E+03  0.19408590595E+03  0.41800000000E+01 0. -1.
         -5    1    3    3    0  502  0.11704404555E+03  0.45811678569E+02 -0.14233655805E+03  0.18993469048E+03  0.41800000000E+01 0. -1.
        -11    1    4    4    0    0 -0.10836747243E+02 -0.64012203901E+02 -0.77345116300E+01  0.65382107715E+02  0.00000000000E+00 0.  1.
         11    1    4    4    0    0 -0.10699124669E+03 -0.30461580968E+02  0.31865561731E+02  0.11571710681E+03  0.00000000000E+00 0. -1.
</event>
<event>
 8    1  0.6627806E-009  0.1627298E+03  0.7561462E-02  0.1185649E+00
         -4   -1    0    0    0  501 -0.00000000000E+00  0.00000000000E+00  0.19011431146E+03  0.19011431146E+03  0.00000000000E+00 0.  1.
          4   -1    0    0  501    0  0.00000000000E+00 -0.00000000000E+00 -0.15089699863E+03  0.15089699863E+03  0.00000000000E+00 0. -1.
         25    2    1    2    0    0 -0.94855075996E+02 -0.87351196021E+02  0.24659214832E+02  0.18133495775E+03  0.12508626278E+03 0.  0.
         23    2    1    2    0    0  0.94855075996E+02  0.87351196021E+02  0.14558097995E+02  0.15967635234E+03  0.93042368797E+02 0.  0.
          5    1    3    3  502    0 -0.10949784014E+03 -0.21323036877E+02  0.10642918026E+02  0.11213916801E+03  0.41800000000E+01 0.  1.
         -5    1    3    3    0  502  0.14642764146E+02 -0.66028159143E+02  0.14016296806E+02  0.69195789741E+02  0.41800000000E+01 0.  1.
        -11    1    4    4    0    0  0.24071900873E+02  0.68802670767E+02  0.38821282901E+02  0.82585446190E+02  0.00000000000E+00 0.  1.
         11    1    4    4    0    0  0.70783175123E+02  0.18548525254E+02 -0.24263184905E+02  0.77090906152E+02  0.00000000000E+00 0. -1.
</event>
<event>
 8    1  0.6627806E-009  0.1356719E+03  0.7561462E-02  0.1219274E+00
          3   -1    0    0  501    0  0.00000000000E+00  0.00000000000E+00  0.76289006167E+03  0.76289006167E+03  0.00000000000E+00 0.  1.
         -3   -1    0    0    0  501 -0.00000000000E+00 -0.00000000000E+00 -0.26624769951E+02  0.26624769951E+02  0.00000000000E+00 0. -1.
         25    2    1    2    0    0 -0.10746011975E+02  0.83283860794E+02  0.29710701254E+03  0.33312557485E+03  0.12509353892E+03 0.  0.
         23    2    1    2    0    0  0.10746011975E+02 -0.83283860794E+02  0.43915827918E+03  0.45638925676E+03  0.91539506643E+02 0.  0.
          5    1    3    3  502    0 -0.65264729953E+02  0.64748243679E+02  0.19988173430E+03  0.22004999464E+03  0.41800000000E+01 0.  1.
         -5    1    3    3    0  502  0.54518717978E+02  0.18535617115E+02  0.97225278236E+02  0.11307558021E+03  0.41800000000E+01 0.  1.
        -11    1    4    4    0    0  0.44090407635E+02 -0.75354771073E+02  0.26899124182E+03  0.28280486867E+03  0.00000000000E+00 0.  1.
         11    1    4    4    0    0 -0.33344395660E+02 -0.79290897212E+01  0.17016703736E+03  0.17358438810E+03  0.00000000000E+00 0. -1.
</event>
<event>
 8    1  0.6627806E-009  0.1302235E+03  0.7561462E-02  0.1227124E+00
          2   -1    0    0  501    0  0.00000000000E+00  0.00000000000E+00  0.31503075370E+03  0.31503075370E+03  0.00000000000E+00 0.  1.
         -2   -1    0    0    0  501 -0.00000000000E+00 -0.00000000000E+00 -0.73544667332E+02  0.73544667332E+02  0.00000000000E+00 0. -1.
         25    2    1    2    0    0 -0.63205165210E+02  0.85841500837E+02  0.12548998125E+03  0.20678338216E+03  0.12509186851E+03 0.  0.
         23    2    1    2    0    0  0.63205165210E+02 -0.85841500837E+02  0.11599610512E+03  0.18179203887E+03  0.90717103237E+02 0.  0.
          5    1    3    3  502    0 -0.92993501448E+02  0.49405004876E+02  0.11921905261E+03  0.15912039694E+03  0.41800000000E+01 0. -1.
         -5    1    3    3    0  502  0.29788336238E+02  0.36436495960E+02  0.62709286390E+01  0.47662985216E+02  0.41800000000E+01 0. -1.
        -11    1    4    4    0    0  0.13690376195E+02 -0.89448079964E+01  0.82948412980E+02  0.84545107525E+02  0.00000000000E+00 0.  1.
         11    1    4    4    0    0  0.49514789015E+02 -0.76896692840E+02  0.33047692140E+02  0.97246931349E+02  0.00000000000E+00 0. -1.
</event>
<event>
 8    1  0.6627806E-009  0.1002916E+03  0.7561462E-02  0.1279684E+00
         -2   -1    0    0    0  501 -0.00000000000E+00  0.00000000000E+00  0.43331991437E+03  0.43331991437E+03  0.00000000000E+00 0. -1.
          2   -1    0    0  501    0  0.00000000000E+00 -0.00000000000E+00 -0.41303881694E+02  0.41303881694E+02  0.00000000000E+00 0.  1.
         25    2    1    2    0    0 -0.75486840581E+02 -0.16705432790E+02  0.19912425197E+03  0.24755699920E+03  0.12512659807E+03 0.  0.
         23    2    1    2    0    0  0.75486840581E+02  0.16705432790E+02  0.19289178071E+03  0.22706679687E+03  0.91513696178E+02 0.  0.
          5    1    3    3  502    0 -0.35168234450E+02 -0.29943443332E+02  0.19959549265E+03  0.20491278047E+03  0.41800000000E+01 0. -1.
         -5    1    3    3    0  502 -0.40318606131E+02  0.13238010543E+02 -0.47124068269E+00  0.42644218732E+02  0.41800000000E+01 0. -1.
        -11    1    4    4    0    0  0.19003137330E+02 -0.31843638641E+02  0.10771042560E+03  0.11391519799E+03  0.00000000000E+00 0. -1.
         11    1    4    4    0    0  0.56483703250E+02  0.48549071431E+02  0.85181355107E+02  0.11315159887E+03  0.00000000000E+00 0.  1.
</event>
<event>
 8    1  0.6627806E-009  0.5540173E+02  0.7561462E-02  0.1418209E+00
         -2   -1    0    0    0  501 -0.00000000000E+00  0.00000000000E+00  0.18946361262E+03  0.18946361262E+03  0.00000000000E+00 0.  1.
          2   -1    0    0  501    0  0.00000000000E+00 -0.00000000000E+00 -0.96021742968E+02  0.96021742968E+02  0.00000000000E+00 0. -1.
         25    2    1    2    0    0  0.73998792999E+01 -0.17308984736E+02  0.13279600019E+03  0.18339566980E+03  0.12507931432E+03 0.  0.
         23    2    1    2    0    0 -0.73998792999E+01  0.17308984736E+02 -0.39354130539E+02  0.10208968578E+03  0.92299497217E+02 0.  0.
          5    1    3    3  502    0 -0.38158325268E+02 -0.93934697812E+01 -0.32428068465E+01  0.39652027161E+02  0.41800000000E+01 0. -1.
         -5    1    3    3    0  502  0.45558204568E+02 -0.79155149547E+01  0.13603880704E+03  0.14374364264E+03  0.41800000000E+01 0. -1.
        -11    1    4    4    0    0  0.41137353548E+01  0.10960587691E+02  0.29632521169E+02  0.31861318427E+02  0.00000000000E+00 0.  1.
         11    1    4    4    0    0 -0.11513614655E+02  0.63483970454E+01 -0.68986651709E+02  0.70228367356E+02  0.00000000000E+00 0. -1.
</event>
<event>
 8    1  0.6627806E-009  0.1290909E+03  0.7561462E-02  0.1228811E+00
          2   -1    0    0  501    0  0.00000000000E+00  0.00000000000E+00  0.43953265836E+02  0.43953265836E+02  0.00000000000E+00 0. -1.
         -2   -1    0    0    0  501 -0.00000000000E+00 -0.00000000000E+00 -0.61829265463E+03  0.61829265463E+03  0.00000000000E+00 0.  1.
         25    2    1    2    0    0  0.63682592056E+02  0.89768761588E+02 -0.41647816159E+03  0.44857018858E+03  0.12508897600E+03 0.  0.
         23    2    1    2    0    0 -0.63682592056E+02 -0.89768761588E+02 -0.15786122720E+03  0.21367573188E+03  0.92861446535E+02 0.  0.
          5    1    3    3  502    0 -0.55988900859E+01  0.19042690459E+02 -0.27552120197E+03  0.27626685788E+03  0.41800000000E+01 0. -1.
         -5    1    3    3    0  502  0.69281482142E+02  0.70726071129E+02 -0.14095695962E+03  0.17230333070E+03  0.41800000000E+01 0. -1.
        -11    1    4    4    0    0  0.20653598011E+02 -0.25236870976E+02 -0.64512214820E+02  0.72286213267E+02  0.00000000000E+00 0.  1.
         11    1    4    4    0    0 -0.84336190067E+02 -0.64531890613E+02 -0.93349012384E+02  0.14138951861E+03  0.00000000000E+00 0. -1.
</event>
<event>
 8    1  0.6627806E-009  0.9629681E+02  0.7561462E-02  0.1288282E+00
         -2   -1    0    0    0  501 -0.00000000000E+00  0.00000000000E+00  0.25509697122E+03  0.25509697122E+03  0.00000000000E+00 0.  1.
          2   -1    0    0  501    0  0.00000000000E+00 -0.00000000000E+00 -0.47231218740E+02  0.47231218740E+02  0.00000000000E+00 0. -1.
         25    2    1    2    0    0  0.29598969953E+01 -0.63230439571E+01  0.14486756945E+03  0.19152517014E+03  0.12508611531E+03 0.  0.
         23    2    1    2    0    0 -0.29598969953E+01  0.63230439571E+01  0.62998183023E+02  0.11080301981E+03  0.90883421261E+02 0.  0.
          5    1    3    3  502    0  0.57049899346E+02  0.22845226868E+02  0.89850775877E+02  0.10893681532E+03  0.41800000000E+01 0. -1.
         -5    1    3    3    0  502 -0.54090002351E+02 -0.29168270825E+02  0.55016793577E+02  0.82588354825E+02  0.41800000000E+01 0. -1.
        -11    1    4    4    0    0 -0.36013898374E+02  0.20362013275E+01  0.68119960209E+02  0.77080970225E+02  0.00000000000E+00 0.  1.
         11    1    4    4    0    0  0.33054001378E+02  0.42868426296E+01 -0.51217771859E+01  0.33722049588E+02  0.00000000000E+00 0. -1.
</event>
<event>
 8    1  0.6627806E-009  0.1517128E+03  0.7561462E-02  0.1198384E+00
          1   -1    0    0  501    0  0.00000000000E+00  0.00000000000E+00  0.94650631334E+03  0.94650631334E+03  0.00000000000E+00 0. -1.
         -1   -1    0    0    0  501 -0.00000000000E+00 -0.00000000000E+00 -0.27726159555E+02  0.27726159555E+02  0.00000000000E+00 0.  1.
         25    2    1    2    0    0 -0.10823045850E+03  0.41406641632E+02  0.39376563095E+03  0.42910577297E+03  0.12510815385E+03 0.  0.
         23    2    1    2    0    0  0.10823045850E+03 -0.41406641632E+02  0.52501452283E+03  0.54512669992E+03  0.89969592999E+02 0.  0.
          5    1    3    3  502    0 -0.11563695007E+03 -0.11813244771E+02  0.25657296872E+03  0.28170661627E+03  0.41800000000E+01 0.  1.
         -5    1    3    3    0  502  0.74064915634E+01  0.53219886403E+02  0.13719266223E+03  0.14739915670E+03  0.41800000000E+01 0.  1.
        -11    1    4    4    0    0  0.98475911691E+02 -0.84399555620E+01  0.46979632247E+03  0.48008053765E+03  0.00000000000E+00 0.  1.
         11    1    4    4    0    0  0.97545468129E+01 -0.32966686070E+02  0.55218200368E+02  0.65046162269E+02  0.00000000000E+00 0. -1.
</event>
<event>
 8    1  0.6627806E-009  0.1129509E+03  0.7561462E-02  0.1255201E+00
         -1   -1    0    0    0  501 -0.00000000000E+00  0.00000000000E+00  0.57232694790E+03  0.57232694790E+03  0.00000000000E+00 0.  1.
          1   -1    0    0  501    0  0.00000000000E+00 -0.00000000000E+00 -0.47684198962E+02  0.47684198962E+02  0.00000000000E+00 0. -1.
         25    2    1    2    0    0  0.21093505804E+02  0.75002712803E+02  0.46502806684E+03  0.48782045547E+03  0.12508937168E+03 0.  0.
         23    2    1    2    0    0 -0.21093505804E+02 -0.75002712803E+02  0.59614682098E+02  0.13219069140E+03  0.88600934845E+02 0.  0.
          5    1    3    3  502    0 -0.15964402700E+02  0.97043242654E+02  0.25432340447E+03  0.27270885494E+03  0.41800000000E+01 0.  1.
         -5    1    3    3    0  502  0.37057908504E+02 -0.22040529850E+02  0.21070466237E+03  0.21511160053E+03  0.41800000000E+01 0.  1.
        -11    1    4    4    0    0 -0.29447664780E+02 -0.53346883894E+02 -0.72943595943E+01  0.61369884016E+02  0.00000000000E+00 0. -1.
         11    1    4    4    0    0  0.83541589764E+01 -0.21655828909E+02  0.66909041692E+02  0.70820807381E+02  0.00000000000E+00 0.  1.
</event>
<event>
 8    1  0.6627806E-009  0.3077862E+03  0.7561462E-02  0.1081412E+00
          2   -1    0    0  501    0  0.00000000000E+00  0.00000000000E+00  0.85210925898E+03  0.85210925898E+03  0.00000000000E+00 0. -1.
         -2   -1    0    0    0  501 -0.00000000000E+00 -0.00000000000E+00 -0.12950571936E+03  0.12950571936E+03  0.00000000000E+00 0.  1.
         25    2    1    2    0    0 -0.13107176090E+03 -0.27299031770E+03  0.48748182162E+03  0.58735803744E+03  0.12508963855E+03 0.  0.
         23    2    1    2    0    0  0.13107176090E+03  0.27299031770E+03  0.23512171800E+03  0.39425694091E+03  0.91939072814E+02 0.  0.
          5    1    3    3  502    0 -0.99997279296E+02 -0.25254858775E+03  0.47624824998E+03  0.54827922909E+03  0.41800000000E+01 0. -1.
         -5    1    3    3    0  502 -0.31074481607E+02 -0.20441729951E+02  0.11233571640E+02  0.39078808353E+02  0.41800000000E+01 0. -1.
        -11    1    4    4    0    0  0.87049456365E+02  0.12675190076E+03  0.16707268220E+03  0.22706151884E+03  0.00000000000E+00 0.  1.
         11    1    4    4    0    0  0.44022304537E+02  0.14623841694E+03  0.68049035807E+02  0.16719542207E+03  0.00000000000E+00 0. -1.
</event>
<event>
 8    1  0.6627806E-009  0.1737826E+03  0.7561462E-02  0.1173960E+00
         -2   -1    0    0    0  501 -0.00000000000E+00  0.00000000000E+00  0.42884341759E+03  0.42884341759E+03  0.00000000000E+00 0.  1.
          2   -1    0    0  501    0  0.00000000000E+00 -0.00000000000E+00 -0.83978838801E+02  0.83978838801E+02  0.00000000000E+00 0. -1.
         25    2    1    2    0    0 -0.14757091527E+03 -0.36270094176E+02  0.10357185374E+03  0.22241284093E+03  0.12509055983E+03 0.  0.
         23    2    1    2    0    0  0.14757091527E+03  0.36270094176E+02  0.24129272506E+03  0.29040941546E+03  0.54979584036E+02 0.  0.
          5    1    3    3  502    0 -0.22904127691E+02 -0.58286602490E+02  0.70423631674E+01  0.63158486160E+02  0.41800000000E+01 0.  1.
         -5    1    3    3    0  502 -0.12466678758E+03  0.22016508314E+02  0.96529490571E+02  0.15925435477E+03  0.41800000000E+01 0.  1.
        -11    1    4    4    0    0  0.23558957882E+02  0.23816265960E+02  0.78773342431E+02  0.85600692162E+02  0.00000000000E+00 0.  1.
         11    1    4    4    0    0  0.12401195739E+03  0.12453828216E+02  0.16251938262E+03  0.20480872330E+03  0.00000000000E+00 0. -1.
</event>
<event>
 8    1  0.6627806E-009  0.1013097E+03  0.7561462E-02  0.1277566E+00
         -2   -1    0    0    0  501 -0.00000000000E+00  0.00000000000E+00  0.12213530365E+03  0.12213530365E+03  0.00000000000E+00 0.  1.
          2   -1    0    0  501    0  0.00000000000E+00 -0.00000000000E+00 -0.16530675601E+03  0.16530675601E+03  0.00000000000E+00 0. -1.
         25    2    1    2    0    0  0.39678229496E+02 -0.61461674002E+02  0.32021307953E+02  0.14840498189E+03  0.12508707056E+03 0.  0.
         23    2    1    2    0    0 -0.39678229496E+02  0.61461674002E+02 -0.75192760307E+02  0.13903707777E+03  0.91243950620E+02 0.  0.
          5    1    3    3  502    0  0.46816947627E+02 -0.30021637855E+00  0.63594078038E+02  0.79079680553E+02  0.41800000000E+01 0.  1.
         -5    1    3    3    0  502 -0.71387181309E+01 -0.61161457624E+02 -0.31572770084E+02  0.69325301341E+02  0.41800000000E+01 0.  1.
        -11    1    4    4    0    0 -0.49304892390E+02  0.23287781680E+02 -0.41567410683E+00  0.54529496368E+02  0.00000000000E+00 0.  1.
         11    1    4    4    0    0  0.96266628945E+01  0.38173892322E+02 -0.74777086200E+02  0.84507581400E+02  0.00000000000E+00 0. -1.
</event>
<event>
 8    1  0.6627806E-009  0.1034145E+03  0.7561462E-02  0.1273275E+00
          1   -1    0    0  501    0  0.00000000000E+00  0.00000000000E+00  0.45211672459E+03  0.45211672459E+03  0.00000000000E+00 0. -1.
         -1   -1    0    0    0  501 -0.00000000000E+00 -0.00000000000E+00 -0.32624401755E+02  0.32624401755E+02  0.00000000000E+00 0.  1.
         25    2    1    2    0    0 -0.29279114302E+02 -0.16915294291E+02  0.14641133208E+03  0.19551821727E+03  0.12509077267E+03 0.  0.
         23    2    1    2    0    0  0.29279114302E+02  0.16915294291E+02  0.27308099075E+03  0.28922290907E+03  0.89068905399E+02 0.  0.
          5    1    3    3  502    0 -0.98734792654E+00 -0.61032633984E+02  0.12418148650E+03  0.13843580193E+03  0.41800000000E+01 0. -1.
         -5    1    3    3    0  502 -0.28291766375E+02  0.44117339693E+02  0.22229845582E+02  0.57082415338E+02  0.41800000000E+01 0. -1.
        -11    1    4    4    0    0  0.46208887626E+02  0.42240903964E+02  0.15244325169E+03  0.16479836240E+03  0.00000000000E+00 0.  1.
         11    1    4    4    0    0 -0.16929773324E+02 -0.25325609672E+02  0.12063773905E+03  0.12442454667E+03  0.00000000000E+00 0. -1.
</event>
<event>
 8    1  0.6627806E-009  0.9306829E+02  0.7561462E-02  0.1295587E+00
          3   -1    0    0  501    0  0.00000000000E+00  0.00000000000E+00  0.68127307079E+02  0.68127307079E+02  0.00000000000E+00 0. -1.
         -3   -1    0    0    0  501 -0.00000000000E+00 -0.00000000000E+00 -0.20126755272E+03  0.20126755272E+03  0.00000000000E+00 0.  1.
         25    2    1    2    0    0 -0.91802742861E+01 -0.32060895373E+02 -0.11138664246E+03  0.17078087501E+03  0.12508774801E+03 0.  0.
         23    2    1    2    0    0  0.91802742861E+01  0.32060895373E+02 -0.21753603178E+02  0.98613984793E+02  0.90218181635E+02 0.  0.
          5    1    3    3  502    0  0.35260398402E+02  0.56261936546E+00 -0.10987631574E+03  0.11547246164E+03  0.41800000000E+01 0. -1.
         -5    1    3    3    0  502 -0.44440672688E+02 -0.32623514739E+02 -0.15103267250E+01  0.55308413371E+02  0.41800000000E+01 0. -1.
        -11    1    4    4    0    0 -0.40106245522E+02  0.18823045012E+02 -0.36068268571E+01  0.44450277315E+02  0.00000000000E+00 0.  1.
         11    1    4    4    0    0  0.49286519808E+02  0.13237850361E+02 -0.18146776321E+02  0.54163707479E+02  0.00000000000E+00 0. -1.
</event>
<event>
 8    1  0.6627806E-009  0.1545457E+03  0.7561462E-02  0.1194996E+00
          2   -1    0    0  501    0  0.00000000000E+00  0.00000000000E+00  0.49809506430E+03  0.49809506430E+03  0.00000000000E+00 0.  1.
         -2   -1    0    0    0  501 -0.00000000000E+00 -0.00000000000E+00 -0.72146151288E+02  0.72146151288E+02  0.00000000000E+00 0. -1.
         25    2    1    2    0    0 -0.14314046384E+03 -0.54497980998E+02  0.26112676520E+03  0.32755724382E+03  0.12508932070E+03 0.  0.
         23    2    1    2    0    0  0.14314046384E+03  0.54497980998E+02  0.16482214782E+03  0.24268397178E+03  0.90939251287E+02 0.  0.
          5    1    3    3  502    0 -0.44693117792E+02 -0.66251552247E+01  0.10910506135E+01  0.45387556127E+02  0.41800000000E+01 0.  1.
         -5    1    3    3    0  502 -0.98447346048E+02 -0.47872825774E+02  0.26003571458E+03  0.28216968769E+03  0.41800000000E+01 0.  1.
        -11    1    4    4    0    0  0.11177621802E+03  0.50120124535E+02  0.66494542600E+02  0.13938247377E+03  0.00000000000E+00 0. -1.
         11    1    4    4    0    0  0.31364245823E+02  0.43778564631E+01  0.98327605218E+02  0.10330149801E+03  0.00000000000E+00 0.  1.
</event>
<event>
 8    1  0.6627806E-009  0.1398011E+03  0.7561462E-02  0.1213597E+00
         -2   -1    0    0    0  501 -0.00000000000E+00  0.00000000000E+00  0.11466452222E+02  0.11466452222E+02  0.00000000000E+00 0.  1.
          2   -1    0    0  501    0  0.00000000000E+00 -0.00000000000E+00 -0.21350536326E+04  0.21350536326E+04  0.00000000000E+00 0. -1.
         25    2    1    2    0    0  0.89392251214E+02  0.34025442093E+02 -0.15485022318E+04  0.15564881423E+04  0.12508984746E+03 0.  0.
         23    2    1    2    0    0 -0.89392251214E+02 -0.34025442093E+02 -0.57508494864E+03  0.59003194258E+03  0.90919138977E+02 0.  0.
          5    1    3    3  502    0  0.85742140917E+02 -0.24591651264E+02 -0.11734062954E+04  0.11767991632E+04  0.41800000000E+01 0.  1.
         -5    1    3    3    0  502  0.36501102964E+01  0.58617093357E+02 -0.37509593637E+03  0.37968897906E+03  0.41800000000E+01 0.  1.
        -11    1    4    4    0    0 -0.81459885431E+02  0.14082790452E+02 -0.33536609800E+03  0.34540477358E+03  0.00000000000E+00 0.  1.
         11    1    4    4    0    0 -0.79323657831E+01 -0.48108232545E+02 -0.23971885064E+03  0.24462716900E+03  0.00000000000E+00 0. -1.
</event>
<event>
 8    1  0.6627806E-009  0.1923219E+03  0.7561462E-02  0.1156384E+00
          2   -1    0    0  501    0  0.00000000000E+00  0.00000000000E+00  0.67316728002E+02  0.67316728002E+02  0.00000000000E+00 0. -1.
         -2   -1    0    0    0  501 -0.00000000000E+00 -0.00000000000E+00 -0.64937005283E+03  0.64937005283E+03  0.00000000000E+00 0.  1.
         25    2    1    2    0    0  0.12523644443E+02 -0.17043659306E+03 -0.40637690626E+03  0.45825511370E+03  0.12510030121E+03 0.  0.
         23    2    1    2    0    0 -0.12523644443E+02  0.17043659306E+03 -0.17567641857E+03  0.25843166713E+03  0.81971023014E+02 0.  0.
          5    1    3    3  502    0  0.49084683442E+02 -0.13725298109E+03 -0.36717145493E+03  0.39506966054E+03  0.41800000000E+01 0. -1.
         -5    1    3    3    0  502 -0.36561038999E+02 -0.33183611970E+02 -0.39205451329E+02  0.63185453152E+02  0.41800000000E+01 0. -1.
        -11    1    4    4    0    0 -0.46620007396E+02  0.79677851034E+02 -0.78780766788E+02  0.12136059596E+03  0.00000000000E+00 0. -1.
         11    1    4    4    0    0  0.34096362953E+02  0.90758742025E+02 -0.96895651778E+02  0.13707107118E+03  0.00000000000E+00 0.  1.
</event>
<event>
 8    1  0.6627806E-009  0.2084687E+03  0.7561462E-02  0.1142784E+00
          1   -1    0    0  501    0  0.00000000000E+00  0.00000000000E+00  0.27271425387E+03  0.27271425387E+03  0.00000000000E+00 0. -1.
         -1   -1    0    0    0  501 -0.00000000000E+00 -0.00000000000E+00 -0.18471696560E+03  0.18471696560E+03  0.00000000000E+00 0.  1.
         25    2    1    2    0    0 -0.12027330590E+03 -0.14066125552E+03 -0.27054960741E+02  0.22501286623E+03  0.12509021605E+03 0.  0.
         23    2    1    2    0    0  0.12027330590E+03  0.14066125552E+03  0.11505224901E+03  0.23241835324E+03  0.80808502060E+02 0.  0.
          5    1    3    3  502    0 -0.14379332221E+03 -0.10235907209E+03 -0.32579508794E+02  0.17953494352E+03  0.41800000000E+01 0. -1.
         -5    1    3    3    0  502  0.23520016314E+02 -0.38302183423E+02  0.55245480533E+01  0.45477922706E+02  0.41800000000E+01 0. -1.
        -11    1    4    4    0    0  0.40329015636E+02  0.94931517803E+02  0.30922921142E+02  0.10767845479E+03  0.00000000000E+00 0.  1.
         11    1    4    4    0    0  0.79944290261E+02  0.45729737714E+02  0.84129327873E+02  0.12473989845E+03  0.00000000000E+00 0. -1.
</event>
<event>
 8    1  0.6627806E-009  0.7003589E+02  0.7561462E-02  0.1359971E+00
          1   -1    0    0  501    0  0.00000000000E+00  0.00000000000E+00  0.39452269962E+03  0.39452269962E+03  0.00000000000E+00 0. -1.
         -1   -1    0    0    0  501 -0.00000000000E+00 -0.00000000000E+00 -0.33202500227E+02  0.33202500227E+02  0.00000000000E+00 0.  1.
         25    2    1    2    0    0 -0.13661548292E+02  0.31702337306E+02  0.23025324600E+03  0.26430325383E+03  0.12509187263E+03 0.  0.
         23    2    1    2    0    0  0.13661548292E+02 -0.31702337306E+02  0.13106695339E+03  0.16342194602E+03  0.91304490998E+02 0.  0.
          5    1    3    3  502    0 -0.16467100901E+02  0.70351424309E+01  0.23741712739E+03  0.23812816595E+03  0.41800000000E+01 0. -1.
         -5    1    3    3    0  502  0.28055526087E+01  0.24667194875E+02 -0.71638813948E+01  0.26175087872E+02  0.41800000000E+01 0. -1.
        -11    1    4    4    0    0 -0.79517649042E+01 -0.60210204283E+02  0.93950543843E+02  0.11187137236E+03  0.00000000000E+00 0.  1.
         11    1    4    4    0    0  0.21613313196E+02  0.28507866977E+02  0.37116409549E+02  0.51550573660E+02  0.00000000000E+00 0. -1.
</event>
<event>
 8    1  0.6627806E-009  0.1158102E+03  0.7561462E-02  0.1250173E+00
         -1   -1    0    0    0  501 -0.00000000000E+00  0.00000000000E+00  0.10627517067E+02  0.10627517067E+02  0.00000000000E+00 0.  1.
          1   -1    0    0  501    0  0.00000000000E+00 -0.00000000000E+00 -0.16512261611E+04  0.16512261611E+04  0.00000000000E+00 0. -1.
         25    2    1    2    0    0 -0.35935085925E+02 -0.36987367825E+02 -0.12466742339E+04  0.12539950145E+04  0.12508978824E+03 0.  0.
         23    2    1    2    0    0  0.35935085925E+02  0.36987367825E+02 -0.39392441017E+03  0.40785866372E+03  0.92265122653E+02 0.  0.
          5    1    3    3  502    0  0.11214951536E+02  0.38816894193E+02 -0.56986611901E+03  0.57131199218E+03  0.41800000000E+01 0. -1.
         -5    1    3    3    0  502 -0.47150037462E+02 -0.75804262018E+02 -0.67680811489E+03  0.68268302232E+03  0.41800000000E+01 0. -1.
        -11    1    4    4    0    0  0.24979853409E+01 -0.28230609213E+02 -0.16713848171E+03  0.16952427347E+03  0.00000000000E+00 0. -1.
         11    1    4    4    0    0  0.33437100585E+02  0.65217977039E+02 -0.22678592846E+03  0.23833439024E+03  0.00000000000E+00 0.  1.
</event>
<event>
 8    1  0.6627806E-009  0.1644806E+03  0.7561462E-02  0.1183729E+00
          2   -1    0    0  501    0  0.00000000000E+00  0.00000000000E+00  0.53084736707E+02  0.53084736707E+02  0.00000000000E+00 0. -1.
         -2   -1    0    0    0  501 -0.00000000000E+00 -0.00000000000E+00 -0.59592564006E+03  0.59592564006E+03  0.00000000000E+00 0.  1.
         25    2    1    2    0    0 -0.11855978310E+03  0.74050374999E+02 -0.29768711038E+03  0.35185819334E+03  0.12508673922E+03 0.  0.
         23    2    1    2    0    0  0.11855978310E+03 -0.74050374999E+02 -0.24515379297E+03  0.29715218342E+03  0.93054595262E+02 0.  0.
          5    1    3    3  502    0  0.12009153213E+02 -0.90959686554E+01  0.73525416722E+00  0.15651498502E+02  0.41800000000E+01 0.  1.
         -5    1    3    3    0  502 -0.13056893631E+03  0.83146343654E+02 -0.29842236455E+03  0.33620669484E+03  0.41800000000E+01 0.  1.
        -11    1    4    4    0    0 -0.13378447994E+01 -0.31081940750E+02 -0.16004607372E+02  0.34986059033E+02  0.00000000000E+00 0. -1.
         11    1    4    4    0    0  0.11989762790E+03 -0.42968434249E+02 -0.22914918560E+03  0.26216612439E+03  0.00000000000E+00 0.  1.
</event>
<event>
 8    1  0.6627806E-009  0.1892321E+03  0.7561462E-02  0.1159156E+00
          1   -1    0    0  501    0  0.00000000000E+00  0.00000000000E+00  0.66464388413E+03  0.66464388413E+03  0.00000000000E+00 0. -1.
         -1   -1    0    0    0  501 -0.00000000000E+00 -0.00000000000E+00 -0.54370926985E+02  0.54370926985E+02  0.00000000000E+00 0.  1.
         25    2    1    2    0    0  0.80299808636E+02  0.13324367701E+03  0.29687994500E+03  0.35775228436E+03  0.12508820285E+03 0.  0.
         23    2    1    2    0    0 -0.80299808636E+02 -0.13324367701E+03  0.31339301214E+03  0.36126252675E+03  0.89963861886E+02 0.  0.
          5    1    3    3  502    0  0.68479805246E+02  0.35032389642E+01  0.89764019852E+02  0.11303454370E+03  0.41800000000E+01 0. -1.
         -5    1    3    3    0  502  0.11820003390E+02  0.12974043804E+03  0.20711592515E+03  0.24471774066E+03  0.41800000000E+01 0. -1.
        -11    1    4    4    0    0 -0.93873825484E+02 -0.13630924392E+03  0.29414141893E+03  0.33750804349E+03  0.00000000000E+00 0.  1.
         11    1    4    4    0    0  0.13574016848E+02  0.30655669116E+01  0.19251593203E+02  0.23754483255E+02  0.00000000000E+00 0. -1.
</event>
<event>
 8    1  0.6627806E-009  0.9973979E+02  0.7561462E-02  0.1280844E+00
         -3   -1    0    0    0  501 -0.00000000000E+00  0.00000000000E+00  0.10086404338E+03  0.10086404338E+03  0.00000000000E+00 0.  1.
          3   -1    0    0  501    0  0.00000000000E+00 -0.00000000000E+00 -0.13092967264E+03  0.13092967264E+03  0.00000000000E+00 0. -1.
         25    2    1    2    0    0  0.37107914492E+02  0.19378013702E+01 -0.14244620071E+01  0.13049923000E+03  0.12508903847E+03 0.  0.
         23    2    1    2    0    0 -0.37107914492E+02 -0.19378013702E+01 -0.28641167257E+02  0.10129448602E+03  0.89774740568E+02 0.  0.
          5    1    3    3  502    0 -0.35438927231E+02 -0.25300953486E+02 -0.23712504701E+02  0.49757522947E+02  0.41800000000E+01 0.  1.
         -5    1    3    3    0  502  0.72546841723E+02  0.27238754856E+02  0.22288042694E+02  0.80741707049E+02  0.41800000000E+01 0.  1.
        -11    1    4    4    0    0 -0.37421447492E+01 -0.32601265864E+02  0.17017457238E+02  0.36965389679E+02  0.00000000000E+00 0.  1.
         11    1    4    4    0    0 -0.33365769743E+02  0.30663464494E+02 -0.45658624495E+02  0.64329096341E+02  0.00000000000E+00 0. -1.
</event>
<event>
 8    1  0.6627806E-009  0.1439187E+03  0.7561462E-02  0.1208151E+00
         -1   -1    0    0    0  501 -0.00000000000E+00  0.00000000000E+00  0.11018003165E+03  0.11018003165E+03  0.00000000000E+00 0.  1.
          1   -1    0    0  501    0  0.00000000000E+00 -0.00000000000E+00 -0.20611923963E+03  0.20611923963E+03  0.00000000000E+00 0. -1.
         25    2    1    2    0    0  0.87957106913E+02  0.37355689300E+02 -0.80972870266E+01  0.15762795443E+03  0.12509638597E+03 0.  0.
         23    2    1    2    0    0 -0.87957106913E+02 -0.37355689300E+02 -0.87841920956E+02  0.15867131685E+03  0.91260525606E+02 0.  0.
          5    1    3    3  502    0 -0.17022969360E+02 -0.28396273332E+02  0.65773448565E+00  0.33377160448E+02  0.41800000000E+01 0.  1.
         -5    1    3    3    0  502  0.10498007627E+03  0.65751962632E+02 -0.87550215123E+01  0.12425079398E+03  0.41800000000E+01 0.  1.
        -11    1    4    4    0    0 -0.75587497728E+01 -0.48741526598E+02 -0.45448359438E+02  0.67070295130E+02  0.00000000000E+00 0. -1.
         11    1    4    4    0    0 -0.80398357140E+02  0.11385837298E+02 -0.42393561517E+02  0.91601021718E+02  0.00000000000E+00 0.  1.
</event>
<event>
 8    1  0.6627806E-009  0.1093146E+03  0.7561462E-02  0.1261844E+00
          2   -1    0    0  501    0  0.00000000000E+00  0.00000000000E+00  0.10351980963E+04  0.10351980963E+04  0.00000000000E+00 0. -1.
         -2   -1    0    0    0  501 -0.00000000000E+00 -0.00000000000E+00 -0.19587488286E+02  0.19587488286E+02  0.00000000000E+00 0.  1.
         25    2    1    2    0    0 -0.60774474635E+02  0.20198449251E+02  0.81369808643E+03  0.82574435031E+03  0.12509053558E+03 0.  0.
         23    2    1    2    0    0  0.60774474635E+02 -0.20198449251E+02  0.20191252160E+03  0.22904123429E+03  0.87118921636E+02 0.  0.
          5    1    3    3  502    0 -0.20402354079E+02  0.56043116122E+02  0.66157325713E+03  0.66426932329E+03  0.41800000000E+01 0. -1.
         -5    1    3    3    0  502 -0.40372120557E+02 -0.35844666871E+02  0.15212482930E+03  0.16147502702E+03  0.41800000000E+01 0. -1.
        -11    1    4    4    0    0 -0.20851171366E+02 -0.70681445966E+01  0.22415238282E+02  0.31419308118E+02  0.00000000000E+00 0.  1.
         11    1    4    4    0    0  0.81625646001E+02 -0.13130304654E+02  0.17949728332E+03  0.19762192617E+03  0.00000000000E+00 0. -1.
</event>
<event>
 8    1  0.6627806E-009  0.1184013E+03  0.7561462E-02  0.1245758E+00
         -2   -1    0    0    0  501 -0.00000000000E+00  0.00000000000E+00  0.11805873405E+03  0.11805873405E+03  0.00000000000E+00 0.  1.
          2   -1    0    0  501    0  0.00000000000E+00 -0.00000000000E+00 -0.27739964471E+03  0.27739964471E+03  0.00000000000E+00 0. -1.
         25    2    1    2    0    0  0.69522315355E+02 -0.72257705011E+02  0.29406566280E+02  0.16299344987E+03  0.12509032854E+03 0.  0.
         23    2    1    2    0    0 -0.69522315355E+02  0.72257705011E+02 -0.18874747695E+03  0.23246492889E+03  0.91431968394E+02 0.  0.
          5    1    3    3  502    0  0.29779448542E+02 -0.85830108005E+02  0.61658782882E+02  0.10987675324E+03  0.41800000000E+01 0.  1.
         -5    1    3    3    0  502  0.39742866814E+02  0.13572402994E+02 -0.32252216603E+02  0.53116696635E+02  0.41800000000E+01 0.  1.
        -11    1    4    4    0    0 -0.52413194469E+02  0.36072080563E+02 -0.18078411391E+03  0.19165394281E+03  0.00000000000E+00 0. -1.
         11    1    4    4    0    0 -0.17109120886E+02  0.36185624449E+02 -0.79633630342E+01  0.40810986083E+02  0.00000000000E+00 0.  1.
</event>
<event>
 8    1  0.6627806E-009  0.1058038E+03  0.7561462E-02  0.1268544E+00
          2   -1    0    0  501    0  0.00000000000E+00  0.00000000000E+00  0.10193368509E+04  0.10193368509E+04  0.00000000000E+00 0.  1.
         -2   -1    0    0    0  501 -0.00000000000E+00 -0.00000000000E+00 -0.17622566873E+02  0.17622566873E+02  0.00000000000E+00 0. -1.
         25    2    1    2    0    0 -0.44370266800E+01 -0.54785515864E+02  0.76284526862E+03  0.77498465305E+03  0.12508864317E+03 0.  0.
         23    2    1    2    0    0  0.44370266800E+01  0.54785515864E+02  0.23886901540E+03  0.26197476472E+03  0.92472865623E+02 0.  0.
          5    1    3    3  502    0 -0.50875631532E+02 -0.70520769923E+02  0.51398420517E+03  0.52130484790E+03  0.41800000000E+01 0. -1.
         -5    1    3    3    0  502  0.46438604852E+02  0.15735254059E+02  0.24886106345E+03  0.25367980515E+03  0.41800000000E+01 0. -1.
        -11    1    4    4    0    0 -0.22972905940E+02  0.16631677972E+02  0.12870545563E+02  0.31145112981E+02  0.00000000000E+00 0. -1.
         11    1    4    4    0    0  0.27409932620E+02  0.38153837892E+02  0.22599846984E+03  0.23082965174E+03  0.00000000000E+00 0.  1.
</event>
<event>
 8    1  0.6627806E-009  0.8244871E+02  0.7561462E-02  0.1322243E+00
          1   -1    0    0  501    0  0.00000000000E+00  0.00000000000E+00  0.11315865971E+03  0.11315865971E+03  0.00000000000E+00 0. -1.
         -1   -1    0    0    0  501 -0.00000000000E+00 -0.00000000000E+00 -0.16747506015E+03  0.16747506015E+03  0.00000000000E+00 0.  1.
         25    2    1    2    0    0  0.10394420168E+02 -0.66959465928E+02  0.21810784828E+02  0.14392696546E+03  0.12509055521E+03 0.  0.
         23    2    1    2    0    0 -0.10394420168E+02  0.66959465928E+02 -0.76127185270E+02  0.13670675441E+03  0.91114073090E+02 0.  0.
          5    1    3    3  502    0  0.31656932177E+02 -0.23707883891E+02  0.66878785170E+02  0.77810471141E+02  0.41800000000E+01 0. -1.
         -5    1    3    3    0  502 -0.21262512009E+02 -0.43251582038E+02 -0.45068000342E+02  0.66116494315E+02  0.41800000000E+01 0. -1.
        -11    1    4    4    0    0 -0.23938361635E+02  0.41306673785E+02  0.73760037379E+01  0.48308300406E+02  0.00000000000E+00 0. -1.
         11    1    4    4    0    0  0.13543941467E+02  0.25652792144E+02 -0.83503189008E+02  0.88398454000E+02  0.00000000000E+00 0.  1.
</event>
<event>
 8    1  0.6627806E-009  0.1021715E+03  0.7561462E-02  0.1275795E+00
         -4   -1    0    0    0  501 -0.00000000000E+00  0.00000000000E+00  0.46968910710E+02  0.46968910710E+02  0.00000000000E+00 0.  1.
          4   -1    0    0  501    0  0.00000000000E+00 -0.00000000000E+00 -0.33503739788E+03  0.33503739788E+03  0.00000000000E+00 0. -1.
         25    2    1    2    0    0  0.63264735259E+02 -0.36469250880E+00 -0.15435367621E+03  0.20850764869E+03  0.12509125659E+03 0.  0.
         23    2    1    2    0    0 -0.63264735259E+02  0.36469250880E+00 -0.13371481097E+03  0.17349865990E+03  0.90661869540E+02 0.  0.
          5    1    3    3  502    0  0.24663128384E+01  0.52080774622E+02 -0.95433755022E+02  0.10882813874E+03  0.41800000000E+01 0.  1.
         -5    1    3    3    0  502  0.60798422421E+02 -0.52445467130E+02 -0.58919921185E+02  0.99679509950E+02  0.41800000000E+01 0.  1.
        -11    1    4    4    0    0 -0.31617254787E+02  0.16982735234E+02 -0.13298836969E+03  0.13774603649E+03  0.00000000000E+00 0. -1.
         11    1    4    4    0    0 -0.31647480472E+02 -0.16618042725E+02 -0.72644128121E+00  0.35752623417E+02  0.00000000000E+00 0.  1.
</event>
<event>
 8    1  0.6627806E-009  0.1531344E+03  0.7561462E-02  0.1196674E+00
          1   -1    0    0  501    0  0.00000000000E+00  0.00000000000E+00  0.82804083132E+03  0.82804083132E+03  0.00000000000E+00 0. -1.
         -1   -1    0    0    0  501 -0.00000000000E+00 -0.00000000000E+00 -0.36290244688E+02  0.36290244688E+02  0.00000000000E+00 0.  1.
         25    2    1    2    0    0 -0.92493693233E+02 -0.83784268894E+02  0.55287231860E+03  0.58042279685E+03  0.12509170806E+03 0.  0.
         23    2    1    2    0    0  0.92493693233E+02  0.83784268894E+02  0.23887826803E+03  0.28390827916E+03  0.89253554753E+02 0.  0.
          5    1    3    3  502    0 -0.86888643055E+02 -0.45487047851E+01  0.19121515049E+03  0.21012147245E+03  0.41800000000E+01 0.  1.
         -5    1    3    3    0  502 -0.56050501784E+01 -0.79235564109E+02  0.36165716811E+03  0.37030132440E+03  0.41800000000E+01 0.  1.
        -11    1    4    4    0    0  0.44065770329E+01  0.41808737587E+02  0.25224955977E+02  0.49027409311E+02  0.00000000000E+00 0.  1.
         11    1    4    4    0    0  0.88087116200E+02  0.41975531307E+02  0.21365331206E+03  0.23488086985E+03  0.00000000000E+00 0. -1.
</event>
<event>
 8    1  0.6627806E-009  0.1770466E+03  0.7561462E-02  0.1170692E+00
          2   -1    0    0  501    0  0.00000000000E+00  0.00000000000E+00  0.38842523355E+03  0.38842523355E+03  0.00000000000E+00 0. -1.
         -2   -1    0    0    0  501 -0.00000000000E+00 -0.00000000000E+00 -0.10812167054E+03  0.10812167054E+03  0.00000000000E+00 0.  1.
         25    2    1    2    0    0 -0.10391027612E+03  0.11555518647E+03  0.51731143378E+02  0.20609024165E+03  0.12508688942E+03 0.  0.
         23    2    1    2    0    0  0.10391027612E+03 -0.11555518647E+03  0.22857241963E+03  0.29045666244E+03  0.89271356757E+02 0.  0.
          5    1    3    3  502    0 -0.75618668100E+02  0.12378949561E+03 -0.14750529957E+01  0.14512639446E+03  0.41800000000E+01 0. -1.
         -5    1    3    3    0  502 -0.28291608017E+02 -0.82343091405E+01  0.53206196374E+02  0.60963847187E+02  0.41800000000E+01 0. -1.
        -11    1    4    4    0    0  0.40972417165E+02 -0.10838259903E+03  0.14664831791E+03  0.18689905266E+03  0.00000000000E+00 0. -1.
         11    1    4    4    0    0  0.62937858952E+02 -0.71725874413E+01  0.81924101722E+02  0.10355760978E+03  0.00000000000E+00 0.  1.
</event>
<event>
 8    1  0.6627806E-009  0.1046449E+03  0.7561462E-02  0.1270821E+00
         -2   -1    0    0    0  501 -0.00000000000E+00  0.00000000000E+00  0.33064829661E+03  0.33064829661E+03  0.00000000000E+00 0.  1.
          2   -1    0    0  501    0  0.00000000000E+00 -0.00000000000E+00 -0.10601963125E+03  0.10601963125E+03  0.00000000000E+00 0. -1.
         25    2    1    2    0    0  0.32026684843E+02 -0.21478350613E+02  0.28976060586E+03  0.31794612261E+03  0.12506598293E+03 0.  0.
         23    2    1    2    0    0 -0.32026684843E+02  0.21478350613E+02 -0.65131940501E+02  0.11872180525E+03  0.91464032722E+02 0.  0.
          5    1    3    3  502    0 -0.12275115726E+02 -0.54703038408E+02  0.62789139171E+02  0.84279589907E+02  0.41800000000E+01 0.  1.
         -5    1    3    3    0  502  0.44301800569E+02  0.33224687795E+02  0.22697146669E+03  0.23366653270E+03  0.41800000000E+01 0.  1.
        -11    1    4    4    0    0 -0.43477599923E+02  0.50322489582E+02 -0.33713385564E+02  0.74560358227E+02  0.00000000000E+00 0.  1.
         11    1    4    4    0    0  0.11450915080E+02 -0.28844138969E+02 -0.31418554937E+02  0.44161447025E+02  0.00000000000E+00 0. -1.
</event>
<event>
 8    1  0.6627806E-009  0.1220550E+03  0.7561462E-02  0.1239745E+00
          1   -1    0    0  501    0  0.00000000000E+00  0.00000000000E+00  0.53593017362E+03  0.53593017362E+03  0.00000000000E+00 0. -1.
         -1   -1    0    0    0  501 -0.00000000000E+00 -0.00000000000E+00 -0.41938925596E+02  0.41938925596E+02  0.00000000000E+00 0.  1.
         25    2    1    2    0    0  0.14073680636E+02 -0.86547163984E+02  0.37694717275E+03  0.40672406906E+03  0.12508723846E+03 0.  0.
         23    2    1    2    0    0 -0.14073680636E+02  0.86547163984E+02  0.11704407528E+03  0.17114503016E+03  0.88897838624E+02 0.  0.
          5    1    3    3  502    0  0.17753962392E+02  0.14292695734E+02  0.21236637859E+03  0.21362686041E+03  0.41800000000E+01 0.  1.
         -5    1    3    3    0  502 -0.36802817562E+01 -0.10083985972E+03  0.16458079416E+03  0.19309720865E+03  0.41800000000E+01 0.  1.
        -11    1    4    4    0    0  0.22237464689E+02  0.80018270789E+02  0.10140429358E+03  0.13107348798E+03  0.00000000000E+00 0. -1.
         11    1    4    4    0    0 -0.36311145325E+02  0.65288931951E+01  0.15639781699E+02  0.40071542181E+02  0.00000000000E+00 0.  1.
</event>
<event>
 8    1  0.6627806E-009  0.1145654E+03  0.7561462E-02  0.1252342E+00
          1   -1    0    0  501    0  0.00000000000E+00  0.00000000000E+00  0.38450660626E+02  0.38450660626E+02  0.00000000000E+00 0. -1.
         -1   -1    0    0    0  501 -0.00000000000E+00 -0.00000000000E+00 -0.54625046009E+03  0.54625046009E+03  0.00000000000E+00 0.  1.
         25    2    1    2    0    0  0.34955001224E+02  0.94114539110E+02 -0.27188881673E+03  0.31567230006E+03  0.12508426670E+03 0.  0.
         23    2    1    2    0    0 -0.34955001224E+02 -0.94114539110E+02 -0.23591098273E+03  0.26902882066E+03  0.81505312647E+02 0.  0.
          5    1    3    3  502    0  0.50314333120E+01  0.37253425093E+01  0.13133620140E+02  0.15137961420E+02  0.41800000000E+01 0.  1.
         -5    1    3    3    0  502  0.29923567912E+02  0.90389196601E+02 -0.28502243687E+03  0.30053433863E+03  0.41800000000E+01 0.  1.
        -11    1    4    4    0    0 -0.14592355408E+02 -0.10303770161E+03 -0.16848899855E+03  0.19803597507E+03  0.00000000000E+00 0. -1.
         11    1    4    4    0    0 -0.20362645816E+02  0.89231625046E+01 -0.67421984177E+02  0.70992845584E+02  0.00000000000E+00 0.  1.
</event>
<event>
 8    1  0.6627806E-009  0.1213201E+03  0.7561462E-02  0.1240935E+00
          2   -1    0    0  501    0  0.00000000000E+00  0.00000000000E+00  0.11853466438E+04  0.11853466438E+04  0.00000000000E+00 0. -1.
         -2   -1    0    0    0  501 -0.00000000000E+00 -0.00000000000E+00 -0.15363467980E+02  0.15363467980E+02  0.00000000000E+00 0.  1.
         25    2    1    2    0    0 -0.20024097616E+02 -0.82228557572E+02  0.70515033091E+03  0.72114256321E+03  0.12508839724E+03 0.  0.
         23    2    1    2    0    0  0.20024097616E+02  0.82228557572E+02  0.46483284490E+03  0.47956754856E+03  0.82176394231E+02 0.  0.
          5    1    3    3  502    0  0.36430643272E+02 -0.64099092787E+02  0.55103698514E+03  0.55596323337E+03  0.41800000000E+01 0. -1.
         -5    1    3    3    0  502 -0.56454740888E+02 -0.18129464785E+02  0.15411334576E+03  0.16517932984E+03  0.41800000000E+01 0. -1.
        -11    1    4    4    0    0  0.36766768494E+02  0.14397889681E+02  0.90025552857E+02  0.98304092794E+02  0.00000000000E+00 0.  1.
         11    1    4    4    0    0 -0.16742670878E+02  0.67830667891E+02  0.37480729204E+03  0.38126345577E+03  0.00000000000E+00 0. -1.
</event>
<event>
 8    1  0.6627806E-009  0.1708946E+03  0.7561462E-02  0.1176918E+00
          2   -1    0    0  501    0  0.00000000000E+00  0.00000000000E+00  0.70044424318E+03  0.70044424318E+03  0.00000000000E+00 0. -1.
         -2   -1    0    0    0  501 -0.00000000000E+00 -0.00000000000E+00 -0.48071054977E+02  0.48071054977E+02  0.00000000000E+00 0.  1.
         25    2    1    2    0    0  0.11874241656E+03 -0.67651222850E+02  0.43991750155E+03  0.47733726350E+03  0.12508799107E+03 0.  0.
         23    2    1    2    0    0 -0.11874241656E+03  0.67651222850E+02  0.21245568665E+03  0.27117803466E+03  0.98608611430E+02 0.  0.
          5    1    3    3  502    0  0.16924324193E+02  0.32266631254E+02  0.14694475406E+03  0.15145230730E+03  0.41800000000E+01 0. -1.
         -5    1    3    3    0  502  0.10181809236E+03 -0.99917854104E+02  0.29297274749E+03  0.32588495619E+03  0.41800000000E+01 0. -1.
        -11    1    4    4    0    0 -0.94154110083E+02  0.40857832145E+01  0.86287456047E+02  0.12777799161E+03  0.00000000000E+00 0.  1.
         11    1    4    4    0    0 -0.24588306475E+02  0.63565439635E+02  0.12616823061E+03  0.14340004305E+03  0.00000000000E+00 0. -1.
</event>
<event>
 8    1  0.6627806E-009  0.1539213E+03  0.7561462E-02  0.1195736E+00
         -1   -1    0    0    0  501 -0.00000000000E+00  0.00000000000E+00  0.43612407592E+02  0.43612407592E+02  0.00000000000E+00 0.  1.
          1   -1    0    0  501    0  0.00000000000E+00 -0.00000000000E+00 -0.83850357329E+03  0.83850357329E+03  0.00000000000E+00 0. -1.
         25    2    1    2    0    0  0.11810728518E+03  0.86236717581E+02 -0.55078827394E+03  0.58343871000E+03  0.12508758272E+03 0.  0.
         23    2    1    2    0    0 -0.11810728518E+03 -0.86236717581E+02 -0.24410289176E+03  0.29867727088E+03  0.90751242969E+02 0.  0.
          5    1    3    3  502    0  0.10605187892E+03  0.42714339537E+02 -0.20563528274E+03  0.23531863023E+03  0.41800000000E+01 0.  1.
         -5    1    3    3    0  502  0.12055406261E+02  0.43522378044E+02 -0.34515299120E+03  0.34812007977E+03  0.41800000000E+01 0.  1.
        -11    1    4    4    0    0 -0.92622838621E+02 -0.54827469704E+02 -0.92974082103E+02  0.14222946815E+03  0.00000000000E+00 0. -1.
         11    1    4    4    0    0 -0.25484446563E+02 -0.31409247877E+02 -0.15112880965E+03  0.15644780272E+03  0.00000000000E+00 0.  1.
</event>
<event>
 8    1  0.6627806E-009  0.1215675E+03  0.7561462E-02  0.1240533E+00
          2   -1    0    0  501    0  0.00000000000E+00  0.00000000000E+00  0.18828618063E+04  0.18828618063E+04  0.00000000000E+00 0. -1.
         -2   -1    0    0    0  501 -0.00000000000E+00 -0.00000000000E+00 -0.84842357865E+01  0.84842357865E+01  0.00000000000E+00 0.  1.
         25    2    1    2    0    0 -0.31116358468E+02  0.47864359434E+02  0.12661345038E+04  0.12735786691E+04  0.12508724936E+03 0.  0.
         23    2    1    2    0    0  0.31116358468E+02 -0.47864359434E+02  0.60824306673E+03  0.61776737302E+03  0.91747884332E+02 0.  0.
          5    1    3    3  502    0  0.42718671797E+02  0.43367734288E+02  0.45619914216E+03  0.46026163755E+03  0.41800000000E+01 0. -1.
         -5    1    3    3    0  502 -0.73835030265E+02  0.44966251458E+01  0.80993536161E+03  0.81331703150E+03  0.41800000000E+01 0. -1.
        -11    1    4    4    0    0  0.45075654861E+02  0.11928344818E+02  0.25512286885E+03  0.25934875801E+03  0.00000000000E+00 0.  1.
         11    1    4    4    0    0 -0.13959296393E+02 -0.59792704251E+02  0.35312019787E+03  0.35841861501E+03  0.00000000000E+00 0. -1.
</event>
<event>
 8    1  0.6627806E-009  0.1863785E+03  0.7561462E-02  0.1161769E+00
         -1   -1    0    0    0  501 -0.00000000000E+00  0.00000000000E+00  0.14620984767E+03  0.14620984767E+03  0.00000000000E+00 0.  1.
          1   -1    0    0  501    0  0.00000000000E+00 -0.00000000000E+00 -0.24890284266E+03  0.24890284266E+03  0.00000000000E+00 0. -1.
         25    2    1    2    0    0  0.62076565436E+02 -0.14288707272E+03 -0.78910044121E+02  0.21481211807E+03  0.12508891031E+03 0.  0.
         23    2    1    2    0    0 -0.62076565436E+02  0.14288707272E+03 -0.23782950875E+02  0.18030057225E+03  0.87592534359E+02 0.  0.
          5    1    3    3  502    0  0.78373751751E+02 -0.31493071294E+02 -0.50974648370E+02  0.98742825964E+02  0.41800000000E+01 0. -1.
         -5    1    3    3    0  502 -0.16297186314E+02 -0.11139400142E+03 -0.27935395751E+02  0.11606929211E+03  0.41800000000E+01 0. -1.
        -11    1    4    4    0    0 -0.37856319016E+02  0.14625817789E+03 -0.32138902762E+02  0.15445861763E+03  0.00000000000E+00 0. -1.
         11    1    4    4    0    0 -0.24220246420E+02 -0.33711051722E+01  0.83559518869E+01  0.25841954622E+02  0.00000000000E+00 0.  1.
</event>
<event>
 8    1  0.6627806E-009  0.1484400E+03  0.7561462E-02  0.1202403E+00
         -1   -1    0    0    0  501 -0.00000000000E+00  0.00000000000E+00  0.41034690461E+02  0.41034690461E+02  0.00000000000E+00 0.  1.
          1   -1    0    0  501    0  0.00000000000E+00 -0.00000000000E+00 -0.56717653943E+03  0.56717653943E+03  0.00000000000E+00 0. -1.
         25    2    1    2    0    0  0.99865849479E+02 -0.17532466595E+02 -0.21733102400E+03  0.27048051983E+03  0.12508542017E+03 0.  0.
         23    2    1    2    0    0 -0.99865849479E+02  0.17532466595E+02 -0.30881082497E+03  0.33773071006E+03  0.91746016929E+02 0.  0.
          5    1    3    3  502    0 -0.15310615765E+02  0.31202866163E+02 -0.36484672383E+02  0.50563203328E+02  0.41800000000E+01 0. -1.
         -5    1    3    3    0  502  0.11517646524E+03 -0.48735332757E+02 -0.18084635162E+03  0.21991731651E+03  0.41800000000E+01 0. -1.
        -11    1    4    4    0    0 -0.81451149434E+02 -0.29186736823E+02 -0.19576357542E+03  0.21403161639E+03  0.00000000000E+00 0. -1.
         11    1    4    4    0    0 -0.18414700044E+02  0.46719203417E+02 -0.11304724954E+03  0.12369909367E+03  0.00000000000E+00 0.  1.
</event>
<event>
 8    1  0.6627806E-009  0.1697316E+03  0.7561462E-02  0.1178128E+00
          2   -1    0    0  501    0  0.00000000000E+00  0.00000000000E+00  0.25664506914E+03  0.25664506914E+03  0.00000000000E+00 0. -1.
         -2   -1    0    0    0  501 -0.00000000000E+00 -0.00000000000E+00 -0.12521912275E+03  0.12521912275E+03  0.00000000000E+00 0.  1.
         25    2    1    2    0    0  0.12041260727E+03  0.52057760034E+02  0.11616190783E+02  0.18163759471E+03  0.12509226017E+03 0.  0.
         23    2    1    2    0    0 -0.12041260727E+03 -0.52057760034E+02  0.11980975560E+03  0.20022659718E+03  0.92342332174E+02 0.  0.
          5    1    3    3  502    0 -0.10236018411E+02 -0.25392019762E+02  0.10720808028E+02  0.29697455535E+02  0.41800000000E+01 0. -1.
         -5    1    3    3    0  502  0.13064862568E+03  0.77449779796E+02  0.89538275445E+00  0.15194013917E+03  0.41800000000E+01 0. -1.
        -11    1    4    4    0    0 -0.40491651005E+02 -0.67230292512E+02  0.50228479919E+02  0.93179322960E+02  0.00000000000E+00 0.  1.
         11    1    4    4    0    0 -0.79920956262E+02  0.15172532478E+02  0.69581275682E+02  0.10704727422E+03  0.00000000000E+00 0. -1.
</event>
<event>
 8    1  0.6627806E-009  0.9169249E+02  0.7561462E-02  0.1298804E+00
          1   -1    0    0  501    0  0.00000000000E+00  0.00000000000E+00  0.54371361373E+03  0.54371361373E+03  0.00000000000E+00 0. -1.
         -1   -1    0    0    0  501 -0.00000000000E+00 -0.00000000000E+00 -0.21924749723E+02  0.21924749723E+02  0.00000000000E+00 0.  1.
         25    2    1    2    0    0 -0.39691920230E+01 -0.11923086521E+01  0.26411494611E+03  0.29226811318E+03  0.12508704624E+03 0.  0.
         23    2    1    2    0    0  0.39691920230E+01  0.11923086521E+01  0.25767391790E+03  0.27337025028E+03  0.91204548601E+02 0.  0.
          5    1    3    3  502    0  0.41715835274E+02 -0.14571597850E+02  0.30592989614E+02  0.53906825078E+02  0.41800000000E+01 0. -1.
         -5    1    3    3    0  502 -0.45685027297E+02  0.13379289198E+02  0.23352195649E+03  0.23836128810E+03  0.41800000000E+01 0. -1.
        -11    1    4    4    0    0 -0.23333841360E+02  0.38477661648E+02  0.12121135388E+03  0.12929497635E+03  0.00000000000E+00 0. -1.
         11    1    4    4    0    0  0.27303033383E+02 -0.37285352996E+02  0.13646256402E+03  0.14407527393E+03  0.00000000000E+00 0.  1.
</event>
<event>
 8    1  0.6627806E-009  0.1508603E+03  0.7561462E-02  0.1199420E+00
         -2   -1    0    0    0  501 -0.00000000000E+00  0.00000000000E+00  0.76764179055E+02  0.76764179055E+02  0.00000000000E+00 0.  1.
          2   -1    0    0  501    0  0.00000000000E+00 -0.00000000000E+00 -0.34358701729E+03  0.34358701729E+03  0.00000000000E+00 0. -1.
         25    2    1    2    0    0 -0.10233658086E+03 -0.26341828457E+02 -0.21681742661E+03  0.27170624742E+03  0.12509124947E+03 0.  0.
         23    2    1    2    0    0  0.10233658086E+03  0.26341828457E+02 -0.50005411622E+02  0.14864494893E+03  0.91804749010E+02 0.  0.
          5    1    3    3  502    0  0.11461677639E+02  0.31852836765E+02 -0.30715251249E+02  0.45900678901E+02  0.41800000000E+01 0. -1.
         -5    1    3    3    0  502 -0.11379825850E+03 -0.58194665222E+02 -0.18610217536E+03  0.22580556851E+03  0.41800000000E+01 0. -1.
        -11    1    4    4    0    0  0.75226957351E+02  0.60203471605E+02 -0.38585177719E+02  0.10379002382E+03  0.00000000000E+00 0. -1.
         11    1    4    4    0    0  0.27109623510E+02 -0.33861643148E+02 -0.11420233902E+02  0.44854925102E+02  0.00000000000E+00 0.  1.
</event>
<event>
 8    1  0.6627806E-009  0.1253272E+03  0.7561462E-02  0.1234559E+00
         -1   -1    0    0    0  501 -0.00000000000E+00  0.00000000000E+00  0.57996290902E+02  0.57996290902E+02  0.00000000000E+00 0.  1.
          1   -1    0    0  501    0  0.00000000000E+00 -0.00000000000E+00 -0.42257281462E+03  0.42257281462E+03  0.00000000000E+00 0. -1.
         25    2    1    2    0    0  0.25922401924E-02  0.70846657224E+02 -0.32896474025E+03  0.35900662021E+03  0.12509478079E+03 0.  0.
         23    2    1    2    0    0 -0.25922401923E-02 -0.70846657224E+02 -0.35611783475E+02  0.12156248532E+03  0.92141141015E+02 0.  0.
          5    1    3    3  502    0 -0.20428172877E+02 -0.30394304624E+02 -0.12535074123E+03  0.13065758580E+03  0.41800000000E+01 0.  1.
         -5    1    3    3    0  502  0.20430765118E+02  0.10124096185E+03 -0.20361399902E+03  0.22834903441E+03  0.41800000000E+01 0.  1.
        -11    1    4    4    0    0  0.20428447865E+02  0.12943398957E+02  0.72593701923E+01  0.25249782461E+02  0.00000000000E+00 0.  1.
         11    1    4    4    0    0 -0.20431040106E+02 -0.83790056181E+02 -0.42871153667E+02  0.96312702855E+02  0.00000000000E+00 0. -1.
</event>
<event>
 8    1  0.6627806E-009  0.7715842E+02  0.7561462E-02  0.1337314E+00
         -2   -1    0    0    0  501 -0.00000000000E+00  0.00000000000E+00  0.39941436484E+02  0.39941436484E+02  0.00000000000E+00 0. -1.
          2   -1    0    0  501    0  0.00000000000E+00 -0.00000000000E+00 -0.37469142863E+03  0.37469142863E+03  0.00000000000E+00 0.  1.
         25    2    1    2    0    0  0.56023426176E+02 -0.11560253989E+02 -0.17329973459E+03  0.22125214196E+03  0.12508976202E+03 0.  0.
         23    2    1    2    0    0 -0.56023426176E+02  0.11560253989E+02 -0.16145025756E+03  0.19338072315E+03  0.89764439886E+02 0.  0.
          5    1    3    3  502    0  0.44605180063E+02 -0.36294838939E+02 -0.13664130826E+02  0.59254690053E+02  0.41800000000E+01 0. -1.
         -5    1    3    3    0  502  0.11418246113E+02  0.24734584950E+02 -0.15963560376E+03  0.16199745191E+03  0.41800000000E+01 0. -1.
        -11    1    4    4    0    0 -0.26352979363E+02 -0.14084137174E+02 -0.14939325041E+03  0.15235217658E+03  0.00000000000E+00 0.  1.
         11    1    4    4    0    0 -0.29670446813E+02  0.25644391163E+02 -0.12057007148E+02  0.41028546569E+02  0.00000000000E+00 0. -1.
</event>
<event>
 8    1  0.6627806E-009  0.7356802E+02  0.7561462E-02  0.1348364E+00
          1   -1    0    0  501    0  0.00000000000E+00  0.00000000000E+00  0.10271729042E+03  0.10271729042E+03  0.00000000000E+00 0. -1.
         -1   -1    0    0    0  501 -0.00000000000E+00 -0.00000000000E+00 -0.11400819893E+03  0.11400819893E+03  0.00000000000E+00 0.  1.
         25    2    1    2    0    0 -0.17170195141E+02  0.68799072039E+01 -0.14566182365E+02  0.12729125987E+03  0.12509493373E+03 0.  0.
         23    2    1    2    0    0  0.17170195141E+02 -0.68799072039E+01  0.32752738489E+01  0.89434229487E+02  0.87439151762E+02 0.  0.
          5    1    3    3  502    0 -0.43552475135E+01 -0.34753158952E+02 -0.56548943455E+02  0.66648373153E+02  0.41800000000E+01 0.  1.
         -5    1    3    3    0  502 -0.12814947628E+02  0.41633066156E+02  0.41982761090E+02  0.60642886714E+02  0.41800000000E+01 0.  1.
        -11    1    4    4    0    0 -0.11299666830E+02 -0.29596046225E+02 -0.27346423337E+02  0.41850152831E+02  0.00000000000E+00 0.  1.
         11    1    4    4    0    0  0.28469861971E+02  0.22716139021E+02  0.30621697186E+02  0.47584076656E+02  0.00000000000E+00 0. -1.
</event>
<event>
 8    1  0.6627806E-009  0.1462718E+03  0.7561462E-02  0.1205130E+00
         -2   -1    0    0    0  501 -0.00000000000E+00  0.00000000000E+00  0.16679668285E+02  0.16679668285E+02  0.00000000000E+00 0.  1.
          2   -1    0    0  501    0  0.00000000000E+00 -0.00000000000E+00 -0.12969496796E+04  0.12969496796E+04  0.00000000000E+00 0. -1.
         25    2    1    2    0    0 -0.20520602854E+02  0.97709374126E+02 -0.74275006018E+03  0.75979743861E+03  0.12508508662E+03 0.  0.
         23    2    1    2    0    0  0.20520602854E+02 -0.97709374126E+02 -0.53751995117E+03  0.55383190930E+03  0.88509146005E+02 0.  0.
          5    1    3    3  502    0 -0.47706670685E+02 -0.91805905848E+01 -0.26659543854E+03  0.27101809889E+03  0.41800000000E+01 0. -1.
         -5    1    3    3    0  502  0.27186067831E+02  0.10688996471E+03 -0.47615462163E+03  0.48877933973E+03  0.41800000000E+01 0. -1.
        -11    1    4    4    0    0  0.42385778650E+02 -0.10259486891E+03 -0.44416568680E+03  0.45782684356E+03  0.00000000000E+00 0.  1.
         11    1    4    4    0    0 -0.21865175796E+02  0.48854947847E+01 -0.93354264367E+02  0.96005065738E+02  0.00000000000E+00 0. -1.
</event>
<event>
 8    1  0.6627806E-009  0.1800472E+03  0.7561462E-02  0.1167757E+00
         -1   -1    0    0    0  501 -0.00000000000E+00  0.00000000000E+00  0.31406075913E+03  0.31406075913E+03  0.00000000000E+00 0.  1.
          1   -1    0    0  501    0  0.00000000000E+00 -0.00000000000E+00 -0.11315230346E+03  0.11315230346E+03  0.00000000000E+00 0. -1.
         25    2    1    2    0    0 -0.25592862657E+02 -0.14840567400E+03  0.70437590869E+02  0.20805806094E+03  0.12508982300E+03 0.  0.
         23    2    1    2    0    0  0.25592862657E+02  0.14840567400E+03  0.13047086480E+03  0.21915500166E+03  0.91252558854E+02 0.  0.
          5    1    3    3  502    0 -0.67876038190E+02 -0.11382262421E+03  0.76273712872E+02  0.15296371471E+03  0.41800000000E+01 0.  1.
         -5    1    3    3    0  502  0.42283175533E+02 -0.34583049786E+02 -0.58361220030E+01  0.55094346223E+02  0.41800000000E+01 0.  1.
        -11    1    4    4    0    0  0.45994981007E+02  0.14489190733E+03  0.98747338055E+02  0.18127393596E+03  0.00000000000E+00 0.  1.
         11    1    4    4    0    0 -0.20402118350E+02  0.35137666737E+01  0.31723526743E+02  0.37881065698E+02  0.00000000000E+00 0. -1.
</event>
<event>
 8    1  0.6627806E-009  0.1124666E+03  0.7561462E-02  0.1256069E+00
         -2   -1    0    0    0  501 -0.00000000000E+00  0.00000000000E+00  0.17177896811E+03  0.17177896811E+03  0.00000000000E+00 0. -1.
          2   -1    0    0  501    0  0.00000000000E+00 -0.00000000000E+00 -0.89888673690E+02  0.89888673690E+02  0.00000000000E+00 0.  1.
         25    2    1    2    0    0  0.31194023039E+02 -0.49568335669E+02  0.30595354973E+02  0.14147808921E+03  0.12509950842E+03 0.  0.
         23    2    1    2    0    0 -0.31194023039E+02  0.49568335669E+02  0.51294939450E+02  0.12018955259E+03  0.91565663679E+02 0.  0.
          5    1    3    3  502    0  0.54579797748E+02  0.11223774535E+02 -0.19518506534E+02  0.59189289017E+02  0.41800000000E+01 0.  1.
         -5    1    3    3    0  502 -0.23385774710E+02 -0.60792110205E+02  0.50113861506E+02  0.82288800192E+02  0.41800000000E+01 0.  1.
        -11    1    4    4    0    0 -0.20321446079E+02 -0.22836489261E+02 -0.38417998342E+00  0.30571457387E+02  0.00000000000E+00 0.  1.
         11    1    4    4    0    0 -0.10872576959E+02  0.72404824930E+02  0.51679119433E+02  0.89618095206E+02  0.00000000000E+00 0. -1.
</event>
<event>
 8    1  0.6627806E-009  0.9874351E+02  0.7561462E-02  0.1282961E+00
          2   -1    0    0  501    0  0.00000000000E+00  0.00000000000E+00  0.42821100229E+03  0.42821100229E+03  0.00000000000E+00 0. -1.
         -2   -1    0    0    0  501 -0.00000000000E+00 -0.00000000000E+00 -0.37370895264E+02  0.37370895264E+02  0.00000000000E+00 0.  1.
         25    2    1    2    0    0 -0.15777225136E+02  0.22611238201E+02  0.10973088497E+03  0.16866519826E+03  0.12508754160E+03 0.  0.
         23    2    1    2    0    0  0.15777225136E+02 -0.22611238201E+02  0.28110922206E+03  0.29691669929E+03  0.91525639387E+02 0.  0.
          5    1    3    3  502    0 -0.36545376143E+02 -0.39532925239E+02  0.20228395561E+02  0.57663481358E+02  0.41800000000E+01 0. -1.
         -5    1    3    3    0  502  0.20768151007E+02  0.62144163440E+02  0.89502489405E+02  0.11100171690E+03  0.41800000000E+01 0. -1.
        -11    1    4    4    0    0 -0.75477197719E+01  0.24298369877E+02  0.25605474845E+02  0.36097357167E+02  0.00000000000E+00 0.  1.
         11    1    4    4    0    0  0.23324944908E+02 -0.46909608078E+02  0.25550374722E+03  0.26081934212E+03  0.00000000000E+00 0. -1.
</event>
<event>
 8    1  0.6627806E-009  0.1096035E+03  0.7561462E-02  0.1261306E+00
          1   -1    0    0  501    0  0.00000000000E+00  0.00000000000E+00  0.69892038562E+03  0.69892038562E+03  0.00000000000E+00 0. -1.
         -1   -1    0    0    0  501 -0.00000000000E+00 -0.00000000000E+00 -0.34212718742E+02  0.34212718742E+02  0.00000000000E+00 0.  1.
         25    2    1    2    0    0 -0.10665169623E+03  0.11688679863E+02  0.39517999266E+03  0.42816659735E+03  0.12509276135E+03 0.  0.
         23    2    1    2    0    0  0.10665169623E+03 -0.11688679863E+02  0.26952767422E+03  0.30496650701E+03  0.94064837667E+02 0.  0.
          5    1    3    3  502    0 -0.10205700188E+03  0.15337490082E+02  0.14577745332E+03  0.17866003619E+03  0.41800000000E+01 0. -1.
         -5    1    3    3    0  502 -0.45946943446E+01 -0.36488102188E+01  0.24940253934E+03  0.24950656115E+03  0.41800000000E+01 0. -1.
        -11    1    4    4    0    0  0.72652276756E+02 -0.16146430477E+02  0.68872946634E+02  0.10140287626E+03  0.00000000000E+00 0.  1.
         11    1    4    4    0    0  0.33999419469E+02  0.44577506144E+01  0.20065472758E+03  0.20356363076E+03  0.00000000000E+00 0. -1.
</event>
<event>
 8    1  0.6627806E-009  0.1280493E+03  0.7561462E-02  0.1230379E+00
          1   -1    0    0  501    0  0.00000000000E+00  0.00000000000E+00  0.38792584840E+03  0.38792584840E+03  0.00000000000E+00 0. -1.
         -1   -1    0    0    0  501 -0.00000000000E+00 -0.00000000000E+00 -0.50304728809E+02  0.50304728809E+02  0.00000000000E+00 0.  1.
         25    2    1    2    0    0  0.63519023261E+00 -0.73515850572E+02  0.10858331440E+03  0.18122661889E+03  0.12509103675E+03 0.  0.
         23    2    1    2    0    0 -0.63519023261E+00  0.73515850572E+02  0.22903780520E+03  0.25700395833E+03  0.90486101884E+02 0.  0.
          5    1    3    3  502    0 -0.56248380680E+02 -0.16053780368E+02  0.70648494309E+02  0.91816590773E+02  0.41800000000E+01 0.  1.
         -5    1    3    3    0  502  0.56883570912E+02 -0.57462070204E+02  0.37934820089E+02  0.89410028112E+02  0.41800000000E+01 0.  1.
        -11    1    4    4    0    0  0.44857233526E+02  0.35464751786E+02  0.10720622069E+03  0.12150347227E+03  0.00000000000E+00 0.  1.
         11    1    4    4    0    0 -0.45492423759E+02  0.38051098786E+02  0.12183158451E+03  0.13550048606E+03  0.00000000000E+00 0. -1.
</event>
<event>
 8    1  0.6627806E-009  0.1164306E+03  0.7561462E-02  0.1249104E+00
          2   -1    0    0  501    0  0.00000000000E+00  0.00000000000E+00  0.30009842734E+03  0.30009842734E+03  0.00000000000E+00 0.  1.
         -2   -1    0    0    0  501 -0.00000000000E+00 -0.00000000000E+00 -0.46187851065E+02  0.46187851065E+02  0.00000000000E+00 0. -1.
         25    2    1    2    0    0  0.13784665315E+02  0.47859861857E+02  0.15513329626E+03  0.20541214766E+03  0.12508887811E+03 0.  0.
         23    2    1    2    0    0 -0.13784665315E+02 -0.47859861857E+02  0.98777280016E+02  0.14087413074E+03  0.87223771355E+02 0.  0.
          5    1    3    3  502    0  0.67088947383E+02  0.40437739852E+02  0.10966915334E+03  0.13483669108E+03  0.41800000000E+01 0. -1.
         -5    1    3    3    0  502 -0.53304282068E+02  0.74221220049E+01  0.45464142912E+02  0.70575456588E+02  0.41800000000E+01 0. -1.
        -11    1    4    4    0    0  0.27863763853E+02 -0.51576384647E+02  0.58422568178E+02  0.82762970354E+02  0.00000000000E+00 0. -1.
         11    1    4    4    0    0 -0.41648429168E+02  0.37165227903E+01  0.40354711838E+02  0.58111160385E+02  0.00000000000E+00 0.  1.
</event>
<event>
 8    1  0.6627806E-009  0.1538970E+03  0.7561462E-02  0.1195764E+00
         -1   -1    0    0    0  501 -0.00000000000E+00  0.00000000000E+00  0.55786988057E+02  0.55786988057E+02  0.00000000000E+00 0.  1.
          1   -1    0    0  501    0  0.00000000000E+00 -0.00000000000E+00 -0.55624335383E+03  0.55624335383E+03  0.00000000000E+00 0. -1.
         25    2    1    2    0    0  0.19359869734E+01 -0.11214456186E+03 -0.39312224412E+03  0.42751969852E+03  0.12509133863E+03 0.  0.
         23    2    1    2    0    0 -0.19359869734E+01  0.11214456186E+03 -0.10733412165E+03  0.18451064337E+03  0.99716663831E+02 0.  0.
          5    1    3    3  502    0 -0.50562269427E+02 -0.10258430131E+03 -0.26334834134E+03  0.28714091184E+03  0.41800000000E+01 0.  1.
         -5    1    3    3    0  502  0.52498256401E+02 -0.95602605413E+01 -0.12977390278E+03  0.14037878668E+03  0.41800000000E+01 0.  1.
        -11    1    4    4    0    0  0.27738326338E+02  0.44210134886E+01 -0.53626141865E+02  0.60536957304E+02  0.00000000000E+00 0. -1.
         11    1    4    4    0    0 -0.29674313312E+02  0.10772354837E+03 -0.53707979789E+02  0.12397368606E+03  0.00000000000E+00 0.  1.
</event>
<event>
 8    1  0.6627806E-009  0.2608644E+03  0.7561462E-02  0.1106625E+00
          1   -1    0    0  501    0  0.00000000000E+00  0.00000000000E+00  0.42784395201E+03  0.42784395201E+03  0.00000000000E+00 0. -1.
         -1   -1    0    0    0  501 -0.00000000000E+00 -0.00000000000E+00 -0.19785184562E+03  0.19785184562E+03  0.00000000000E+00 0.  1.
         25    2    1    2    0    0  0.17038070316E+03  0.18386962359E+03  0.99124644643E+01  0.28032691973E+03  0.12508917814E+03 0.  0.
         23    2    1    2    0    0 -0.17038070316E+03 -0.18386962359E+03  0.22007964193E+03  0.34536887789E+03  0.89481788868E+02 0.  0.
          5    1    3    3  502    0  0.12840549446E+03  0.18682265794E+03 -0.21353953763E+02  0.22773699802E+03  0.41800000000E+01 0.  1.
         -5    1    3    3    0  502  0.41975208694E+02 -0.29530343487E+01  0.31266418227E+02  0.52589921711E+02  0.41800000000E+01 0.  1.
        -11    1    4    4    0    0 -0.45193909642E+02 -0.70937366789E+02  0.25466110067E+02  0.87881296290E+02  0.00000000000E+00 0.  1.
         11    1    4    4    0    0 -0.12518679352E+03 -0.11293225680E+03  0.19461353186E+03  0.25748758160E+03  0.00000000000E+00 0. -1.
</event>
<event>
 8    1  0.6627806E-009  0.1636837E+03  0.7561462E-02  0.1184600E+00
         -1   -1    0    0    0  501 -0.00000000000E+00  0.00000000000E+00  0.30329522611E+03  0.30329522611E+03  0.00000000000E+00 0.  1.
          1   -1    0    0  501    0  0.00000000000E+00 -0.00000000000E+00 -0.33474805399E+03  0.33474805399E+03  0.00000000000E+00 0. -1.
         25    2    1    2    0    0  0.16744368964E+02  0.14395486668E+03 -0.27840081493E+03  0.33787298161E+03  0.12509100854E+03 0.  0.
         23    2    1    2    0    0 -0.16744368964E+02 -0.14395486668E+03  0.24694798706E+03  0.30017029849E+03  0.90086193425E+02 0.  0.
          5    1    3    3  502    0 -0.85207544137E+01  0.13731236439E+03 -0.13765740679E+03  0.19466464167E+03  0.41800000000E+01 0.  1.
         -5    1    3    3    0  502  0.25265123377E+02  0.66425022904E+01 -0.14074340814E+03  0.14320833995E+03  0.41800000000E+01 0.  1.
        -11    1    4    4    0    0 -0.46010518092E+02 -0.70333410282E+02  0.83193680010E+02  0.11825795859E+03  0.00000000000E+00 0. -1.
         11    1    4    4    0    0  0.29266149129E+02 -0.73621456401E+02  0.16375430705E+03  0.18191233989E+03  0.00000000000E+00 0.  1.
</event>
<event>
 8    1  0.6627806E-009  0.9778029E+02  0.7561462E-02  0.1285034E+00
         -1   -1    0    0    0  501 -0.00000000000E+00  0.00000000000E+00  0.58630294072E+02  0.58630294072E+02  0.00000000000E+00 0.  1.
          1   -1    0    0  501    0  0.00000000000E+00 -0.00000000000E+00 -0.23040127980E+03  0.23040127980E+03  0.00000000000E+00 0. -1.
         25    2    1    2    0    0  0.14592764618E+02  0.36262944345E+02 -0.91250001464E+02  0.15969325542E+03  0.12508966044E+03 0.  0.
         23    2    1    2    0    0 -0.14592764618E+02 -0.36262944345E+02 -0.80520984261E+02  0.12933831844E+03  0.93363921297E+02 0.  0.
          5    1    3    3  502    0 -0.23351979243E+02  0.49224856451E+02 -0.10394006186E+03  0.11742831978E+03  0.41800000000E+01 0. -1.
         -5    1    3    3    0  502  0.37944743860E+02 -0.12961912106E+02  0.12690060397E+02  0.42264935643E+02  0.41800000000E+01 0. -1.
        -11    1    4    4    0    0  0.85295763866E-01  0.31382685792E+02 -0.18705432494E+02  0.36534551422E+02  0.00000000000E+00 0.  1.
         11    1    4    4    0    0 -0.14678060381E+02 -0.67645630136E+02 -0.61815551767E+02  0.92803767022E+02  0.00000000000E+00 0. -1.
</event>
<event>
 8    1  0.6627806E-009  0.1699129E+03  0.7561462E-02  0.1177939E+00
          1   -1    0    0  501    0  0.00000000000E+00  0.00000000000E+00  0.18251171144E+03  0.18251171144E+03  0.00000000000E+00 0. -1.
         -1   -1    0    0    0  501 -0.00000000000E+00 -0.00000000000E+00 -0.21089947213E+03  0.21089947213E+03  0.00000000000E+00 0.  1.
         25    2    1    2    0    0 -0.88563316592E+02 -0.99757036420E+02 -0.11004847641E+03  0.21343221448E+03  0.12509082962E+03 0.  0.
         23    2    1    2    0    0  0.88563316592E+02  0.99757036420E+02  0.81660715718E+02  0.17997896910E+03  0.89045097924E+02 0.  0.
          5    1    3    3  502    0  0.25127478575E+01  0.24775042586E+02 -0.31140599568E+02  0.40091470145E+02  0.41800000000E+01 0. -1.
         -5    1    3    3    0  502 -0.91076064449E+02 -0.12453207901E+03 -0.78907876845E+02  0.17334074433E+03  0.41800000000E+01 0. -1.
        -11    1    4    4    0    0  0.10414496410E+03  0.66651698996E+02  0.59695875924E+02  0.13730338718E+03  0.00000000000E+00 0.  1.
         11    1    4    4    0    0 -0.15581647513E+02  0.33105337423E+02  0.21964839794E+02  0.42675581921E+02  0.00000000000E+00 0. -1.
</event>
<event>
 8    1  0.6627806E-009  0.1983447E+03  0.7561462E-02  0.1151143E+00
         -2   -1    0    0    0  501 -0.00000000000E+00  0.00000000000E+00  0.46894024063E+02  0.46894024063E+02  0.00000000000E+00 0.  1.
          2   -1    0    0  501    0  0.00000000000E+00 -0.00000000000E+00 -0.13674571986E+04  0.13674571986E+04  0.00000000000E+00 0. -1.
         25    2    1    2    0    0 -0.15770415646E+03  0.97488180772E+02 -0.30450060240E+03  0.37781483926E+03  0.12509552170E+03 0.  0.
         23    2    1    2    0    0  0.15770415646E+03 -0.97488180772E+02 -0.10160625721E+04  0.10365363834E+04  0.87464148452E+02 0.  0.
          5    1    3    3  502    0 -0.11618136706E+03  0.94871759185E+02 -0.30040937818E+03  0.33580057720E+03  0.41800000000E+01 0.  1.
         -5    1    3    3    0  502 -0.41522789398E+02  0.26164215870E+01 -0.40912242156E+01  0.42014262066E+02  0.41800000000E+01 0.  1.
        -11    1    4    4    0    0  0.70957244939E+02  0.42942672485E+01 -0.37348024300E+03  0.38018530121E+03  0.00000000000E+00 0.  1.
         11    1    4    4    0    0  0.86746911521E+02 -0.10178244802E+03 -0.64258232909E+03  0.65635108216E+03  0.00000000000E+00 0. -1.
</event>
<event>
 8    1  0.6627806E-009  0.1037375E+03  0.7561462E-02  0.1272627E+00
         -1   -1    0    0    0  501 -0.00000000000E+00  0.00000000000E+00  0.27145637098E+02  0.27145637098E+02  0.00000000000E+00 0.  1.
          1   -1    0    0  501    0  0.00000000000E+00 -0.00000000000E+00 -0.46039572959E+03  0.46039572959E+03  0.00000000000E+00 0. -1.
         25    2    1    2    0    0 -0.24975498919E+02  0.22812747443E+01 -0.23633955861E+03  0.26857614025E+03  0.12509107236E+03 0.  0.
         23    2    1    2    0    0  0.24975498919E+02 -0.22812747443E+01 -0.19691053388E+03  0.21896522644E+03  0.92428525230E+02 0.  0.
          5    1    3    3  502    0 -0.81464177793E+01  0.62447700963E+02 -0.14140943447E+03  0.15485535197E+03  0.41800000000E+01 0.  1.
         -5    1    3    3    0  502 -0.16829081140E+02 -0.60166426218E+02 -0.94930124149E+02  0.11372078828E+03  0.41800000000E+01 0.  1.
        -11    1    4    4    0    0 -0.13082049180E+02  0.29429991541E+02 -0.13934901922E+03  0.14302242332E+03  0.00000000000E+00 0. -1.
         11    1    4    4    0    0  0.38057548099E+02 -0.31711266285E+02 -0.57561514659E+02  0.75942803126E+02  0.00000000000E+00 0.  1.
</event>
<event>
 8    1  0.6627806E-009  0.1866490E+03  0.7561462E-02  0.1161519E+00
         -1   -1    0    0    0  501 -0.00000000000E+00  0.00000000000E+00  0.52005819779E+03  0.52005819779E+03  0.00000000000E+00 0.  1.
          1   -1    0    0  501    0  0.00000000000E+00 -0.00000000000E+00 -0.94002051107E+02  0.94002051107E+02  0.00000000000E+00 0. -1.
         25    2    1    2    0    0 -0.14213271745E+03  0.58960649569E+02  0.58614639562E+02  0.20678360754E+03  0.12508283979E+03 0.  0.
         23    2    1    2    0    0  0.14213271745E+03 -0.58960649569E+02  0.36744150712E+03  0.40727664135E+03  0.84752190973E+02 0.  0.
          5    1    3    3  502    0  0.23095023267E+02  0.67203361274E+01  0.12434230253E+02  0.27397545499E+02  0.41800000000E+01 0. -1.
         -5    1    3    3    0  502 -0.16522774071E+03  0.52240313442E+02  0.46180409309E+02  0.17938606204E+03  0.41800000000E+01 0. -1.
        -11    1    4    4    0    0  0.84205619773E+02 -0.77786166265E+02  0.24727415010E+03  0.27255417695E+03  0.00000000000E+00 0.  1.
         11    1    4    4    0    0  0.57927097674E+02  0.18825516695E+02  0.12016735701E+03  0.13472246441E+03  0.00000000000E+00 0. -1.
</event>
<event>
 8    1  0.6627806E-009  0.3249903E+03  0.7561462E-02  0.1073375E+00
         -2   -1    0    0    0  501 -0.00000000000E+00  0.00000000000E+00  0.34131792738E+02  0.34131792738E+02  0.00000000000E+00 0.  1.
          2   -1    0    0  501    0  0.00000000000E+00 -0.00000000000E+00 -0.34254402882E+04  0.34254402882E+04  0.00000000000E+00 0. -1.
         25    2    1    2    0    0  0.68383643933E+02  0.30759275441E+03 -0.20904677348E+04  0.21177792211E+04  0.12507539075E+03 0.  0.
         23    2    1    2    0    0 -0.68383643933E+02 -0.30759275441E+03 -0.13008407606E+04  0.13417928599E+04  0.94508036897E+02 0.  0.
          5    1    3    3  502    0  0.90569896189E+02  0.28834577738E+03 -0.19961608690E+04  0.20189160163E+04  0.41800000000E+01 0.  1.
         -5    1    3    3    0  502 -0.22186252256E+02  0.19246977024E+02 -0.94306865801E+02  0.98863204738E+02  0.41800000000E+01 0.  1.
        -11    1    4    4    0    0 -0.31734789376E+02 -0.61132076761E+02 -0.16239726190E+03  0.17640039212E+03  0.00000000000E+00 0.  1.
         11    1    4    4    0    0 -0.36648854556E+02 -0.24646067764E+03 -0.11384434987E+04  0.11653924678E+04  0.00000000000E+00 0. -1.
</event>
<event>
 8    1  0.6627806E-009  0.1239932E+03  0.7561462E-02  0.1236651E+00
          2   -1    0    0  501    0  0.00000000000E+00  0.00000000000E+00  0.11132580534E+04  0.11132580534E+04  0.00000000000E+00 0. -1.
         -2   -1    0    0    0  501 -0.00000000000E+00 -0.00000000000E+00 -0.14033380265E+02  0.14033380265E+02  0.00000000000E+00 0.  1.
         25    2    1    2    0    0 -0.51979990690E+02 -0.38816815903E+02  0.56847480419E+03  0.58567914221E+03  0.12509112678E+03 0.  0.
         23    2    1    2    0    0  0.51979990690E+02  0.38816815903E+02  0.53074986900E+03  0.54161229150E+03  0.86254195469E+02 0.  0.
          5    1    3    3  502    0 -0.63600171512E+02  0.29928425255E+02  0.31354000750E+03  0.32134950001E+03  0.41800000000E+01 0. -1.
         -5    1    3    3    0  502  0.11620180822E+02 -0.68745241157E+02  0.25493479668E+03  0.26432964220E+03  0.41800000000E+01 0. -1.
        -11    1    4    4    0    0 -0.19992931986E+02  0.28800719324E+02  0.15757500643E+03  0.16142825470E+03  0.00000000000E+00 0. -1.
         11    1    4    4    0    0  0.71972922676E+02  0.10016096578E+02  0.37317486257E+03  0.38018403680E+03  0.00000000000E+00 0.  1.
</event>
<event>
 8    1  0.6627806E-009  0.6069771E+02  0.7561462E-02  0.1394927E+00
          2   -1    0    0  501    0  0.00000000000E+00  0.00000000000E+00  0.38244367821E+02  0.38244367821E+02  0.00000000000E+00 0. -1.
         -2   -1    0    0    0  501 -0.00000000000E+00 -0.00000000000E+00 -0.31609399986E+03  0.31609399986E+03  0.00000000000E+00 0.  1.
         25    2    1    2    0    0 -0.88653556899E+01 -0.17642866970E+02 -0.17257856903E+03  0.21406356016E+03  0.12509988014E+03 0.  0.
         23    2    1    2    0    0  0.88653556899E+01  0.17642866970E+02 -0.10527106300E+03  0.14027480753E+03  0.90582336214E+02 0.  0.
          5    1    3    3  502    0 -0.32059499665E+02 -0.13558524971E+02  0.45272208216E+01  0.35349869116E+02  0.41800000000E+01 0. -1.
         -5    1    3    3    0  502  0.23194143975E+02 -0.40843419993E+01 -0.17710578986E+03  0.17871369104E+03  0.41800000000E+01 0. -1.
        -11    1    4    4    0    0  0.40139319446E+01  0.39664901509E+02 -0.11020216780E+03  0.11719186768E+03  0.00000000000E+00 0.  1.
         11    1    4    4    0    0  0.48514237452E+01 -0.22022034540E+02  0.49311047960E+01  0.23082939850E+02  0.00000000000E+00 0. -1.
</event>
<event>
 8    1  0.6627806E-009  0.8214488E+02  0.7561462E-02  0.1323072E+00
         -2   -1    0    0    0  501 -0.00000000000E+00  0.00000000000E+00  0.37096572608E+02  0.37096572608E+02  0.00000000000E+00 0.  1.
          2   -1    0    0  501    0  0.00000000000E+00 -0.00000000000E+00 -0.37929507737E+03  0.37929507737E+03  0.00000000000E+00 0. -1.
         25    2    1    2    0    0 -0.40727096391E+02  0.11629055113E+02 -0.24315807126E+03  0.27670705900E+03  0.12508803930E+03 0.  0.
         23    2    1    2    0    0  0.40727096391E+02 -0.11629055113E+02 -0.99040433497E+02  0.13968459098E+03  0.88931693932E+02 0.  0.
          5    1    3    3  502    0 -0.62174340893E+02  0.46294067931E+02 -0.21034052519E+03  0.22420838149E+03  0.41800000000E+01 0. -1.
         -5    1    3    3    0  502  0.21447244501E+02 -0.34665012818E+02 -0.32817546068E+02  0.52498677510E+02  0.41800000000E+01 0. -1.
        -11    1    4    4    0    0  0.15837406670E+02  0.39471800157E+01  0.14852308596E+02  0.22067957557E+02  0.00000000000E+00 0.  1.
         11    1    4    4    0    0  0.24889689722E+02 -0.15576235129E+02 -0.11389274209E+03  0.11761663342E+03  0.00000000000E+00 0. -1.
</event>
<event>
 8    1  0.6627806E-009  0.1284248E+03  0.7561462E-02  0.1229812E+00
          1   -1    0    0  501    0  0.00000000000E+00  0.00000000000E+00  0.21914711554E+03  0.21914711554E+03  0.00000000000E+00 0. -1.
         -1   -1    0    0    0  501 -0.00000000000E+00 -0.00000000000E+00 -0.10977108262E+03  0.10977108262E+03  0.00000000000E+00 0.  1.
         25    2    1    2    0    0  0.10104169652E+03  0.23862424571E+02  0.22130608239E+02  0.16407423993E+03  0.12510696482E+03 0.  0.
         23    2    1    2    0    0 -0.10104169652E+03 -0.23862424571E+02  0.87245424675E+02  0.16484395823E+03  0.93717269992E+02 0.  0.
          5    1    3    3  502    0  0.10154926881E+03 -0.16037003104E+02 -0.21165115569E+02  0.10504700843E+03  0.41800000000E+01 0.  1.
         -5    1    3    3    0  502 -0.50757228521E+00  0.39899427676E+02  0.43295723808E+02  0.59027231500E+02  0.41800000000E+01 0.  1.
        -11    1    4    4    0    0 -0.47584376689E+02  0.12481307963E+02  0.87295067518E+02  0.10020221937E+03  0.00000000000E+00 0. -1.
         11    1    4    4    0    0 -0.53457319832E+02 -0.36343732534E+02 -0.49642843485E-01  0.64641738858E+02  0.00000000000E+00 0.  1.
</event>
<event>
 8    1  0.6627806E-009  0.1119325E+03  0.7561462E-02  0.1257033E+00
         -2   -1    0    0    0  501 -0.00000000000E+00  0.00000000000E+00  0.12311627096E+02  0.12311627096E+02  0.00000000000E+00 0.  1.
          2   -1    0    0  501    0  0.00000000000E+00 -0.00000000000E+00 -0.14066401503E+04  0.14066401503E+04  0.00000000000E+00 0. -1.
         25    2    1    2    0    0  0.62284644826E+02  0.75263117023E+01 -0.97197192424E+03  0.98199398959E+03  0.12508697672E+03 0.  0.
         23    2    1    2    0    0 -0.62284644826E+02 -0.75263117023E+01 -0.42235659896E+03  0.43695778780E+03  0.92795416275E+02 0.  0.
          5    1    3    3  502    0 -0.15977065509E+02  0.30555594115E+02 -0.60697526730E+03  0.60796822159E+03  0.41800000000E+01 0.  1.
         -5    1    3    3    0  502  0.78261710334E+02 -0.23029282412E+02 -0.36499665694E+03  0.37402576800E+03  0.41800000000E+01 0.  1.
        -11    1    4    4    0    0 -0.47340493259E+02 -0.46099789536E+02 -0.19562985273E+03  0.20648814052E+03  0.00000000000E+00 0.  1.
         11    1    4    4    0    0 -0.14944151567E+02  0.38573477834E+02 -0.22672674624E+03  0.23046964728E+03  0.00000000000E+00 0. -1.
</event>
<event>
 8    1  0.6627806E-009  0.2064163E+03  0.7561462E-02  0.1144436E+00
         -2   -1    0    0    0  501 -0.00000000000E+00  0.00000000000E+00  0.10304141355E+03  0.10304141355E+03  0.00000000000E+00 0. -1.
          2   -1    0    0  501    0  0.00000000000E+00 -0.00000000000E+00 -0.56683181383E+03  0.56683181383E+03  0.00000000000E+00 0.  1.
         25    2    1    2    0    0  0.18129201481E+03 -0.97721327056E+02 -0.14965687613E+03  0.28365084741E+03  0.12507745708E+03 0.  0.
         23    2    1    2    0    0 -0.18129201481E+03  0.97721327056E+02 -0.31413352414E+03  0.38622237997E+03  0.89842102626E+02 0.  0.
          5    1    3    3  502    0  0.11254599077E+03 -0.64429034696E+02 -0.16050231059E+03  0.20638838305E+03  0.41800000000E+01 0.  1.
         -5    1    3    3    0  502  0.68746024032E+02 -0.33292292360E+02  0.10845434461E+02  0.77262464363E+02  0.41800000000E+01 0.  1.
        -11    1    4    4    0    0 -0.12949778874E+03  0.77928637816E+02 -0.14984213658E+03  0.21282672712E+03  0.00000000000E+00 0. -1.
         11    1    4    4    0    0 -0.51794226069E+02  0.19792689240E+02 -0.16429138756E+03  0.17339565285E+03  0.00000000000E+00 0.  1.
</event>
<event>
 8    1  0.6627806E-009  0.1256925E+03  0.7561462E-02  0.1233991E+00
          1   -1    0    0  501    0  0.00000000000E+00  0.00000000000E+00  0.10546751728E+03  0.10546751728E+03  0.00000000000E+00 0. -1.
         -1   -1    0    0    0  501 -0.00000000000E+00 -0.00000000000E+00 -0.16243779437E+03  0.16243779437E+03  0.00000000000E+00 0.  1.
         25    2    1    2    0    0 -0.26219952846E+02  0.61691440471E+02 -0.26423403973E+02  0.14435926353E+03  0.12509228967E+03 0.  0.
         23    2    1    2    0    0  0.26219952846E+02 -0.61691440471E+02 -0.30546873113E+02  0.12354604812E+03  0.99182633537E+02 0.  0.
          5    1    3    3  502    0 -0.28724618084E+02  0.98178591845E+02 -0.31692674279E+02  0.10717293307E+03  0.41800000000E+01 0.  1.
         -5    1    3    3    0  502  0.25046652375E+01 -0.36487151374E+02  0.52692703067E+01  0.37186330458E+02  0.41800000000E+01 0.  1.
        -11    1    4    4    0    0  0.52589795782E+02 -0.91129976528E+01  0.68990825490E+01  0.53817568569E+02  0.00000000000E+00 0. -1.
         11    1    4    4    0    0 -0.26369842936E+02 -0.52578442818E+02 -0.37445955662E+02  0.69728479555E+02  0.00000000000E+00 0.  1.
</event>
<event>
 8    1  0.6627806E-009  0.1403641E+03  0.7561462E-02  0.1212840E+00
          4   -1    0    0  501    0  0.00000000000E+00  0.00000000000E+00  0.71476513118E+03  0.71476513118E+03  0.00000000000E+00 0. -1.
         -4   -1    0    0    0  501 -0.00000000000E+00 -0.00000000000E+00 -0.63843613769E+02  0.63843613769E+02  0.00000000000E+00 0.  1.
         25    2    1    2    0    0  0.10600276035E+03  0.26141048540E+02  0.60506851166E+03  0.62743562715E+03  0.12509045845E+03 0.  0.
         23    2    1    2    0    0 -0.10600276035E+03 -0.26141048540E+02  0.45853005748E+02  0.15117311779E+03  0.93972728951E+02 0.  0.
          5    1    3    3  502    0  0.12450431040E+03  0.17906704873E+02  0.58581529016E+03  0.59918194229E+03  0.41800000000E+01 0. -1.
         -5    1    3    3    0  502 -0.18501550049E+02  0.82343436663E+01  0.19253221500E+02  0.28253684857E+02  0.41800000000E+01 0. -1.
        -11    1    4    4    0    0 -0.76541732101E+02  0.20308866158E+02 -0.57643059857E+00  0.79192291733E+02  0.00000000000E+00 0.  1.
         11    1    4    4    0    0 -0.29461028252E+02 -0.46449914698E+02  0.46429436346E+02  0.71980826062E+02  0.00000000000E+00 0. -1.
</event>
<event>
 8    1  0.6627806E-009  0.1166282E+03  0.7561462E-02  0.1248765E+00
          1   -1    0    0  501    0  0.00000000000E+00  0.00000000000E+00  0.53753696898E+03  0.53753696898E+03  0.00000000000E+00 0. -1.
         -1   -1    0    0    0  501 -0.00000000000E+00 -0.00000000000E+00 -0.44910061763E+02  0.44910061763E+02  0.00000000000E+00 0.  1.
         25    2    1    2    0    0 -0.91178231251E+02  0.41584592732E+02  0.35960251132E+03  0.39370266655E+03  0.12508027538E+03 0.  0.
         23    2    1    2    0    0  0.91178231251E+02 -0.41584592732E+02  0.13302439589E+03  0.18874436419E+03  0.88804261752E+02 0.  0.
          5    1    3    3  502    0 -0.49506175855E+02  0.34860485331E+02  0.34271406203E+03  0.34804671468E+03  0.41800000000E+01 0. -1.
         -5    1    3    3    0  502 -0.41672055396E+02  0.67241074007E+01  0.16888449290E+02  0.45655951865E+02  0.41800000000E+01 0. -1.
        -11    1    4    4    0    0  0.96443098180E+02 -0.58249914261E+02  0.96869233189E+02  0.14858658094E+03  0.00000000000E+00 0.  1.
         11    1    4    4    0    0 -0.52648669282E+01  0.16665321529E+02  0.36155162701E+02  0.40157783248E+02  0.00000000000E+00 0. -1.
</event>
<event>
 7    1  0.6627806E-009  0.1401856E+03  0.7561462E-02  0.1213079E+00
          3   -1    0    0  501    0  0.00000000000E+00  0.00000000000E+00  0.17362029402E+03  0.17362029402E+03  0.00000000000E+00 0. -1.
         -3   -1    0    0    0  501 -0.00000000000E+00 -0.00000000000E+00 -0.11383304664E+03  0.11383304664E+03  0.00000000000E+00 0.  1.
         23    2    1    2    0    0  0.79496286558E+02  0.23309308076E+02  0.32139194787E+02  0.12695435386E+03  0.90672469380E+02 0.  0.
          5    1    1    2  502    0 -0.61582572987E+02  0.51796073398E+02  0.10103600090E+02  0.81208384111E+02  0.41800000000E+01 0. -1.
         -5    1    1    2    0  502 -0.17913713570E+02 -0.75105381474E+02  0.17544452507E+02  0.79290602684E+02  0.41800000000E+01 0. -1.
        -11    1    3    3    0    0  0.43935803960E+02 -0.33635418695E+02  0.19297881315E+02  0.58601232783E+02  0.00000000000E+00 0.  1.
         11    1    3    3    0    0  0.35560482597E+02  0.56944726770E+02  0.12841313471E+02  0.68353121078E+02  0.00000000000E+00 0. -1.
</event>
<event>
 8    1  0.6627806E-009  0.7044191E+02  0.7561462E-02  0.1358597E+00
         -2   -1    0    0    0  501 -0.00000000000E+00  0.00000000000E+00  0.32213394510E+02  0.32213394510E+02  0.00000000000E+00 0. -1.
          2   -1    0    0  501    0  0.00000000000E+00 -0.00000000000E+00 -0.39726095019E+03  0.39726095019E+03  0.00000000000E+00 0.  1.
         25    2    1    2    0    0 -0.30018642791E+02  0.81970342340E+01 -0.23754905658E+03  0.27027014136E+03  0.12509230490E+03 0.  0.
         23    2    1    2    0    0  0.30018642791E+02 -0.81970342340E+01 -0.12749849910E+03  0.15920420333E+03  0.90121034179E+02 0.  0.
          5    1    3    3  502    0  0.14168793990E+01 -0.12305862375E+02  0.12080551955E+02  0.17800391332E+02  0.41800000000E+01 0.  1.
         -5    1    3    3    0  502 -0.31435522190E+02  0.20502896609E+02 -0.24962960853E+03  0.25246975003E+03  0.41800000000E+01 0.  1.
        -11    1    4    4    0    0 -0.10680458034E+02 -0.38084136081E+02 -0.82824854412E+02  0.91784694329E+02  0.00000000000E+00 0.  1.
         11    1    4    4    0    0  0.40699100825E+02  0.29887101847E+02 -0.44673644687E+02  0.67419509004E+02  0.00000000000E+00 0. -1.
</event>
<event>
 8    1  0.6627806E-009  0.1573081E+03  0.7561462E-02  0.1191770E+00
          2   -1    0    0  501    0  0.00000000000E+00  0.00000000000E+00  0.10865835339E+04  0.10865835339E+04  0.00000000000E+00 0. -1.
         -2   -1    0    0    0  501 -0.00000000000E+00 -0.00000000000E+00 -0.26059954374E+02  0.26059954374E+02  0.00000000000E+00 0.  1.
         25    2    1    2    0    0 -0.10652102980E+03 -0.44122275651E+02  0.73731703357E+03  0.75668828157E+03  0.12508893829E+03 0.  0.
         23    2    1    2    0    0  0.10652102980E+03  0.44122275651E+02  0.32320654593E+03  0.35595520667E+03  0.94594570813E+02 0.  0.
          5    1    3    3  502    0  0.17735528361E+02 -0.41582024224E+02  0.17590590239E+03  0.18166995514E+03  0.41800000000E+01 0. -1.
         -5    1    3    3    0  502 -0.12425655816E+03 -0.25402514270E+01  0.56141113118E+03  0.57501832643E+03  0.41800000000E+01 0. -1.
        -11    1    4    4    0    0  0.61589384854E+02  0.69820322221E+02  0.24575374187E+03  0.26279846150E+03  0.00000000000E+00 0. -1.
         11    1    4    4    0    0  0.44931644945E+02 -0.25698046570E+02  0.77452804052E+02  0.93156745169E+02  0.00000000000E+00 0.  1.
</event>
<event>
 8    1  0.6627806E-009  0.1050451E+03  0.7561462E-02  0.1270031E+00
         -2   -1    0    0    0  501 -0.00000000000E+00  0.00000000000E+00  0.42560514036E+02  0.42560514036E+02  0.00000000000E+00 0.  1.
          2   -1    0    0  501    0  0.00000000000E+00 -0.00000000000E+00 -0.39699781472E+03  0.39699781472E+03  0.00000000000E+00 0. -1.
         25    2    1    2    0    0 -0.10815852464E+02  0.70033674666E+02 -0.16035443967E+03  0.21536662747E+03  0.12509012612E+03 0.  0.
         23    2    1    2    0    0  0.10815852464E+02 -0.70033674666E+02 -0.19408286102E+03  0.22419170129E+03  0.87017605896E+02 0.  0.
          5    1    3    3  502    0  0.31960999400E+02  0.76419848124E+02 -0.14888166397E+03  0.17042511827E+03  0.41800000000E+01 0.  1.
         -5    1    3    3    0  502 -0.42776851864E+02 -0.63861734578E+01 -0.11472775696E+02  0.44941509198E+02  0.41800000000E+01 0.  1.
        -11    1    4    4    0    0  0.17139063162E+02 -0.43122884120E+01  0.15274276134E+01  0.17739119272E+02  0.00000000000E+00 0.  1.
         11    1    4    4    0    0 -0.63232106983E+01 -0.65721386254E+02 -0.19561028863E+03  0.20645258202E+03  0.00000000000E+00 0. -1.
</event>
<event>
 8    1  0.6627806E-009  0.9268720E+02  0.7561462E-02  0.1296472E+00
         -1   -1    0    0    0  501 -0.00000000000E+00  0.00000000000E+00  0.10145006814E+03  0.10145006814E+03  0.00000000000E+00 0.  1.
          1   -1    0    0  501    0  0.00000000000E+00 -0.00000000000E+00 -0.11411744391E+03  0.11411744391E+03  0.00000000000E+00 0. -1.
         25    2    1    2    0    0 -0.37874500073E+01 -0.46697954574E+02  0.22094694705E+02  0.13539020334E+03  0.12508911978E+03 0.  0.
         23    2    1    2    0    0  0.37874500073E+01  0.46697954574E+02 -0.34762070475E+02  0.80177308709E+02  0.54999595899E+02 0.  0.
          5    1    3    3  502    0  0.99352394911E+01  0.37594533575E+02 -0.15392264623E+02  0.42029182108E+02  0.41800000000E+01 0.  1.
         -5    1    3    3    0  502 -0.13722689498E+02 -0.84292488149E+02  0.37486959328E+02  0.93361021230E+02  0.41800000000E+01 0.  1.
        -11    1    4    4    0    0  0.21153896050E+02  0.29671172269E+02  0.15501190799E+01  0.36472848134E+02  0.00000000000E+00 0.  1.
         11    1    4    4    0    0 -0.17366446042E+02  0.17026782306E+02 -0.36312189555E+02  0.43704460575E+02  0.00000000000E+00 0. -1.
</event>
<event>
 8    1  0.6627806E-009  0.9607735E+02  0.7561462E-02  0.1288768E+00
          2   -1    0    0  501    0  0.00000000000E+00  0.00000000000E+00  0.24706858699E+03  0.24706858699E+03  0.00000000000E+00 0. -1.
         -2   -1    0    0    0  501 -0.00000000000E+00 -0.00000000000E+00 -0.52587228173E+02  0.52587228173E+02  0.00000000000E+00 0.  1.
         25    2    1    2    0    0  0.12825948817E+02  0.27786878411E+02  0.12640350688E+03  0.18044440557E+03  0.12508285803E+03 0.  0.
         23    2    1    2    0    0 -0.12825948817E+02 -0.27786878411E+02  0.68077851937E+02  0.11921140960E+03  0.92952410830E+02 0.  0.
          5    1    3    3  502    0 -0.32440568840E+02 -0.19399098761E+02 -0.44731864958E-01  0.38028804087E+02  0.41800000000E+01 0.  1.
         -5    1    3    3    0  502  0.45266517657E+02  0.47185977172E+02  0.12644823875E+03  0.14241560148E+03  0.41800000000E+01 0.  1.
        -11    1    4    4    0    0  0.21800805465E+02  0.20004034492E+02  0.63765084240E+00  0.29594646703E+02  0.00000000000E+00 0.  1.
         11    1    4    4    0    0 -0.34626754282E+02 -0.47790912903E+02  0.67440201094E+02  0.89616762895E+02  0.00000000000E+00 0. -1.
</event>
<event>
 8    1  0.6627806E-009  0.8995773E+02  0.7561462E-02  0.1302954E+00
         -2   -1    0    0    0  501 -0.00000000000E+00  0.00000000000E+00  0.80130065508E+02  0.80130065508E+02  0.00000000000E+00 0.  1.
          2   -1    0    0  501    0  0.00000000000E+00 -0.00000000000E+00 -0.16871894245E+03  0.16871894245E+03  0.00000000000E+00 0. -1.
         25    2    1    2    0    0 -0.38659389972E+02  0.14561567139E+02 -0.58083548362E+02  0.14396836487E+03  0.12508638544E+03 0.  0.
         23    2    1    2    0    0  0.38659389972E+02 -0.14561567139E+02 -0.30505328579E+02  0.10488064308E+03  0.91448272545E+02 0.  0.
          5    1    3    3  502    0  0.22033151092E+02  0.21722451435E+02 -0.74307266556E+02  0.80600042843E+02  0.41800000000E+01 0. -1.
         -5    1    3    3    0  502 -0.60692541064E+02 -0.71608842963E+01  0.16223718194E+02  0.63368322029E+02  0.41800000000E+01 0. -1.
        -11    1    4    4    0    0  0.49949033198E+02 -0.37106467973E+02  0.37613364011E+01  0.62337336600E+02  0.00000000000E+00 0.  1.
         11    1    4    4    0    0 -0.11289643226E+02  0.22544900834E+02 -0.34266664980E+02  0.42543306484E+02  0.00000000000E+00 0. -1.
</event>
<event>
 8    1  0.6627806E-009  0.6625353E+02  0.7561462E-02  0.1373317E+00
          1   -1    0    0  501    0  0.00000000000E+00  0.00000000000E+00  0.76320367418E+02  0.76320367418E+02  0.00000000000E+00 0. -1.
         -1   -1    0    0    0  501 -0.00000000000E+00 -0.00000000000E+00 -0.29603947202E+03  0.29603947202E+03  0.00000000000E+00 0.  1.
         25    2    1    2    0    0  0.37838411013E+02 -0.46662823464E+02 -0.14086596499E+02  0.13948168391E+03  0.12509014151E+03 0.  0.
         23    2    1    2    0    0 -0.37838411013E+02  0.46662823464E+02 -0.20563250810E+03  0.23287815553E+03  0.91314525085E+02 0.  0.
          5    1    3    3  502    0  0.25918515719E+02 -0.28433296280E+02  0.54814376196E+02  0.67099255079E+02  0.41800000000E+01 0.  1.
         -5    1    3    3    0  502  0.11919895294E+02 -0.18229527185E+02 -0.68900972695E+02  0.72382428832E+02  0.41800000000E+01 0.  1.
        -11    1    4    4    0    0 -0.39822858899E+01  0.35875281994E+02 -0.15211047652E+02  0.39169764229E+02  0.00000000000E+00 0. -1.
         11    1    4    4    0    0 -0.33856125123E+02  0.10787541470E+02 -0.19042146045E+03  0.19370839130E+03  0.00000000000E+00 0.  1.
</event>
<event>
 8    1  0.6627806E-009  0.8351405E+02  0.7561462E-02  0.1319365E+00
          4   -1    0    0  501    0  0.00000000000E+00  0.00000000000E+00  0.79838775673E+02  0.79838775673E+02  0.00000000000E+00 0. -1.
         -4   -1    0    0    0  501 -0.00000000000E+00 -0.00000000000E+00 -0.18041681092E+03  0.18041681092E+03  0.00000000000E+00 0.  1.
         25    2    1    2    0    0 -0.37576743868E+02  0.12069009878E+02 -0.92702776868E+02  0.16062427558E+03  0.12509468568E+03 0.  0.
         23    2    1    2    0    0  0.37576743868E+02 -0.12069009878E+02 -0.78752583812E+01  0.99631311017E+02  0.91141131008E+02 0.  0.
          5    1    3    3  502    0  0.12045888013E+02  0.52649079911E+02 -0.86859259467E+01  0.54862981536E+02  0.41800000000E+01 0. -1.
         -5    1    3    3    0  502 -0.49622631881E+02 -0.40580070032E+02 -0.84016850921E+02  0.10576129404E+03  0.41800000000E+01 0. -1.
        -11    1    4    4    0    0  0.18409366366E+02 -0.20609460211E+02  0.39274852526E+02  0.48022584907E+02  0.00000000000E+00 0. -1.
         11    1    4    4    0    0  0.19167377502E+02  0.85404503332E+01 -0.47150110907E+02  0.51608726111E+02  0.00000000000E+00 0.  1.
</event>
<event>
 8    1  0.6627806E-009  0.9724073E+02  0.7561462E-02  0.1286208E+00
         -1   -1    0    0    0  501 -0.00000000000E+00  0.00000000000E+00  0.18790852093E+03  0.18790852093E+03  0.00000000000E+00 0.  1.
          1   -1    0    0  501    0  0.00000000000E+00 -0.00000000000E+00 -0.72551173343E+02  0.72551173343E+02  0.00000000000E+00 0. -1.
         25    2    1    2    0    0  0.29558035374E+02 -0.12644457425E+02  0.32287322740E+02  0.13312916047E+03  0.12508933767E+03 0.  0.
         23    2    1    2    0    0 -0.29558035374E+02  0.12644457425E+02  0.83070024848E+02  0.12733053381E+03  0.90988329209E+02 0.  0.
          5    1    3    3  502    0  0.34122213730E+02 -0.59968830925E+02  0.46526122602E+02  0.83323097858E+02  0.41800000000E+01 0. -1.
         -5    1    3    3    0  502 -0.45641783554E+01  0.47324373500E+02 -0.14238799862E+02  0.49806062611E+02  0.41800000000E+01 0. -1.
        -11    1    4    4    0    0 -0.52969074812E+02  0.11428915970E+02  0.16333149715E+02  0.56596066881E+02  0.00000000000E+00 0.  1.
         11    1    4    4    0    0  0.23411039438E+02  0.12155414554E+01  0.66736875134E+02  0.70734466925E+02  0.00000000000E+00 0. -1.
</event>
<event>
 8    1  0.6627806E-009  0.2489899E+03  0.7561462E-02  0.1113945E+00
         -1   -1    0    0    0  501 -0.00000000000E+00  0.00000000000E+00  0.40165919174E+03  0.40165919174E+03  0.00000000000E+00 0.  1.
          1   -1    0    0  501    0  0.00000000000E+00 -0.00000000000E+00 -0.18638857129E+03  0.18638857129E+03  0.00000000000E+00 0. -1.
         25    2    1    2    0    0 -0.16356419888E+03 -0.17155716618E+03  0.23576304438E+02  0.26905177086E+03  0.12509158584E+03 0.  0.
         23    2    1    2    0    0  0.16356419888E+03  0.17155716618E+03  0.19169431601E+03  0.31899599217E+03  0.93950113381E+02 0.  0.
          5    1    3    3  502    0 -0.13481171061E+03 -0.18140585885E+03  0.46461245162E+02  0.23077782096E+03  0.41800000000E+01 0.  1.
         -5    1    3    3    0  502 -0.28752488273E+02  0.98486926731E+01 -0.22884940724E+02  0.38273949903E+02  0.41800000000E+01 0. -1.
        -11    1    4    4    0    0  0.12994684305E+03  0.15903806818E+03  0.19470052317E+03  0.28299749623E+03  0.00000000000E+00 0.  1.
         11    1    4    4    0    0  0.33617355835E+02  0.12519097997E+02 -0.30062071653E+01  0.35998495934E+02  0.00000000000E+00 0. -1.
</event>
<event>
 8    1  0.6627806E-009  0.8381255E+02  0.7561462E-02  0.1318567E+00
         -2   -1    0    0    0  501 -0.00000000000E+00  0.00000000000E+00  0.59721924173E+02  0.59721924173E+02  0.00000000000E+00 0.  1.
          2   -1    0    0  501    0  0.00000000000E+00 -0.00000000000E+00 -0.40411059229E+03  0.40411059229E+03  0.00000000000E+00 0. -1.
         25    2    1    2    0    0  0.57018590167E+02  0.12240264488E+02 -0.32863465185E+03  0.35644267391E+03  0.12509876773E+03 0.  0.
         23    2    1    2    0    0 -0.57018590167E+02 -0.12240264488E+02 -0.15754016257E+02  0.10738984255E+03  0.88788769303E+02 0.  0.
          5    1    3    3  502    0  0.42814352954E+02 -0.80672372502E+01 -0.32840572312E+03  0.33130943317E+03  0.41800000000E+01 0.  1.
         -5    1    3    3    0  502  0.14204237213E+02  0.20307501738E+02 -0.22892873944E+00  0.25133240738E+02  0.41800000000E+01 0.  1.
        -11    1    4    4    0    0 -0.73291475985E+02 -0.25638224440E+02 -0.28552711238E+02  0.82729778941E+02  0.00000000000E+00 0. -1.
         11    1    4    4    0    0  0.16272885819E+02  0.13397959952E+02  0.12798694981E+02  0.24660063604E+02  0.00000000000E+00 0.  1.
</event>
<event>
 8    1  0.6627806E-009  0.9081500E+02  0.7561462E-02  0.1300890E+00
          1   -1    0    0  501    0  0.00000000000E+00  0.00000000000E+00  0.12782905235E+03  0.12782905235E+03  0.00000000000E+00 0. -1.
         -1   -1    0    0    0  501 -0.00000000000E+00 -0.00000000000E+00 -0.10515323457E+03  0.10515323457E+03  0.00000000000E+00 0.  1.
         25    2    1    2    0    0  0.33475757598E+02 -0.13479321669E+02  0.33621173003E+02  0.13446502825E+03  0.12509253411E+03 0.  0.
         23    2    1    2    0    0 -0.33475757598E+02  0.13479321669E+02 -0.10945355218E+02  0.98517258670E+02  0.91013905506E+02 0.  0.
          5    1    3    3  502    0 -0.31522577667E+02  0.15857185736E+02  0.49842724814E+02  0.61211868613E+02  0.41800000000E+01 0.  1.
         -5    1    3    3    0  502  0.64998335265E+02 -0.29336507406E+02 -0.16221551811E+02  0.73253159640E+02  0.41800000000E+01 0.  1.
        -11    1    4    4    0    0 -0.84105550742E+01  0.38403986203E+02  0.26197058469E+02  0.47242877404E+02  0.00000000000E+00 0. -1.
         11    1    4    4    0    0 -0.25065202524E+02 -0.24924664534E+02 -0.37142413687E+02  0.51274381266E+02  0.00000000000E+00 0.  1.
</event>
<event>
 8    1  0.6627806E-009  0.1009039E+03  0.7561462E-02  0.1278407E+00
          1   -1    0    0  501    0  0.00000000000E+00  0.00000000000E+00  0.52919784719E+03  0.52919784719E+03  0.00000000000E+00 0. -1.
         -1   -1    0    0    0  501 -0.00000000000E+00 -0.00000000000E+00 -0.30946476413E+02  0.30946476413E+02  0.00000000000E+00 0.  1.
         25    2    1    2    0    0  0.66850233612E+02 -0.27662043819E+01  0.25896265653E+03  0.29527077066E+03  0.12508622990E+03 0.  0.
         23    2    1    2    0    0 -0.66850233612E+02  0.27662043819E+01  0.23928871425E+03  0.26487355294E+03  0.91773115124E+02 0.  0.
          5    1    3    3  502    0  0.75478864313E+02 -0.42105139928E+02  0.10493521072E+03  0.13601019306E+03  0.41800000000E+01 0.  1.
         -5    1    3    3    0  502 -0.86286307005E+01  0.39338935547E+02  0.15402744581E+03  0.15926057761E+03  0.41800000000E+01 0.  1.
        -11    1    4    4    0    0 -0.86727940714E+01  0.13089041642E+02 -0.25624984655E+01  0.15909329543E+02  0.00000000000E+00 0.  1.
         11    1    4    4    0    0 -0.58177439541E+02 -0.10322837260E+02  0.24185121271E+03  0.24896422340E+03  0.00000000000E+00 0. -1.
</event>
<event>
 8    1  0.6627806E-009  0.1333727E+03  0.7561462E-02  0.1222535E+00
          2   -1    0    0  501    0  0.00000000000E+00  0.00000000000E+00  0.65992061575E+03  0.65992061575E+03  0.00000000000E+00 0.  1.
         -2   -1    0    0    0  501 -0.00000000000E+00 -0.00000000000E+00 -0.41234952876E+02  0.41234952876E+02  0.00000000000E+00 0. -1.
         25    2    1    2    0    0  0.30548070973E+02  0.96395958590E+02  0.45145653290E+03  0.47925691089E+03  0.12509524400E+03 0.  0.
         23    2    1    2    0    0 -0.30548070973E+02 -0.96395958590E+02  0.16722912998E+03  0.22189865774E+03  0.10510978508E+03 0.  0.
          5    1    3    3  502    0  0.77069594611E+02  0.40660352555E+02  0.27115206429E+03  0.28484013244E+03  0.41800000000E+01 0.  1.
         -5    1    3    3    0  502 -0.46521523639E+02  0.55735606035E+02  0.18030446861E+03  0.19441677845E+03  0.41800000000E+01 0.  1.
        -11    1    4    4    0    0  0.70008852164E+01 -0.73604440652E+01 -0.13538105574E+02  0.16925390193E+02  0.00000000000E+00 0. -1.
         11    1    4    4    0    0 -0.37548956189E+02 -0.89035514525E+02  0.18076723555E+03  0.20497326754E+03  0.00000000000E+00 0.  1.
</event>
<event>
 8    1  0.6627806E-009  0.2553206E+03  0.7561462E-02  0.1109988E+00
         -1   -1    0    0    0  501 -0.00000000000E+00  0.00000000000E+00  0.46084290365E+02  0.46084290365E+02  0.00000000000E+00 0.  1.
          1   -1    0    0  501    0  0.00000000000E+00 -0.00000000000E+00 -0.18685760672E+04  0.18685760672E+04  0.00000000000E+00 0. -1.
         25    2    1    2    0    0  0.24629322584E+03 -0.22073990352E+02 -0.12970392955E+04  0.13263126333E+04  0.12508658231E+03 0.  0.
         23    2    1    2    0    0 -0.24629322584E+03  0.22073990352E+02 -0.52545248138E+03  0.58834772430E+03  0.94366945225E+02 0.  0.
          5    1    3    3  502    0  0.15070625083E+03 -0.41968109633E+02 -0.10326412236E+04  0.10444324130E+04  0.41800000000E+01 0.  1.
         -5    1    3    3    0  502  0.95586975009E+02  0.19894119280E+02 -0.26439807183E+03  0.28188022024E+03  0.41800000000E+01 0.  1.
        -11    1    4    4    0    0 -0.13872631466E+03 -0.21462055910E+02 -0.21353966884E+03  0.25554803930E+03  0.00000000000E+00 0. -1.
         11    1    4    4    0    0 -0.10756691118E+03  0.43536046263E+02 -0.31191281255E+03  0.33279968500E+03  0.00000000000E+00 0.  1.
</event>
<event>
 8    1  0.6627806E-009  0.1020205E+03  0.7561462E-02  0.1276104E+00
          1   -1    0    0  501    0  0.00000000000E+00  0.00000000000E+00  0.15751856041E+03  0.15751856041E+03  0.00000000000E+00 0. -1.
         -1   -1    0    0    0  501 -0.00000000000E+00 -0.00000000000E+00 -0.10128930725E+03  0.10128930725E+03  0.00000000000E+00 0.  1.
         25    2    1    2    0    0 -0.48122283851E+02 -0.37156419508E+02  0.87205211000E+01  0.13935084494E+03  0.12508499824E+03 0.  0.
         23    2    1    2    0    0  0.48122283851E+02  0.37156419508E+02  0.47508732060E+02  0.11945702273E+03  0.91195103725E+02 0.  0.
          5    1    3    3  502    0 -0.54733948814E+02  0.17381283697E+01 -0.46083679184E+02  0.71693822120E+02  0.41800000000E+01 0. -1.
         -5    1    3    3    0  502  0.66116649629E+01 -0.38894547878E+02  0.54804200284E+02  0.67657022821E+02  0.41800000000E+01 0. -1.
        -11    1    4    4    0    0 -0.83868648302E+01  0.50657630622E+02  0.25478170873E+02  0.57320783604E+02  0.00000000000E+00 0. -1.
         11    1    4    4    0    0  0.56509148681E+02 -0.13501211114E+02  0.22030561187E+02  0.62136239124E+02  0.00000000000E+00 0.  1.
</event>
<event>
 8    1  0.6627806E-009  0.1959679E+03  0.7561462E-02  0.1153186E+00
          1   -1    0    0  501    0  0.00000000000E+00  0.00000000000E+00  0.54802698104E+03  0.54802698104E+03  0.00000000000E+00 0. -1.
         -1   -1    0    0    0  501 -0.00000000000E+00 -0.00000000000E+00 -0.86385527612E+02  0.86385527612E+02  0.00000000000E+00 0.  1.
         25    2    1    2    0    0  0.16104767119E+03  0.60218125131E+02  0.12735316887E+03  0.24783997199E+03  0.12507296713E+03 0.  0.
         23    2    1    2    0    0 -0.16104767119E+03 -0.60218125131E+02  0.33428828456E+03  0.38657253666E+03  0.90150396123E+02 0.  0.
          5    1    3    3  502    0  0.18123529159E+03  0.62768077660E+02  0.11466242375E+03  0.22349721768E+03  0.41800000000E+01 0. -1.
         -5    1    3    3    0  502 -0.20187620406E+02 -0.25499525282E+01  0.12690745122E+02  0.24342754308E+02  0.41800000000E+01 0. -1.
        -11    1    4    4    0    0 -0.53238883285E+02 -0.46416069818E+02  0.20950625796E+03  0.22109206760E+03  0.00000000000E+00 0. -1.
         11    1    4    4    0    0 -0.10780878790E+03 -0.13802055313E+02  0.12478202659E+03  0.16548046906E+03  0.00000000000E+00 0.  1.
</event>
<event>
 8    1  0.6627806E-009  0.1235485E+03  0.7561462E-02  0.1237355E+00
          2   -1    0    0  501    0  0.00000000000E+00  0.00000000000E+00  0.60827448427E+03  0.60827448427E+03  0.00000000000E+00 0. -1.
         -2   -1    0    0    0  501 -0.00000000000E+00 -0.00000000000E+00 -0.36161830910E+02  0.36161830910E+02  0.00000000000E+00 0.  1.
         25    2    1    2    0    0  0.30839911213E+02 -0.89211553929E+02  0.38658439928E+03  0.41713917107E+03  0.12509112197E+03 0.  0.
         23    2    1    2    0    0 -0.30839911213E+02  0.89211553929E+02  0.18552825408E+03  0.22729714411E+03  0.91287771255E+02 0.  0.
          5    1    3    3  502    0  0.66466360977E+01  0.10491252820E+02  0.22697851581E+03  0.22735646724E+03  0.41800000000E+01 0.  1.
         -5    1    3    3    0  502  0.24193275116E+02 -0.99702806749E+02  0.15960588347E+03  0.18978270383E+03  0.41800000000E+01 0.  1.
        -11    1    4    4    0    0  0.15592035525E+02 -0.12185694606E+02  0.27527733881E+02  0.33902490432E+02  0.00000000000E+00 0. -1.
         11    1    4    4    0    0 -0.46431946738E+02  0.10139724853E+03  0.15800052020E+03  0.19339465368E+03  0.00000000000E+00 0.  1.
</event>
<event>
 8    1  0.6627806E-009  0.1439464E+03  0.7561462E-02  0.1208115E+00
          1   -1    0    0  501    0  0.00000000000E+00  0.00000000000E+00  0.97793231228E+02  0.97793231228E+02  0.00000000000E+00 0. -1.
         -1   -1    0    0    0  501 -0.00000000000E+00 -0.00000000000E+00 -0.38797509476E+03  0.38797509476E+03  0.00000000000E+00 0.  1.
         25    2    1    2    0    0  0.72453904495E+02  0.10119751662E+03 -0.28098663475E+03  0.33180132371E+03  0.12509246124E+03 0.  0.
         23    2    1    2    0    0 -0.72453904495E+02 -0.10119751662E+03 -0.91952287799E+01  0.15396700228E+03  0.90170837371E+02 0.  0.
          5    1    3    3  502    0  0.42297384322E+02 -0.71254633188E+01 -0.19837427706E+02  0.47442985635E+02  0.41800000000E+01 0. -1.
         -5    1    3    3    0  502  0.30156520173E+02  0.10832297994E+03 -0.26114920705E+03  0.28435833808E+03  0.41800000000E+01 0. -1.
        -11    1    4    4    0    0  0.45699085729E+01 -0.19362502559E+02 -0.33523466481E+02  0.38982218697E+02  0.00000000000E+00 0.  1.
         11    1    4    4    0    0 -0.77023813068E+02 -0.81835014060E+02  0.24328237701E+02  0.11498478358E+03  0.00000000000E+00 0. -1.
</event>
<event>
 8    1  0.6627806E-009  0.9216540E+02  0.7561462E-02  0.1297691E+00
         -2   -1    0    0    0  501 -0.00000000000E+00  0.00000000000E+00  0.80116199587E+02  0.80116199587E+02  0.00000000000E+00 0.  1.
          2   -1    0    0  501    0  0.00000000000E+00 -0.00000000000E+00 -0.20286230648E+03  0.20286230648E+03  0.00000000000E+00 0. -1.
         25    2    1    2    0    0 -0.21509634678E+02 -0.48746148360E+02 -0.23166121275E+02  0.13792650172E+03  0.12509276293E+03 0.  0.
         23    2    1    2    0    0  0.21509634678E+02  0.48746148360E+02 -0.99579985617E+02  0.14505200435E+03  0.91022299830E+02 0.  0.
          5    1    3    3  502    0 -0.44019980134E+02 -0.80047765935E+02  0.23934382614E+01  0.91480076677E+02  0.41800000000E+01 0.  1.
         -5    1    3    3    0  502  0.22510345456E+02  0.31301617575E+02 -0.25559559536E+02  0.46446425040E+02  0.41800000000E+01 0.  1.
        -11    1    4    4    0    0  0.64381504170E+01  0.26212417459E+02 -0.11201904090E+03  0.11522502390E+03  0.00000000000E+00 0. -1.
         11    1    4    4    0    0  0.15071484261E+02  0.22533730901E+02  0.12439055282E+02  0.29826980445E+02  0.00000000000E+00 0.  1.
</event>
<event>
 8    1  0.6627806E-009  0.8478841E+02  0.7561462E-02  0.1315987E+00
         -1   -1    0    0    0  501 -0.00000000000E+00  0.00000000000E+00  0.54684384027E+02  0.54684384027E+02  0.00000000000E+00 0.  1.
          1   -1    0    0  501    0  0.00000000000E+00 -0.00000000000E+00 -0.24832400015E+03  0.24832400015E+03  0.00000000000E+00 0. -1.
         25    2    1    2    0    0 -0.17281748788E+02  0.29815318614E+02 -0.85873040354E+02  0.15559554859E+03  0.12509270009E+03 0.  0.
         23    2    1    2    0    0  0.17281748788E+02 -0.29815318614E+02 -0.10776657577E+03  0.14741283559E+03  0.94494958480E+02 0.  0.
          5    1    3    3  502    0 -0.27051230280E+02  0.59086950346E+02 -0.10162422284E+03  0.12069793631E+03  0.41800000000E+01 0.  1.
         -5    1    3    3    0  502  0.97694814919E+01 -0.29271631732E+02  0.15751182490E+02  0.34897612278E+02  0.41800000000E+01 0.  1.
        -11    1    4    4    0    0  0.41564405977E+02 -0.12200287440E+02 -0.90693144542E+01  0.44257195149E+02  0.00000000000E+00 0.  1.
         11    1    4    4    0    0 -0.24282657188E+02 -0.17615031174E+02 -0.98697261316E+02  0.10315564044E+03  0.00000000000E+00 0. -1.
</event>
<event>
 8    1  0.6627806E-009  0.1076812E+03  0.7561462E-02  0.1264925E+00
         -2   -1    0    0    0  501 -0.00000000000E+00  0.00000000000E+00  0.20902037853E+03  0.20902037853E+03  0.00000000000E+00 0.  1.
          2   -1    0    0  501    0  0.00000000000E+00 -0.00000000000E+00 -0.64021017406E+02  0.64021017406E+02  0.00000000000E+00 0. -1.
         25    2    1    2    0    0 -0.35520508886E+02 -0.50606411960E+01  0.96374503683E+02  0.16193339485E+03  0.12508821994E+03 0.  0.
         23    2    1    2    0    0  0.35520508886E+02  0.50606411960E+01  0.48624857441E+02  0.11110800108E+03  0.93237838364E+02 0.  0.
          5    1    3    3  502    0 -0.13241918881E+02  0.54448808837E+02  0.14173172042E+02  0.57951465945E+02  0.41800000000E+01 0. -1.
         -5    1    3    3    0  502 -0.22278590005E+02 -0.59509450033E+02  0.82201331640E+02  0.10398192891E+03  0.41800000000E+01 0. -1.
        -11    1    4    4    0    0 -0.28882031720E+02 -0.75776960726E+01  0.74604734593E+00  0.29868877125E+02  0.00000000000E+00 0. -1.
         11    1    4    4    0    0  0.64402540606E+02  0.12638337269E+02  0.47878810095E+02  0.81239123959E+02  0.00000000000E+00 0.  1.
</event>
<event>
 8    1  0.6627806E-009  0.1050533E+03  0.7561462E-02  0.1270015E+00
         -2   -1    0    0    0  501 -0.00000000000E+00  0.00000000000E+00  0.12985154812E+02  0.12985154812E+02  0.00000000000E+00 0.  1.
          2   -1    0    0  501    0  0.00000000000E+00 -0.00000000000E+00 -0.10429794883E+04  0.10429794883E+04  0.00000000000E+00 0. -1.
         25    2    1    2    0    0 -0.21188467007E+02 -0.36196979773E+02 -0.75657659382E+03  0.76799556225E+03  0.12509943576E+03 0.  0.
         23    2    1    2    0    0  0.21188467007E+02  0.36196979773E+02 -0.27341773963E+03  0.28796908083E+03  0.80060968592E+02 0.  0.
          5    1    3    3  502    0 -0.10669450715E+01 -0.76026832779E+02 -0.31169647732E+03  0.32086349753E+03  0.41800000000E+01 0.  1.
         -5    1    3    3    0  502 -0.20121521936E+02  0.39829853005E+02 -0.44488011651E+03  0.44713206472E+03  0.41800000000E+01 0.  1.
        -11    1    4    4    0    0 -0.28578685597E+02  0.17887595864E+01 -0.66891836296E+02  0.72763031097E+02  0.00000000000E+00 0.  1.
         11    1    4    4    0    0  0.49767152604E+02  0.34408220187E+02 -0.20652590333E+03  0.21520604973E+03  0.00000000000E+00 0. -1.
</event>
<event>
 8    1  0.6627806E-009  0.2164331E+03  0.7561462E-02  0.1136571E+00
          1   -1    0    0  501    0  0.00000000000E+00  0.00000000000E+00  0.29351121221E+03  0.29351121221E+03  0.00000000000E+00 0. -1.
         -1   -1    0    0    0  501 -0.00000000000E+00 -0.00000000000E+00 -0.19053948265E+03  0.19053948265E+03  0.00000000000E+00 0.  1.
         25    2    1    2    0    0 -0.13433574035E+03  0.14399326335E+03  0.12748697878E+03  0.26585816083E+03  0.12508989127E+03 0.  0.
         23    2    1    2    0    0  0.13433574035E+03 -0.14399326335E+03 -0.24515249221E+02  0.21819253403E+03  0.90701893235E+02 0.  0.
          5    1    3    3  502    0 -0.20975055879E+02 -0.21906133381E+02  0.65696373325E+01  0.31312364707E+02  0.41800000000E+01 0.  1.
         -5    1    3    3    0  502 -0.11336068447E+03  0.16589939673E+03  0.12091734144E+03  0.23454579612E+03  0.41800000000E+01 0.  1.
        -11    1    4    4    0    0  0.70899518179E+02 -0.45906841165E+02 -0.50657951927E+02  0.98490648476E+02  0.00000000000E+00 0.  1.
         11    1    4    4    0    0  0.63436222167E+02 -0.98086422182E+02  0.26142702706E+02  0.11970188555E+03  0.00000000000E+00 0. -1.
</event>
<event>
 8    1  0.6627806E-009  0.1029424E+03  0.7561462E-02  0.1274227E+00
          1   -1    0    0  501    0  0.00000000000E+00  0.00000000000E+00  0.12151309759E+03  0.12151309759E+03  0.00000000000E+00 0. -1.
         -1   -1    0    0    0  501 -0.00000000000E+00 -0.00000000000E+00 -0.19770919538E+03  0.19770919538E+03  0.00000000000E+00 0.  1.
         25    2    1    2    0    0  0.71847156707E+02  0.66370859665E+02  0.11180537279E+02  0.15918536873E+03  0.12509145560E+03 0.  0.
         23    2    1    2    0    0 -0.71847156707E+02 -0.66370859665E+02 -0.87376635069E+02  0.16003692423E+03  0.91706247456E+02 0.  0.
          5    1    3    3  502    0  0.63679711266E+02  0.40655414951E+02 -0.51017082823E+02  0.91258881932E+02  0.41800000000E+01 0.  1.
         -5    1    3    3    0  502  0.81674454417E+01  0.25715444714E+02  0.62197620102E+02  0.67926486795E+02  0.41800000000E+01 0.  1.
        -11    1    4    4    0    0 -0.25256276565E+02 -0.45117110343E+02 -0.95100934669E+02  0.10824796038E+03  0.00000000000E+00 0.  1.
         11    1    4    4    0    0 -0.46590880142E+02 -0.21253749323E+02  0.77242995993E+01  0.51788963854E+02  0.00000000000E+00 0. -1.
</event>
<event>
 8    1  0.6627806E-009  0.8801636E+02  0.7561462E-02  0.1307728E+00
         -1   -1    0    0    0  501 -0.00000000000E+00  0.00000000000E+00  0.52425235658E+02  0.52425235658E+02  0.00000000000E+00 0.  1.
          1   -1    0    0  501    0  0.00000000000E+00 -0.00000000000E+00 -0.28112369633E+03  0.28112369633E+03  0.00000000000E+00 0. -1.
         25    2    1    2    0    0  0.99038531892E+01 -0.36942294573E+02 -0.17840727690E+03  0.22122219703E+03  0.12508910653E+03 0.  0.
         23    2    1    2    0    0 -0.99038531892E+01  0.36942294573E+02 -0.50291183775E+02  0.11232673496E+03  0.92872346715E+02 0.  0.
          5    1    3    3  502    0  0.48374893100E+01 -0.61670423595E+02 -0.26925855920E+02  0.67595240707E+02  0.41800000000E+01 0. -1.
         -5    1    3    3    0  502  0.50663638792E+01  0.24728129022E+02 -0.15148142098E+03  0.15362695633E+03  0.41800000000E+01 0. -1.
        -11    1    4    4    0    0  0.20176345599E+02 -0.17197622220E+02 -0.42240204439E+02  0.49870612617E+02  0.00000000000E+00 0.  1.
         11    1    4    4    0    0 -0.30080198788E+02  0.54139916793E+02 -0.80509793353E+01  0.62456122340E+02  0.00000000000E+00 0. -1.
</event>
<event>
 8    1  0.6627806E-009  0.1263456E+03  0.7561462E-02  0.1232981E+00
         -1   -1    0    0    0  501 -0.00000000000E+00  0.00000000000E+00  0.20466180111E+02  0.20466180111E+02  0.00000000000E+00 0.  1.
          1   -1    0    0  501    0  0.00000000000E+00 -0.00000000000E+00 -0.97797277737E+03  0.97797277737E+03  0.00000000000E+00 0. -1.
         25    2    1    2    0    0  0.80228994212E+02  0.24560347861E+02 -0.64444051542E+03  0.66180829248E+03  0.12508691328E+03 0.  0.
         23    2    1    2    0    0 -0.80228994212E+02 -0.24560347861E+02 -0.31306608184E+03  0.33663066500E+03  0.90939160018E+02 0.  0.
          5    1    3    3  502    0  0.48065318287E+02  0.62679418923E+02 -0.20841970642E+03  0.22292427146E+03  0.41800000000E+01 0.  1.
         -5    1    3    3    0  502  0.32163675925E+02 -0.38119071062E+02 -0.43602080900E+03  0.43888402102E+03  0.41800000000E+01 0.  1.
        -11    1    4    4    0    0 -0.94003641686E+02  0.15562390113E+01 -0.24594749076E+03  0.26330452852E+03  0.00000000000E+00 0. -1.
         11    1    4    4    0    0  0.13774647474E+02 -0.26116586873E+02 -0.67118591078E+02  0.73326136481E+02  0.00000000000E+00 0.  1.
</event>
<event>
 8    1  0.6627806E-009  0.8463921E+02  0.7561462E-02  0.1316379E+00
          1   -1    0    0  501    0  0.00000000000E+00  0.00000000000E+00  0.77851421471E+02  0.77851421471E+02  0.00000000000E+00 0. -1.
         -1   -1    0    0    0  501 -0.00000000000E+00 -0.00000000000E+00 -0.20661477739E+03  0.20661477739E+03  0.00000000000E+00 0.  1.
         25    2    1    2    0    0 -0.47116558159E+02 -0.18598704527E+02 -0.26610314213E+02  0.13752415072E+03  0.12505559302E+03 0.  0.
         23    2    1    2    0    0  0.47116558159E+02  0.18598704527E+02 -0.10215304171E+03  0.14694204815E+03  0.92686782876E+02 0.  0.
          5    1    3    3  502    0 -0.31398302776E+02 -0.35118207842E+02  0.43145623834E+02  0.64016866490E+02  0.41800000000E+01 0. -1.
         -5    1    3    3    0  502 -0.15718255383E+02  0.16519503314E+02 -0.69755938046E+02  0.73507284229E+02  0.41800000000E+01 0. -1.
        -11    1    4    4    0    0  0.57461946113E+02 -0.18438757368E+02 -0.86391919316E+02  0.10538228858E+03  0.00000000000E+00 0.  1.
         11    1    4    4    0    0 -0.10345387954E+02  0.37037461896E+02 -0.15761122395E+02  0.41559759561E+02  0.00000000000E+00 0. -1.
</event>
<event>
 8    1  0.6627806E-009  0.4981888E+02  0.7561462E-02  0.1446321E+00
          2   -1    0    0  501    0  0.00000000000E+00  0.00000000000E+00  0.57924994455E+02  0.57924994455E+02  0.00000000000E+00 0. -1.
         -2   -1    0    0    0  501 -0.00000000000E+00 -0.00000000000E+00 -0.21139330761E+03  0.21139330761E+03  0.00000000000E+00 0.  1.
         25    2    1    2    0    0  0.10835937674E+02 -0.12145303538E+02 -0.66257278298E+02  0.14248420741E+03  0.12508715558E+03 0.  0.
         23    2    1    2    0    0 -0.10835937674E+02  0.12145303538E+02 -0.87211034859E+02  0.12683409466E+03  0.90643240363E+02 0.  0.
          5    1    3    3  502    0  0.74615643009E+01  0.29418425345E+01  0.36950482035E+02  0.38041292065E+02  0.41800000000E+01 0.  1.
         -5    1    3    3    0  502  0.33743733736E+01 -0.15087146072E+02 -0.10320776033E+03  0.10444291534E+03  0.41800000000E+01 0.  1.
        -11    1    4    4    0    0  0.88817495227E+01  0.39707856444E+02 -0.83317139075E+02  0.92721869058E+02  0.00000000000E+00 0.  1.
         11    1    4    4    0    0 -0.19717687197E+02 -0.27562552906E+02 -0.38938957841E+01  0.34112225602E+02  0.00000000000E+00 0. -1.
</event>
<event>
 8    1  0.6627806E-009  0.1483784E+03  0.7561462E-02  0.1202480E+00
          1   -1    0    0  501    0  0.00000000000E+00  0.00000000000E+00  0.94867947587E+03  0.94867947587E+03  0.00000000000E+00 0. -1.
         -1   -1    0    0    0  501 -0.00000000000E+00 -0.00000000000E+00 -0.36642243355E+02  0.36642243355E+02  0.00000000000E+00 0.  1.
         25    2    1    2    0    0  0.11468553839E+03 -0.83503320317E+02  0.61611661731E+03  0.64449394971E+03  0.12508871997E+03 0.  0.
         23    2    1    2    0    0 -0.11468553839E+03  0.83503320317E+02  0.29592061520E+03  0.34082776951E+03  0.92027065314E+02 0.  0.
          5    1    3    3  502    0  0.89332316697E+02 -0.65533707129E+02  0.59818544098E+03  0.60837342462E+03  0.41800000000E+01 0. -1.
         -5    1    3    3    0  502  0.25353221694E+02 -0.17969613188E+02  0.17931176332E+02  0.36120525094E+02  0.41800000000E+01 0. -1.
        -11    1    4    4    0    0 -0.10203204484E+03  0.40622190941E+02  0.13616066969E+03  0.17492978174E+03  0.00000000000E+00 0. -1.
         11    1    4    4    0    0 -0.12653493551E+02  0.42881129377E+02  0.15975994551E+03  0.16589798777E+03  0.00000000000E+00 0.  1.
</event>
<event>
 8    1  0.6627806E-009  0.1226773E+03  0.7561462E-02  0.1238744E+00
          2   -1    0    0  501    0  0.00000000000E+00  0.00000000000E+00  0.23464180279E+03  0.23464180279E+03  0.00000000000E+00 0. -1.
         -2   -1    0    0    0  501 -0.00000000000E+00 -0.00000000000E+00 -0.90799630664E+02  0.90799630664E+02  0.00000000000E+00 0.  1.
         25    2    1    2    0    0 -0.33229213890E+02  0.89250837715E+02  0.10383241480E+03  0.18840762897E+03  0.12508545719E+03 0.  0.
         23    2    1    2    0    0  0.33229213890E+02 -0.89250837715E+02  0.40009757323E+02  0.13703380449E+03  0.90042157916E+02 0.  0.
          5    1    3    3  502    0  0.69999695666E+01  0.10224773479E+03  0.36656225289E+02  0.10892543365E+03  0.41800000000E+01 0.  1.
         -5    1    3    3    0  502 -0.40229183456E+02 -0.12996897074E+02  0.67176189513E+02  0.79482195319E+02  0.41800000000E+01 0.  1.
        -11    1    4    4    0    0 -0.62217878656E+01 -0.14460699703E+02  0.49502420829E+02  0.51945280325E+02  0.00000000000E+00 0. -1.
         11    1    4    4    0    0  0.39451001755E+02 -0.74790138012E+02 -0.94926635058E+01  0.85088524160E+02  0.00000000000E+00 0.  1.
</event>
<event>
 8    1  0.6627806E-009  0.2267624E+03  0.7561462E-02  0.1128940E+00
         -1   -1    0    0    0  501 -0.00000000000E+00  0.00000000000E+00  0.87832964234E+02  0.87832964234E+02  0.00000000000E+00 0.  1.
          1   -1    0    0  501    0  0.00000000000E+00 -0.00000000000E+00 -0.61199000430E+03  0.61199000430E+03  0.00000000000E+00 0. -1.
         25    2    1    2    0    0 -0.19993352786E+03  0.10481811403E+02 -0.21248704211E+03  0.31761720461E+03  0.12508661667E+03 0.  0.
         23    2    1    2    0    0  0.19993352786E+03 -0.10481811403E+02 -0.31166999796E+03  0.38220576392E+03  0.94126374698E+02 0.  0.
          5    1    3    3  502    0 -0.18374072764E+03  0.49564740020E+02 -0.15153844772E+03  0.24330781324E+03  0.41800000000E+01 0.  1.
         -5    1    3    3    0  502 -0.16192800220E+02 -0.39082928617E+02 -0.60948594383E+02  0.74309391368E+02  0.41800000000E+01 0.  1.
        -11    1    4    4    0    0  0.12718850235E+03 -0.51416703151E+02 -0.20688650437E+03  0.24823903437E+03  0.00000000000E+00 0.  1.
         11    1    4    4    0    0  0.72745025506E+02  0.40934891747E+02 -0.10478349359E+03  0.13396672956E+03  0.00000000000E+00 0. -1.
</event>
<event>
 8    1  0.6627806E-009  0.1258397E+03  0.7561462E-02  0.1233763E+00
         -2   -1    0    0    0  501 -0.00000000000E+00  0.00000000000E+00  0.17301367477E+02  0.17301367477E+02  0.00000000000E+00 0.  1.
          2   -1    0    0  501    0  0.00000000000E+00 -0.00000000000E+00 -0.11405147392E+04  0.11405147392E+04  0.00000000000E+00 0. -1.
         25    2    1    2    0    0  0.37890485426E+02 -0.54588708187E+02 -0.86390687133E+03  0.87544149690E+03  0.12508843360E+03 0.  0.
         23    2    1    2    0    0 -0.37890485426E+02  0.54588708187E+02 -0.25930650037E+03  0.28237460975E+03  0.89888504000E+02 0.  0.
          5    1    3    3  502    0 -0.28623599376E+02  0.23868387598E+02 -0.18370295543E+03  0.18749202276E+03  0.41800000000E+01 0.  1.
         -5    1    3    3    0  502  0.66514084801E+02 -0.78457095785E+02 -0.68020391590E+03  0.68794947414E+03  0.41800000000E+01 0.  1.
        -11    1    4    4    0    0  0.28477514743E+02  0.63223181547E+01 -0.56289092603E+02  0.63398757865E+02  0.00000000000E+00 0.  1.
         11    1    4    4    0    0 -0.66368000169E+02  0.48266390033E+02 -0.20301740776E+03  0.21897585188E+03  0.00000000000E+00 0. -1.
</event>
<event>
 8    1  0.6627806E-009  0.1815517E+03  0.7561462E-02  0.1166310E+00
         -1   -1    0    0    0  501 -0.00000000000E+00  0.00000000000E+00  0.35320528818E+02  0.35320528818E+02  0.00000000000E+00 0.  1.
          1   -1    0    0  501    0  0.00000000000E+00 -0.00000000000E+00 -0.10062357198E+04  0.10062357198E+04  0.00000000000E+00 0. -1.
         25    2    1    2    0    0 -0.16009905374E+02 -0.15256193095E+03 -0.47210657207E+03  0.51192123066E+03  0.12508905293E+03 0.  0.
         23    2    1    2    0    0  0.16009905374E+02  0.15256193095E+03 -0.49880861888E+03  0.52963501792E+03  0.90397754931E+02 0.  0.
          5    1    3    3  502    0 -0.49901316383E+02 -0.20790158538E+02 -0.78208464218E+02  0.95165163501E+02  0.41800000000E+01 0.  1.
         -5    1    3    3    0  502  0.33891411008E+02 -0.13177177242E+03 -0.39389810785E+03  0.41675606716E+03  0.41800000000E+01 0.  1.
        -11    1    4    4    0    0 -0.21666995269E+02  0.12293090235E+03 -0.29608853755E+03  0.32132520522E+03  0.00000000000E+00 0.  1.
         11    1    4    4    0    0  0.37676900643E+02  0.29631028608E+02 -0.20272008132E+03  0.20830981271E+03  0.00000000000E+00 0. -1.
</event>
<event>
 8    1  0.6627806E-009  0.1294614E+03  0.7561462E-02  0.1228257E+00
          2   -1    0    0  501    0  0.00000000000E+00  0.00000000000E+00  0.49545732208E+03  0.49545732208E+03  0.00000000000E+00 0. -1.
         -2   -1    0    0    0  501 -0.00000000000E+00 -0.00000000000E+00 -0.49312986757E+02  0.49312986757E+02  0.00000000000E+00 0.  1.
         25    2    1    2    0    0 -0.96464788557E+01 -0.10781250804E+03  0.27011326971E+03  0.31674096131E+03  0.12508823546E+03 0.  0.
         23    2    1    2    0    0  0.96464788557E+01  0.10781250804E+03  0.17603106561E+03  0.22802934752E+03  0.96404646308E+02 0.  0.
          5    1    3    3  502    0  0.26513652796E+02 -0.79825624279E+02  0.64543825329E+02  0.10610599354E+03  0.41800000000E+01 0. -1.
         -5    1    3    3    0  502 -0.36160131652E+02 -0.27986883764E+02  0.20556944438E+03  0.21063496777E+03  0.41800000000E+01 0. -1.
        -11    1    4    4    0    0  0.36491459361E+02  0.32610551218E+02  0.12245215832E+03  0.13186965433E+03  0.00000000000E+00 0. -1.
         11    1    4    4    0    0 -0.26844980505E+02  0.75201956825E+02  0.53578907285E+02  0.96159693190E+02  0.00000000000E+00 0.  1.
</event>
<event>
 8    1  0.6627806E-009  0.1731092E+03  0.7561462E-02  0.1174644E+00
          2   -1    0    0  501    0  0.00000000000E+00  0.00000000000E+00  0.85897404588E+02  0.85897404588E+02  0.00000000000E+00 0. -1.
         -2   -1    0    0    0  501 -0.00000000000E+00 -0.00000000000E+00 -0.40207307216E+03  0.40207307216E+03  0.00000000000E+00 0.  1.
         25    2    1    2    0    0  0.27957206167E+02  0.14648255588E+03 -0.14142109673E+03  0.24059565578E+03  0.12509036105E+03 0.  0.
         23    2    1    2    0    0 -0.27957206167E+02 -0.14648255588E+03 -0.17475457084E+03  0.24737482096E+03  0.91740925787E+02 0.  0.
          5    1    3    3  502    0  0.30940317945E+02 -0.12971865950E+02 -0.14752159412E+02  0.36887276778E+02  0.41800000000E+01 0.  1.
         -5    1    3    3    0  502 -0.29831117786E+01  0.15945442183E+03 -0.12666893732E+03  0.20370837901E+03  0.41800000000E+01 0.  1.
        -11    1    4    4    0    0  0.77985235113E+01 -0.21271099014E+02  0.70680873473E+01  0.23732561619E+02  0.00000000000E+00 0. -1.
         11    1    4    4    0    0 -0.35755729678E+02 -0.12521145686E+03 -0.18182265819E+03  0.22364225934E+03  0.00000000000E+00 0.  1.
</event>
<event>
 8    1  0.6627806E-009  0.1269442E+03  0.7561462E-02  0.1232062E+00
         -1   -1    0    0    0  501 -0.00000000000E+00  0.00000000000E+00  0.38539306484E+03  0.38539306484E+03  0.00000000000E+00 0.  1.
          1   -1    0    0  501    0  0.00000000000E+00 -0.00000000000E+00 -0.62568925274E+02  0.62568925274E+02  0.00000000000E+00 0. -1.
         25    2    1    2    0    0  0.80977977224E+02 -0.75431377224E+02  0.18557879923E+03  0.24966902753E+03  0.12509119522E+03 0.  0.
         23    2    1    2    0    0 -0.80977977224E+02  0.75431377224E+02  0.13724534033E+03  0.19829296258E+03  0.90755110598E+02 0.  0.
          5    1    3    3  502    0  0.65632225746E+02 -0.22315787462E+02  0.18119746197E+03  0.19405044718E+03  0.41800000000E+01 0.  1.
         -5    1    3    3    0  502  0.15345751477E+02 -0.53115589762E+02  0.43813372577E+01  0.55618580351E+02  0.41800000000E+01 0.  1.
        -11    1    4    4    0    0 -0.42659218188E+01  0.46984542444E+02  0.95328236759E+02  0.10636361239E+03  0.00000000000E+00 0. -1.
         11    1    4    4    0    0 -0.76712055405E+02  0.28446834780E+02  0.41917103574E+02  0.91929350185E+02  0.00000000000E+00 0.  1.
</event>
<event>
 8    1  0.6627806E-009  0.7121167E+02  0.7561462E-02  0.1356021E+00
          1   -1    0    0  501    0  0.00000000000E+00  0.00000000000E+00  0.61209825766E+02  0.61209825766E+02  0.00000000000E+00 0. -1.
         -1   -1    0    0    0  501 -0.00000000000E+00 -0.00000000000E+00 -0.26400359720E+03  0.26400359720E+03  0.00000000000E+00 0.  1.
         25    2    1    2    0    0 -0.75034109741E+01 -0.48129241151E+02 -0.53099995854E+02  0.14435916830E+03  0.12508890791E+03 0.  0.
         23    2    1    2    0    0  0.75034109741E+01  0.48129241151E+02 -0.14969377558E+03  0.18085425467E+03  0.89035442122E+02 0.  0.
          5    1    3    3  502    0 -0.26447704159E+01 -0.70290760216E+02 -0.81520739279E+02  0.10775383573E+03  0.41800000000E+01 0.  1.
         -5    1    3    3    0  502 -0.48586405582E+01  0.22161519066E+02  0.28420743426E+02  0.36605332566E+02  0.41800000000E+01 0.  1.
        -11    1    4    4    0    0  0.29084786982E+01  0.31582699854E+02 -0.15843949689E+03  0.16158279721E+03  0.00000000000E+00 0.  1.
         11    1    4    4    0    0  0.45949322760E+01  0.16546541296E+02  0.87457213084E+01  0.19271457462E+02  0.00000000000E+00 0. -1.
</event>
<event>
 8    1  0.6627806E-009  0.1350400E+03  0.7561462E-02  0.1220163E+00
          2   -1    0    0  501    0  0.00000000000E+00  0.00000000000E+00  0.28762258801E+03  0.28762258801E+03  0.00000000000E+00 0. -1.
         -2   -1    0    0    0  501 -0.00000000000E+00 -0.00000000000E+00 -0.84010509409E+02  0.84010509409E+02  0.00000000000E+00 0.  1.
         25    2    1    2    0    0  0.30804575759E+02  0.92005025585E+02  0.62834629398E+02  0.17032332407E+03  0.12509195598E+03 0.  0.
         23    2    1    2    0    0 -0.30804575759E+02 -0.92005025585E+02  0.14077744921E+03  0.20130977335E+03  0.10627082393E+03 0.  0.
          5    1    3    3  502    0  0.53736744904E+02 -0.23028219150E+01 -0.12171991644E+01  0.53961974718E+02  0.41800000000E+01 0. -1.
         -5    1    3    3    0  502 -0.22932169145E+02  0.94307847500E+02  0.64051828562E+02  0.11636134936E+03  0.41800000000E+01 0. -1.
        -11    1    4    4    0    0 -0.51939808096E+02 -0.77712106812E+02  0.47975992578E+02  0.10506479465E+03  0.00000000000E+00 0. -1.
         11    1    4    4    0    0  0.21135232337E+02 -0.14292918773E+02  0.92801456629E+02  0.96244978702E+02  0.00000000000E+00 0.  1.
</event>
<event>
 8    1  0.6627806E-009  0.1401333E+03  0.7561462E-02  0.1213150E+00
          3   -1    0    0  501    0  0.00000000000E+00  0.00000000000E+00  0.17786005474E+02  0.17786005474E+02  0.00000000000E+00 0. -1.
         -3   -1    0    0    0  501 -0.00000000000E+00 -0.00000000000E+00 -0.13285859189E+04  0.13285859189E+04  0.00000000000E+00 0.  1.
         25    2    1    2    0    0  0.10168249174E+01  0.97404208701E+02 -0.93275912306E+03  0.94613722497E+03  0.12508977977E+03 0.  0.
         23    2    1    2    0    0 -0.10168249174E+01 -0.97404208701E+02 -0.37804079041E+03  0.40023469945E+03  0.88229029401E+02 0.  0.
          5    1    3    3  502    0 -0.55255427335E+02  0.39631078151E+02 -0.26940505388E+03  0.27788548012E+03  0.41800000000E+01 0.  1.
         -5    1    3    3    0  502  0.56272252252E+02  0.57773130550E+02 -0.66335406919E+03  0.66825174485E+03  0.41800000000E+01 0.  1.
        -11    1    4    4    0    0  0.38474003208E+02 -0.17531209674E+02 -0.11683922452E+03  0.12425375898E+03  0.00000000000E+00 0. -1.
         11    1    4    4    0    0 -0.39490828126E+02 -0.79872999027E+02 -0.26120156589E+03  0.27598094047E+03  0.00000000000E+00 0.  1.
</event>
<event>
 8    1  0.6627806E-009  0.1277125E+03  0.7561462E-02  0.1230890E+00
         -1   -1    0    0    0  501 -0.00000000000E+00  0.00000000000E+00  0.25064504043E+03  0.25064504043E+03  0.00000000000E+00 0.  1.
          1   -1    0    0  501    0  0.00000000000E+00 -0.00000000000E+00 -0.90269301099E+02  0.90269301099E+02  0.00000000000E+00 0. -1.
         25    2    1    2    0    0 -0.96189136690E+02 -0.15571130192E+02  0.12706990114E+03  0.20319694592E+03  0.12508968360E+03 0.  0.
         23    2    1    2    0    0  0.96189136690E+02  0.15571130192E+02  0.33305838199E+02  0.13771739561E+03  0.91443928631E+02 0.  0.
          5    1    3    3  502    0 -0.12079203793E+03 -0.12259955160E+02  0.68546432085E+02  0.13948874033E+03  0.41800000000E+01 0.  1.
         -5    1    3    3    0  502  0.24602901240E+02 -0.33111750321E+01  0.58523469052E+02  0.63708205589E+02  0.41800000000E+01 0.  1.
        -11    1    4    4    0    0  0.62785334119E+02  0.33171390214E+02  0.58770847847E+02  0.92175657664E+02  0.00000000000E+00 0.  1.
         11    1    4    4    0    0  0.33403802571E+02 -0.17600260022E+02 -0.25465009648E+02  0.45541737949E+02  0.00000000000E+00 0. -1.
</event>
<event>
 8    1  0.6627806E-009  0.9851271E+02  0.7561462E-02  0.1283455E+00
         -2   -1    0    0    0  501 -0.00000000000E+00  0.00000000000E+00  0.16768781082E+02  0.16768781082E+02  0.00000000000E+00 0.  1.
          2   -1    0    0  501    0  0.00000000000E+00 -0.00000000000E+00 -0.93924845727E+03  0.93924845727E+03  0.00000000000E+00 0. -1.
         25    2    1    2    0    0 -0.58254498227E+02  0.14619313749E+02 -0.57636419337E+03  0.59283214129E+03  0.12508778298E+03 0.  0.
         23    2    1    2    0    0  0.58254498227E+02 -0.14619313749E+02 -0.34611548282E+03  0.36318509706E+03  0.92196401137E+02 0.  0.
          5    1    3    3  502    0  0.25948744040E+02 -0.28653184679E+01 -0.34424051956E+03  0.34525433389E+03  0.41800000000E+01 0.  1.
         -5    1    3    3    0  502 -0.84203242266E+02  0.17484632217E+02 -0.23212367381E+03  0.24757780740E+03  0.41800000000E+01 0.  1.
        -11    1    4    4    0    0 -0.12410492340E+02 -0.39216227984E+01 -0.39013700750E+01  0.13587499180E+02  0.00000000000E+00 0.  1.
         11    1    4    4    0    0  0.70664990567E+02 -0.10697690951E+02 -0.34221411275E+03  0.34959759788E+03  0.00000000000E+00 0. -1.
</event>
<event>
 8    1  0.6627806E-009  0.2038911E+03  0.7561462E-02  0.1146497E+00
         -1   -1    0    0    0  501 -0.00000000000E+00  0.00000000000E+00  0.13826172804E+03  0.13826172804E+03  0.00000000000E+00 0.  1.
          1   -1    0    0  501    0  0.00000000000E+00 -0.00000000000E+00 -0.39297024019E+03  0.39297024019E+03  0.00000000000E+00 0. -1.
         25    2    1    2    0    0  0.17995231885E+03 -0.71931935126E+02 -0.53125866449E+02  0.23669738721E+03  0.12508499140E+03 0.  0.
         23    2    1    2    0    0 -0.17995231885E+03  0.71931935126E+02 -0.20158264571E+03  0.29453458102E+03  0.92509545543E+02 0.  0.
          5    1    3    3  502    0  0.39890047006E+02  0.20392112242E+02 -0.52165167269E+02  0.68889267437E+02  0.41800000000E+01 0.  1.
         -5    1    3    3    0  502  0.14006227185E+03 -0.92324047368E+02 -0.96069918018E+00  0.16780811977E+03  0.41800000000E+01 0.  1.
        -11    1    4    4    0    0 -0.14568977505E+03  0.48814765112E+02 -0.96061927519E+02  0.18120785238E+03  0.00000000000E+00 0.  1.
         11    1    4    4    0    0 -0.34262543807E+02  0.23117170014E+02 -0.10552071819E+03  0.11332672864E+03  0.00000000000E+00 0. -1.
</event>
<event>
 8    1  0.6627806E-009  0.1188013E+03  0.7561462E-02  0.1245088E+00
          2   -1    0    0  501    0  0.00000000000E+00  0.00000000000E+00  0.65221625145E+02  0.65221625145E+02  0.00000000000E+00 0.  1.
         -2   -1    0    0    0  501 -0.00000000000E+00 -0.00000000000E+00 -0.30847543916E+03  0.30847543916E+03  0.00000000000E+00 0. -1.
         25    2    1    2    0    0  0.22136780270E+02 -0.76959245400E+02 -0.15517563126E+03  0.21480322236E+03  0.12509270685E+03 0.  0.
         23    2    1    2    0    0 -0.22136780270E+02  0.76959245400E+02 -0.88078182758E+02  0.15889384194E+03  0.10524601767E+03 0.  0.
          5    1    3    3  502    0 -0.24622503171E+02 -0.65569425276E+02 -0.15076767337E+03  0.16629486140E+03  0.41800000000E+01 0.  1.
         -5    1    3    3    0  502  0.46759283440E+02 -0.11389820124E+02 -0.44079578807E+01  0.48508360960E+02  0.41800000000E+01 0.  1.
        -11    1    4    4    0    0  0.23218408912E+02 -0.65279118498E+01  0.63484680492E+01  0.24940152207E+02  0.00000000000E+00 0.  1.
         11    1    4    4    0    0 -0.45355189182E+02  0.83487157250E+02 -0.94426650807E+02  0.13395368974E+03  0.00000000000E+00 0. -1.
</event>
<event>
 8    1  0.6627806E-009  0.1251560E+03  0.7561462E-02  0.1234826E+00
          2   -1    0    0  501    0  0.00000000000E+00  0.00000000000E+00  0.17787654278E+03  0.17787654278E+03  0.00000000000E+00 0. -1.
         -2   -1    0    0    0  501 -0.00000000000E+00 -0.00000000000E+00 -0.19204065405E+03  0.19204065405E+03  0.00000000000E+00 0.  1.
         25    2    1    2    0    0  0.95573000708E+02  0.77859070858E+02  0.76606612856E+02  0.19160229936E+03  0.12508650850E+03 0.  0.
         23    2    1    2    0    0 -0.95573000708E+02 -0.77859070858E+02 -0.90770724128E+02  0.17831489746E+03  0.91436562265E+02 0.  0.
          5    1    3    3  502    0  0.75285217680E+02  0.67453919830E+02  0.11096094858E+03  0.15015891519E+03  0.41800000000E+01 0. -1.
         -5    1    3    3    0  502  0.20287783027E+02  0.10405151028E+02 -0.34354335727E+02  0.41443384168E+02  0.41800000000E+01 0. -1.
        -11    1    4    4    0    0 -0.65661966229E+02 -0.67850719201E+02 -0.10711595902E+03  0.14279020478E+03  0.00000000000E+00 0.  1.
         11    1    4    4    0    0 -0.29911034479E+02 -0.10008351657E+02  0.16345234890E+02  0.35524692681E+02  0.00000000000E+00 0. -1.
</event>
<event>
 8    1  0.6627806E-009  0.1063529E+03  0.7561462E-02  0.1267477E+00
         -4   -1    0    0    0  501 -0.00000000000E+00  0.00000000000E+00  0.13874858591E+03  0.13874858591E+03  0.00000000000E+00 0.  1.
          4   -1    0    0  501    0  0.00000000000E+00 -0.00000000000E+00 -0.14360137759E+03  0.14360137759E+03  0.00000000000E+00 0. -1.
         25    2    1    2    0    0 -0.40669404330E+02  0.62584668345E+02 -0.51415712206E+02  0.15447266447E+03  0.12508951773E+03 0.  0.
         23    2    1    2    0    0  0.40669404330E+02 -0.62584668345E+02  0.46562920518E+02  0.12787729903E+03  0.92809788711E+02 0.  0.
          5    1    3    3  502    0  0.83149795153E+00 -0.30624521763E+02  0.13211450884E+02  0.33623913462E+02  0.41800000000E+01 0. -1.
         -5    1    3    3    0  502 -0.41500902282E+02  0.93209190108E+02 -0.64627163089E+02  0.12084875101E+03  0.41800000000E+01 0. -1.
        -11    1    4    4    0    0  0.27690013534E+02 -0.17505926992E+02  0.68621147444E+02  0.76039833021E+02  0.00000000000E+00 0.  1.
         11    1    4    4    0    0  0.12979390796E+02 -0.45078741354E+02 -0.22058226926E+02  0.51837466012E+02  0.00000000000E+00 0. -1.
</event>
<event>
 8    1  0.6627806E-009  0.1529557E+03  0.7561462E-02  0.1196887E+00
         -2   -1    0    0    0  501 -0.00000000000E+00  0.00000000000E+00  0.80202298237E+02  0.80202298237E+02  0.00000000000E+00 0.  1.
          2   -1    0    0  501    0  0.00000000000E+00 -0.00000000000E+00 -0.48026969669E+03  0.48026969669E+03  0.00000000000E+00 0. -1.
         25    2    1    2    0    0  0.69158568347E+02 -0.11920801027E+03 -0.33521132066E+03  0.38341514332E+03  0.12508831015E+03 0.  0.
         23    2    1    2    0    0 -0.69158568347E+02  0.11920801027E+03 -0.64856077786E+02  0.17705685161E+03  0.90273808977E+02 0.  0.
          5    1    3    3  502    0  0.85848570327E+02 -0.11903388327E+03 -0.20545970852E+03  0.25252763536E+03  0.41800000000E+01 0. -1.
         -5    1    3    3    0  502 -0.16690001980E+02 -0.17412699651E+00 -0.12975161214E+03  0.13088750796E+03  0.41800000000E+01 0. -1.
        -11    1    4    4    0    0 -0.14371133700E+01  0.29244619089E+02  0.20513019261E+02  0.35750482510E+02  0.00000000000E+00 0.  1.
         11    1    4    4    0    0 -0.67721454977E+02  0.89963391178E+02 -0.85369097047E+02  0.14130636910E+03  0.00000000000E+00 0. -1.
</event>
<event>
 8    1  0.6627806E-009  0.9353035E+02  0.7561462E-02  0.1294521E+00
          3   -1    0    0  501    0  0.00000000000E+00  0.00000000000E+00  0.28480397135E+02  0.28480397135E+02  0.00000000000E+00 0. -1.
         -3   -1    0    0    0  501 -0.00000000000E+00 -0.00000000000E+00 -0.63088110777E+03  0.63088110777E+03  0.00000000000E+00 0.  1.
         25    2    1    2    0    0  0.36978418049E+02  0.47547801533E+02 -0.39609398879E+03  0.41972239571E+03  0.12509294412E+03 0.  0.
         23    2    1    2    0    0 -0.36978418049E+02 -0.47547801533E+02 -0.20630672184E+03  0.23963910920E+03  0.10600114315E+03 0.  0.
          5    1    3    3  502    0  0.16436910457E+02  0.56193053180E+02 -0.63944412001E+02  0.86799720490E+02  0.41800000000E+01 0. -1.
         -5    1    3    3    0  502  0.20541507591E+02 -0.86452516465E+01 -0.33214957679E+03  0.33292267522E+03  0.41800000000E+01 0. -1.
        -11    1    4    4    0    0  0.28451284112E+02 -0.94717531070E+01 -0.14247997642E+02  0.33199323959E+02  0.00000000000E+00 0. -1.
         11    1    4    4    0    0 -0.65429702160E+02 -0.38076048426E+02 -0.19205872420E+03  0.20643978524E+03  0.00000000000E+00 0.  1.
</event>
<event>
 8    1  0.6627806E-009  0.1000360E+03  0.7561462E-02  0.1280220E+00
          1   -1    0    0  501    0  0.00000000000E+00  0.00000000000E+00  0.12676929796E+04  0.12676929796E+04  0.00000000000E+00 0. -1.
         -1   -1    0    0    0  501 -0.00000000000E+00 -0.00000000000E+00 -0.14275374519E+02  0.14275374519E+02  0.00000000000E+00 0.  1.
         25    2    1    2    0    0 -0.32699593589E+02 -0.71589125039E+02  0.73958502233E+03  0.75420682994E+03  0.12509065044E+03 0.  0.
         23    2    1    2    0    0  0.32699593589E+02  0.71589125039E+02  0.51383258271E+03  0.52776152414E+03  0.91181341635E+02 0.  0.
          5    1    3    3  502    0 -0.28544722060E+02 -0.56909992891E+02  0.73496292074E+03  0.73772726377E+03  0.41800000000E+01 0.  1.
         -5    1    3    3    0  502 -0.41548715290E+01 -0.14679132148E+02  0.46221015916E+01  0.16479566170E+02  0.41800000000E+01 0.  1.
        -11    1    4    4    0    0 -0.25704743056E+02  0.53422524315E+02  0.25400774506E+03  0.26083449632E+03  0.00000000000E+00 0.  1.
         11    1    4    4    0    0  0.58404336644E+02  0.18166600724E+02  0.25982483765E+03  0.26692702782E+03  0.00000000000E+00 0. -1.
</event>
<event>
 8    1  0.6627806E-009  0.9362697E+02  0.7561462E-02  0.1294299E+00
         -1   -1    0    0    0  501 -0.00000000000E+00  0.00000000000E+00  0.38127558144E+02  0.38127558144E+02  0.00000000000E+00 0.  1.
          1   -1    0    0  501    0  0.00000000000E+00 -0.00000000000E+00 -0.32920667899E+03  0.32920667899E+03  0.00000000000E+00 0. -1.
         25    2    1    2    0    0  0.76485127159E+01 -0.26523639009E+02 -0.15927615522E+03  0.20439811470E+03  0.12509073707E+03 0.  0.
         23    2    1    2    0    0 -0.76485127159E+01  0.26523639009E+02 -0.13180296563E+03  0.16293612243E+03  0.91728703639E+02 0.  0.
          5    1    3    3  502    0 -0.12786233958E+02 -0.56784348698E+02 -0.15709174546E+03  0.16758054460E+03  0.41800000000E+01 0.  1.
         -5    1    3    3    0  502  0.20434746674E+02  0.30260709689E+02 -0.21844097587E+01  0.36817570106E+02  0.41800000000E+01 0.  1.
        -11    1    4    4    0    0  0.39821199767E+02  0.18857157084E+02 -0.40992335008E+02  0.60180493963E+02  0.00000000000E+00 0.  1.
         11    1    4    4    0    0 -0.47469712483E+02  0.76664819250E+01 -0.90810630621E+02  0.10275562847E+03  0.00000000000E+00 0. -1.
</event>
<event>
 8    1  0.6627806E-009  0.1276887E+03  0.7561462E-02  0.1230926E+00
          2   -1    0    0  501    0  0.00000000000E+00  0.00000000000E+00  0.12394944898E+03  0.12394944898E+03  0.00000000000E+00 0. -1.
         -2   -1    0    0    0  501 -0.00000000000E+00 -0.00000000000E+00 -0.15606779774E+03  0.15606779774E+03  0.00000000000E+00 0.  1.
         25    2    1    2    0    0  0.74132505312E+02 -0.18789360818E+02 -0.60574130264E+02  0.15864499687E+03  0.12510132433E+03 0.  0.
         23    2    1    2    0    0 -0.74132505312E+02  0.18789360818E+02  0.28455781499E+02  0.12137224985E+03  0.89848890420E+02 0.  0.
          5    1    3    3  502    0 -0.26602311027E+02  0.24823105672E+02 -0.18295881129E+02  0.40939970609E+02  0.41800000000E+01 0.  1.
         -5    1    3    3    0  502  0.10073481634E+03 -0.43612466490E+02 -0.42278249135E+02  0.11770502626E+03  0.41800000000E+01 0.  1.
        -11    1    4    4    0    0  0.15206024748E+02  0.11882184723E+02 -0.12351843672E+02  0.22912388451E+02  0.00000000000E+00 0.  1.
         11    1    4    4    0    0 -0.89338530060E+02  0.69071760948E+01  0.40807625171E+02  0.98459861401E+02  0.00000000000E+00 0. -1.
</event>
<event>
 8    1  0.6627806E-009  0.1488983E+03  0.7561462E-02  0.1201833E+00
         -2   -1    0    0    0  501 -0.00000000000E+00  0.00000000000E+00  0.52721748182E+02  0.52721748182E+02  0.00000000000E+00 0.  1.
          2   -1    0    0  501    0  0.00000000000E+00 -0.00000000000E+00 -0.52610764725E+03  0.52610764725E+03  0.00000000000E+00 0. -1.
         25    2    1    2    0    0  0.86654553984E+02  0.54794241934E+02 -0.12509702521E+03  0.20447213023E+03  0.12509262827E+03 0.  0.
         23    2    1    2    0    0 -0.86654553984E+02 -0.54794241934E+02 -0.34828887386E+03  0.37435726521E+03  0.91251310577E+02 0.  0.
          5    1    3    3  502    0  0.79861652873E+02 -0.22649200557E+02 -0.74531413557E+02  0.11163903391E+03  0.41800000000E+01 0.  1.
         -5    1    3    3    0  502  0.67929011108E+01  0.77443442491E+02 -0.50565611650E+02  0.92833096317E+02  0.41800000000E+01 0.  1.
        -11    1    4    4    0    0 -0.93152776773E+02 -0.72451970086E+02 -0.30979030140E+03  0.33150680028E+03  0.00000000000E+00 0. -1.
         11    1    4    4    0    0  0.64982227898E+01  0.17657728152E+02 -0.38498572462E+02  0.42850464928E+02  0.00000000000E+00 0.  1.
</event>
<event>
 8    1  0.6627806E-009  0.1194888E+03  0.7561462E-02  0.1243943E+00
         -1   -1    0    0    0  501 -0.00000000000E+00  0.00000000000E+00  0.20448661904E+02  0.20448661904E+02  0.00000000000E+00 0.  1.
          1   -1    0    0  501    0  0.00000000000E+00 -0.00000000000E+00 -0.83055477556E+03  0.83055477556E+03  0.00000000000E+00 0. -1.
         25    2    1    2    0    0 -0.10933644285E+02 -0.53579620450E+02 -0.29419711103E+03  0.32433251249E+03  0.12509723503E+03 0.  0.
         23    2    1    2    0    0  0.10933644285E+02  0.53579620450E+02 -0.51590900263E+03  0.52667092498E+03  0.90718487208E+02 0.  0.
          5    1    3    3  502    0 -0.12403340558E+01  0.40891131608E+02 -0.78542726576E+02  0.88656953313E+02  0.41800000000E+01 0. -1.
         -5    1    3    3    0  502 -0.96933102296E+01 -0.94470752058E+02 -0.21565438446E+03  0.23567555918E+03  0.41800000000E+01 0. -1.
        -11    1    4    4    0    0  0.42309733572E+02  0.57270002225E+02 -0.41049324490E+03  0.41662293602E+03  0.00000000000E+00 0. -1.
         11    1    4    4    0    0 -0.31376089287E+02 -0.36903817745E+01 -0.10541575772E+03  0.11004798896E+03  0.00000000000E+00 0.  1.
</event>
<event>
 8    1  0.6627806E-009  0.1304703E+03  0.7561462E-02  0.1226760E+00
          2   -1    0    0  501    0  0.00000000000E+00  0.00000000000E+00  0.18513958342E+04  0.18513958342E+04  0.00000000000E+00 0.  1.
         -2   -1    0    0    0  501 -0.00000000000E+00 -0.00000000000E+00 -0.11064948676E+02  0.11064948676E+02  0.00000000000E+00 0. -1.
         25    2    1    2    0    0  0.78842054851E+02  0.77084314776E+01  0.12984509680E+04  0.13068655857E+04  0.12508898099E+03 0.  0.
         23    2    1    2    0    0 -0.78842054851E+02 -0.77084314776E+01  0.54187991753E+03  0.55559519722E+03  0.93683982734E+02 0.  0.
          5    1    3    3  502    0 -0.59586338692E+01  0.45634634064E+02  0.24512136326E+03  0.24943933185E+03  0.41800000000E+01 0.  1.
         -5    1    3    3    0  502  0.84800688721E+02 -0.37926202586E+02  0.10533296047E+04  0.10574262538E+04  0.41800000000E+01 0.  1.
        -11    1    4    4    0    0 -0.10016830696E+03 -0.61684352735E+01  0.47037178338E+03  0.48095878609E+03  0.00000000000E+00 0.  1.
         11    1    4    4    0    0  0.21326252107E+02 -0.15399962041E+01  0.71508134148E+02  0.74636411132E+02  0.00000000000E+00 0. -1.
</event>
<event>
 8    1  0.6627806E-009  0.9165133E+02  0.7561462E-02  0.1298901E+00
         -2   -1    0    0    0  501 -0.00000000000E+00  0.00000000000E+00  0.97666460745E+02  0.97666460745E+02  0.00000000000E+00 0.  1.
          2   -1    0    0  501    0  0.00000000000E+00 -0.00000000000E+00 -0.13507166357E+03  0.13507166357E+03  0.00000000000E+00 0. -1.
         25    2    1    2    0    0 -0.22890209526E+02  0.18655362665E+02 -0.38583720924E+02  0.13419767712E+03  0.12509328030E+03 0.  0.
         23    2    1    2    0    0  0.22890209526E+02 -0.18655362665E+02  0.11785180940E+01  0.98540447199E+02  0.94004502982E+02 0.  0.
          5    1    3    3  502    0 -0.19862259690E+02  0.71290175931E+02 -0.12291839404E+02  0.75135612464E+02  0.41800000000E+01 0. -1.
         -5    1    3    3    0  502 -0.30279498358E+01 -0.52634813266E+02 -0.26291881519E+02  0.59062064657E+02  0.41800000000E+01 0. -1.
        -11    1    4    4    0    0 -0.14692258654E+02 -0.98599070109E+01  0.40035494435E+02  0.43771235364E+02  0.00000000000E+00 0.  1.
         11    1    4    4    0    0  0.37582468180E+02 -0.87954556544E+01 -0.38856976341E+02  0.54769211835E+02  0.00000000000E+00 0. -1.
</event>
<event>
 8    1  0.6627806E-009  0.9770612E+02  0.7561462E-02  0.1285195E+00
         -1   -1    0    0    0  501 -0.00000000000E+00  0.00000000000E+00  0.41255485466E+02  0.41255485466E+02  0.00000000000E+00 0.  1.
          1   -1    0    0  501    0  0.00000000000E+00 -0.00000000000E+00 -0.48977647807E+03  0.48977647807E+03  0.00000000000E+00 0. -1.
         25    2    1    2    0    0 -0.29324968557E+02  0.15491139161E+02 -0.40610036137E+03  0.42622230991E+03  0.12509206527E+03 0.  0.
         23    2    1    2    0    0  0.29324968557E+02 -0.15491139161E+02 -0.42420631240E+02  0.10480965363E+03  0.89920099894E+02 0.  0.
          5    1    3    3  502    0  0.39114175630E+02 -0.42153558774E+00 -0.27143081721E+03  0.27426676313E+03  0.41800000000E+01 0.  1.
         -5    1    3    3    0  502 -0.68439144187E+02  0.15912674749E+02 -0.13466954416E+03  0.15195554679E+03  0.41800000000E+01 0.  1.
        -11    1    4    4    0    0 -0.22111230077E+02 -0.25001249000E+02  0.55514285622E+01  0.33834705646E+02  0.00000000000E+00 0.  1.
         11    1    4    4    0    0  0.51436198634E+02  0.95101098381E+01 -0.47972059803E+02  0.70974947980E+02  0.00000000000E+00 0. -1.
</event>
<event>
 8    1  0.6627806E-009  0.1025880E+03  0.7561462E-02  0.1274946E+00
          2   -1    0    0  501    0  0.00000000000E+00  0.00000000000E+00  0.33382052411E+03  0.33382052411E+03  0.00000000000E+00 0. -1.
         -2   -1    0    0    0  501 -0.00000000000E+00 -0.00000000000E+00 -0.57885408784E+02  0.57885408784E+02  0.00000000000E+00 0.  1.
         25    2    1    2    0    0 -0.51727743857E+02  0.42234919954E+02  0.74893111548E+02  0.16036209454E+03  0.12508986874E+03 0.  0.
         23    2    1    2    0    0  0.51727743857E+02 -0.42234919954E+02  0.20104200377E+03  0.23134383835E+03  0.92965242494E+02 0.  0.
          5    1    3    3  502    0  0.31855022183E+02 -0.42302839023E+01 -0.83985569652E+01  0.33476049637E+02  0.41800000000E+01 0.  1.
         -5    1    3    3    0  502 -0.83582766040E+02  0.46465203857E+02  0.83291668514E+02  0.12688604491E+03  0.41800000000E+01 0.  1.
        -11    1    4    4    0    0  0.30579689147E+02 -0.87030461829E+00  0.17585922681E+03  0.17850025902E+03  0.00000000000E+00 0. -1.
         11    1    4    4    0    0  0.21148054709E+02 -0.41364615336E+02  0.25182776965E+02  0.52843579322E+02  0.00000000000E+00 0.  1.
</event>
<event>
 8    1  0.6627806E-009  0.1270989E+03  0.7561462E-02  0.1231825E+00
          1   -1    0    0  501    0  0.00000000000E+00  0.00000000000E+00  0.10350746575E+04  0.10350746575E+04  0.00000000000E+00 0. -1.
         -1   -1    0    0    0  501 -0.00000000000E+00 -0.00000000000E+00 -0.16972995176E+02  0.16972995176E+02  0.00000000000E+00 0.  1.
         25    2    1    2    0    0 -0.15366094803E+02 -0.75026745507E+02  0.55613767005E+03  0.57515330874E+03  0.12508833320E+03 0.  0.
         23    2    1    2    0    0  0.15366094803E+02  0.75026745507E+02  0.46196399224E+03  0.47689434390E+03  0.90290396520E+02 0.  0.
          5    1    3    3  502    0 -0.57152090696E+02 -0.85685848154E+02  0.40685435762E+03  0.41970986021E+03  0.41800000000E+01 0. -1.
         -5    1    3    3    0  502  0.41785995893E+02  0.10659102647E+02  0.14928331243E+03  0.15544344853E+03  0.41800000000E+01 0. -1.
        -11    1    4    4    0    0  0.45975632120E+02  0.52493419783E+02  0.38243725633E+03  0.38875129955E+03  0.00000000000E+00 0. -1.
         11    1    4    4    0    0 -0.30609537317E+02  0.22533325724E+02  0.79526735907E+02  0.88143044349E+02  0.00000000000E+00 0.  1.
</event>
<event>
 8    1  0.6627806E-009  0.1482390E+03  0.7561462E-02  0.1202654E+00
          2   -1    0    0  501    0  0.00000000000E+00  0.00000000000E+00  0.64964327900E+03  0.64964327900E+03  0.00000000000E+00 0. -1.
         -2   -1    0    0    0  501 -0.00000000000E+00 -0.00000000000E+00 -0.36976163873E+02  0.36976163873E+02  0.00000000000E+00 0.  1.
         25    2    1    2    0    0  0.47248712874E+02  0.95818735158E+02  0.38906957593E+03  0.42241950877E+03  0.12509770421E+03 0.  0.
         23    2    1    2    0    0 -0.47248712874E+02 -0.95818735158E+02  0.22359753919E+03  0.26419993410E+03  0.91608268017E+02 0.  0.
          5    1    3    3  502    0  0.40224491712E+02  0.12189614213E+03  0.25411203280E+03  0.28472280698E+03  0.41800000000E+01 0.  1.
         -5    1    3    3    0  502  0.70242211623E+01 -0.26077406969E+02  0.13495754313E+03  0.13769670179E+03  0.41800000000E+01 0.  1.
        -11    1    4    4    0    0 -0.41546039367E+02  0.30772209824E+01  0.67830847196E+02  0.79602553397E+02  0.00000000000E+00 0. -1.
         11    1    4    4    0    0 -0.57026735072E+01 -0.98895956140E+02  0.15576669199E+03  0.18459738070E+03  0.00000000000E+00 0.  1.
</event>
<event>
 8    1  0.6627806E-009  0.1481080E+03  0.7561462E-02  0.1202817E+00
          2   -1    0    0  501    0  0.00000000000E+00  0.00000000000E+00  0.49587970461E+03  0.49587970461E+03  0.00000000000E+00 0. -1.
         -2   -1    0    0    0  501 -0.00000000000E+00 -0.00000000000E+00 -0.61421612372E+02  0.61421612372E+02  0.00000000000E+00 0.  1.
         25    2    1    2    0    0 -0.63508189617E+02  0.87371736025E+02  0.36050071039E+03  0.39657937318E+03  0.12508927466E+03 0.  0.
         23    2    1    2    0    0  0.63508189617E+02 -0.87371736025E+02  0.73957381846E+02  0.16072194380E+03  0.93245581586E+02 0.  0.
          5    1    3    3  502    0  0.44719721444E+01 -0.27859628900E+02  0.95843776223E+02  0.99998296475E+02  0.41800000000E+01 0. -1.
         -5    1    3    3    0  502 -0.67980161762E+02  0.11523136493E+03  0.26465693417E+03  0.29658107670E+03  0.41800000000E+01 0. -1.
        -11    1    4    4    0    0  0.40927032337E+02 -0.99939010699E+02  0.34156843533E+02  0.11326746133E+03  0.00000000000E+00 0.  1.
         11    1    4    4    0    0  0.22581157280E+02  0.12567274674E+02  0.39800538313E+02  0.47454482474E+02  0.00000000000E+00 0. -1.
</event>
<event>
 8    1  0.6627806E-009  0.1392025E+03  0.7561462E-02  0.1214406E+00
         -2   -1    0    0    0  501 -0.00000000000E+00  0.00000000000E+00  0.13416982451E+03  0.13416982451E+03  0.00000000000E+00 0. -1.
          2   -1    0    0  501    0  0.00000000000E+00 -0.00000000000E+00 -0.17723692413E+03  0.17723692413E+03  0.00000000000E+00 0.  1.
         25    2    1    2    0    0  0.48990548083E+02  0.95318198341E+02 -0.41669550683E+02  0.16991291315E+03  0.12509362040E+03 0.  0.
         23    2    1    2    0    0 -0.48990548083E+02 -0.95318198341E+02 -0.13975489368E+01  0.14149383548E+03  0.92373803649E+02 0.  0.
          5    1    3    3  502    0  0.82360193971E+02  0.10039624952E+03 -0.39660612568E+02  0.13584198562E+03  0.41800000000E+01 0.  1.
         -5    1    3    3    0  502 -0.33369645888E+02 -0.50780511770E+01 -0.20089381146E+01  0.34070927531E+02  0.41800000000E+01 0.  1.
        -11    1    4    4    0    0  0.62432190948E+01 -0.20779496349E+02 -0.36368312625E+02  0.42348782939E+02  0.00000000000E+00 0.  1.
         11    1    4    4    0    0 -0.55233767178E+02 -0.74538701992E+02  0.34970763689E+02  0.99145052546E+02  0.00000000000E+00 0. -1.
</event>
<event>
 8    1  0.6627806E-009  0.1097830E+03  0.7561462E-02  0.1260972E+00
         -2   -1    0    0    0  501 -0.00000000000E+00  0.00000000000E+00  0.60259813100E+02  0.60259813100E+02  0.00000000000E+00 0.  1.
          2   -1    0    0  501    0  0.00000000000E+00 -0.00000000000E+00 -0.25451493554E+03  0.25451493554E+03  0.00000000000E+00 0. -1.
         25    2    1    2    0    0  0.21032320278E+02 -0.26735420746E+02 -0.17190889690E+03  0.21530606343E+03  0.12508753295E+03 0.  0.
         23    2    1    2    0    0 -0.21032320278E+02  0.26735420746E+02 -0.22346225545E+02  0.99468685213E+02  0.90760808299E+02 0.  0.
          5    1    3    3  502    0 -0.21685940116E+02  0.42263984019E+02 -0.74474357212E+02  0.88433176049E+02  0.41800000000E+01 0. -1.
         -5    1    3    3    0  502  0.42718260395E+02 -0.68999404765E+02 -0.97434539687E+02  0.12687288738E+03  0.41800000000E+01 0. -1.
        -11    1    4    4    0    0 -0.53687738525E+02  0.19891907353E+02 -0.30850631609E+02  0.65037087240E+02  0.00000000000E+00 0. -1.
         11    1    4    4    0    0  0.32655418246E+02  0.68435133927E+01  0.85044060641E+01  0.34431597972E+02  0.00000000000E+00 0.  1.
</event>
<event>
 8    1  0.6627806E-009  0.7992001E+02  0.7561462E-02  0.1329279E+00
          2   -1    0    0  501    0  0.00000000000E+00  0.00000000000E+00  0.33003218674E+03  0.33003218674E+03  0.00000000000E+00 0.  1.
         -2   -1    0    0    0  501 -0.00000000000E+00 -0.00000000000E+00 -0.53548427516E+02  0.53548427516E+02  0.00000000000E+00 0. -1.
         25    2    1    2    0    0 -0.61155251372E+02 -0.16197922201E+02  0.21676997436E+03  0.25814047695E+03  0.12507976096E+03 0.  0.
         23    2    1    2    0    0  0.61155251372E+02  0.16197922201E+02  0.59713784860E+02  0.12544013730E+03  0.90372310418E+02 0.  0.
          5    1    3    3  502    0 -0.17240457448E+00 -0.12527788365E+02 -0.14080850114E+02  0.19305904397E+02  0.41800000000E+01 0. -1.
         -5    1    3    3    0  502 -0.60982846797E+02 -0.36701338365E+01  0.23085082448E+03  0.23883457255E+03  0.41800000000E+01 0. -1.
        -11    1    4    4    0    0  0.13533344036E+02 -0.20989847100E+02  0.60029748396E+02  0.65017657406E+02  0.00000000000E+00 0.  1.
         11    1    4    4    0    0  0.47621907336E+02  0.37187769301E+02 -0.31596353642E+00  0.60422479897E+02  0.00000000000E+00 0. -1.
</event>
<event>
 8    1  0.6627806E-009  0.1036948E+03  0.7561462E-02  0.1272713E+00
          1   -1    0    0  501    0  0.00000000000E+00  0.00000000000E+00  0.28378742149E+03  0.28378742149E+03  0.00000000000E+00 0. -1.
         -1   -1    0    0    0  501 -0.00000000000E+00 -0.00000000000E+00 -0.55916134453E+02  0.55916134453E+02  0.00000000000E+00 0.  1.
         25    2    1    2    0    0 -0.50702614547E+02  0.25227547665E+02  0.83643497750E+02  0.16076867129E+03  0.12507256561E+03 0.  0.
         23    2    1    2    0    0  0.50702614547E+02 -0.25227547665E+02  0.14422778929E+03  0.17893488466E+03  0.89492197770E+02 0.  0.
          5    1    3    3  502    0 -0.12029338890E+01 -0.43107770299E+02  0.58162658499E+02  0.72526506560E+02  0.41800000000E+01 0. -1.
         -5    1    3    3    0  502 -0.49499680658E+02  0.68335317964E+02  0.25480839251E+02  0.88242164726E+02  0.41800000000E+01 0. -1.
        -11    1    4    4    0    0  0.46028003698E+02  0.73999114575E+01  0.20562523729E+02  0.50952460158E+02  0.00000000000E+00 0.  1.
         11    1    4    4    0    0  0.46746108496E+01 -0.32627459122E+02  0.12366526556E+03  0.12798242450E+03  0.00000000000E+00 0. -1.
</event>
<event>
 8    1  0.6627806E-009  0.1273813E+03  0.7561462E-02  0.1231394E+00
          3   -1    0    0  501    0  0.00000000000E+00  0.00000000000E+00  0.69744093735E+02  0.69744093735E+02  0.00000000000E+00 0. -1.
         -3   -1    0    0    0  501 -0.00000000000E+00 -0.00000000000E+00 -0.31496032999E+03  0.31496032999E+03  0.00000000000E+00 0.  1.
         25    2    1    2    0    0 -0.78461605467E+02  0.60893104070E+02 -0.10771776720E+03  0.19265749715E+03  0.12509836203E+03 0.  0.
         23    2    1    2    0    0  0.78461605467E+02 -0.60893104070E+02 -0.13749846905E+03  0.19204692657E+03  0.90066638434E+02 0.  0.
          5    1    3    3  502    0  0.14833329738E+02  0.14068840326E+02 -0.82621193195E+02  0.85215573131E+02  0.41800000000E+01 0.  1.
         -5    1    3    3    0  502 -0.93294935205E+02  0.46824263744E+02 -0.25096574009E+02  0.10744192402E+03  0.41800000000E+01 0.  1.
        -11    1    4    4    0    0  0.88944745810E+02 -0.25522159692E+02 -0.73483658149E+02  0.11816258485E+03  0.00000000000E+00 0. -1.
         11    1    4    4    0    0 -0.10483140343E+02 -0.35370944378E+02 -0.64014810899E+02  0.73884341724E+02  0.00000000000E+00 0.  1.
</event>
<event>
 8    1  0.6627806E-009  0.1377056E+03  0.7561462E-02  0.1216450E+00
         -1   -1    0    0    0  501 -0.00000000000E+00  0.00000000000E+00  0.16995792725E+03  0.16995792725E+03  0.00000000000E+00 0.  1.
          1   -1    0    0  501    0  0.00000000000E+00 -0.00000000000E+00 -0.14925941651E+03  0.14925941651E+03  0.00000000000E+00 0. -1.
         25    2    1    2    0    0  0.22035261186E+02 -0.11158790557E+03  0.36305120018E+02  0.17292464022E+03  0.12508979195E+03 0.  0.
         23    2    1    2    0    0 -0.22035261186E+02  0.11158790557E+03 -0.15606609279E+02  0.14629270354E+03  0.90667389121E+02 0.  0.
          5    1    3    3  502    0  0.58644070425E+02 -0.10548863124E+03 -0.10408569514E+00  0.12076614406E+03  0.41800000000E+01 0. -1.
         -5    1    3    3    0  502 -0.36608809239E+02 -0.60992743303E+01  0.36409205713E+02  0.52158496162E+02  0.41800000000E+01 0. -1.
        -11    1    4    4    0    0 -0.12031069193E+02  0.10412009276E+03  0.21627917081E+02  0.10702105933E+03  0.00000000000E+00 0.  1.
         11    1    4    4    0    0 -0.10004191993E+02  0.74678128087E+01 -0.37234526360E+02  0.39271644209E+02  0.00000000000E+00 0. -1.
</event>
<event>
 8    1  0.6627806E-009  0.1102717E+03  0.7561462E-02  0.1260067E+00
          4   -1    0    0  501    0  0.00000000000E+00  0.00000000000E+00  0.66755887846E+03  0.66755887846E+03  0.00000000000E+00 0. -1.
         -4   -1    0    0    0  501 -0.00000000000E+00 -0.00000000000E+00 -0.24403938308E+02  0.24403938308E+02  0.00000000000E+00 0.  1.
         25    2    1    2    0    0  0.49928381992E+02 -0.45030137026E+02  0.35845003340E+03  0.38555776688E+03  0.12509120110E+03 0.  0.
         23    2    1    2    0    0 -0.49928381992E+02  0.45030137026E+02  0.28470490676E+03  0.30640504989E+03  0.91140628127E+02 0.  0.
          5    1    3    3  502    0 -0.21716117322E+02  0.56551415060E+01  0.78840875366E+01  0.24149567559E+02  0.41800000000E+01 0.  1.
         -5    1    3    3    0  502  0.71644499314E+02 -0.50685278532E+02  0.35056594586E+03  0.36140819932E+03  0.41800000000E+01 0.  1.
        -11    1    4    4    0    0  0.74732106982E+01 -0.21043874052E+02  0.93335965835E+02  0.95970287233E+02  0.00000000000E+00 0. -1.
         11    1    4    4    0    0 -0.57401592691E+02  0.66074011078E+02  0.19136894092E+03  0.21043476265E+03  0.00000000000E+00 0.  1.
</event>
<event>
 8    1  0.6627806E-009  0.1065203E+03  0.7561462E-02  0.1267153E+00
          2   -1    0    0  501    0  0.00000000000E+00  0.00000000000E+00  0.31958880014E+03  0.31958880014E+03  0.00000000000E+00 0. -1.
         -2   -1    0    0    0  501 -0.00000000000E+00 -0.00000000000E+00 -0.70137655126E+02  0.70137655126E+02  0.00000000000E+00 0.  1.
         25    2    1    2    0    0 -0.80751258158E+02  0.31708480422E+02  0.65058640513E+02  0.16554722375E+03  0.12508822152E+03 0.  0.
         23    2    1    2    0    0  0.80751258158E+02 -0.31708480422E+02  0.18439250450E+03  0.22417923151E+03  0.93432000406E+02 0.  0.
          5    1    3    3  502    0 -0.15844047985E+02  0.15822470930E+02 -0.37022108397E+02  0.43468302855E+02  0.41800000000E+01 0.  1.
         -5    1    3    3    0  502 -0.64907210172E+02  0.15886009492E+02  0.10208074891E+03  0.12207892090E+03  0.41800000000E+01 0.  1.
        -11    1    4    4    0    0  0.71121863770E+02  0.17437378837E+02  0.80361229855E+02  0.10872124425E+03  0.00000000000E+00 0. -1.
         11    1    4    4    0    0  0.96293943878E+01 -0.49145859259E+02  0.10403127465E+03  0.11545798726E+03  0.00000000000E+00 0.  1.
</event>
<event>
 8    1  0.6627806E-009  0.6102204E+02  0.7561462E-02  0.1393592E+00
         -2   -1    0    0    0  501 -0.00000000000E+00  0.00000000000E+00  0.85687004644E+02  0.85687004644E+02  0.00000000000E+00 0.  1.
          2   -1    0    0  501    0  0.00000000000E+00 -0.00000000000E+00 -0.14442164995E+03  0.14442164995E+03  0.00000000000E+00 0. -1.
         25    2    1    2    0    0 -0.58518785610E+01 -0.21262687605E+02 -0.46679921918E+02  0.13531109371E+03  0.12507489998E+03 0.  0.
         23    2    1    2    0    0  0.58518785610E+01  0.21262687605E+02 -0.12054723392E+02  0.94797560887E+02  0.91405223194E+02 0.  0.
          5    1    3    3  502    0 -0.31748870778E+02 -0.57326471847E+01 -0.82259034229E+02  0.88458324377E+02  0.41800000000E+01 0. -1.
         -5    1    3    3    0  502  0.25896992217E+02 -0.15530040420E+02  0.35579112311E+02  0.46852769333E+02  0.41800000000E+01 0. -1.
        -11    1    4    4    0    0  0.89654941050E+01 -0.17752705926E+02 -0.41366399111E+02  0.45898993754E+02  0.00000000000E+00 0. -1.
         11    1    4    4    0    0 -0.31136155440E+01  0.39015393531E+02  0.29311675719E+02  0.48898567132E+02  0.00000000000E+00 0.  1.
</event>
<event>
 8    1  0.6627806E-009  0.1476723E+03  0.7561462E-02  0.1203363E+00
         -1   -1    0    0    0  501 -0.00000000000E+00  0.00000000000E+00  0.46071652510E+02  0.46071652510E+02  0.00000000000E+00 0.  1.
          1   -1    0    0  501    0  0.00000000000E+00 -0.00000000000E+00 -0.52415504277E+03  0.52415504277E+03  0.00000000000E+00 0. -1.
         25    2    1    2    0    0  0.85402294266E+02 -0.70252655480E+02 -0.22336764111E+03  0.27886657623E+03  0.12507788284E+03 0.  0.
         23    2    1    2    0    0 -0.85402294266E+02  0.70252655480E+02 -0.25471574916E+03  0.29136011905E+03  0.88213483316E+02 0.  0.
          5    1    3    3  502    0  0.89881485214E+02 -0.17574470536E+00 -0.85662220849E+02  0.12423445879E+03  0.41800000000E+01 0.  1.
         -5    1    3    3    0  502 -0.44791909475E+01 -0.70076910775E+02 -0.13770542026E+03  0.15463211744E+03  0.41800000000E+01 0.  1.
        -11    1    4    4    0    0 -0.19595778168E+02  0.66256720486E+02 -0.86642841090E+02  0.11081935500E+03  0.00000000000E+00 0.  1.
         11    1    4    4    0    0 -0.65806516098E+02  0.39959349944E+01 -0.16807290807E+03  0.18054076405E+03  0.00000000000E+00 0. -1.
</event>
<event>
 8    1  0.6627806E-009  0.1506049E+03  0.7561462E-02  0.1199732E+00
         -1   -1    0    0    0  501 -0.00000000000E+00  0.00000000000E+00  0.14807837712E+03  0.14807837712E+03  0.00000000000E+00 0.  1.
          1   -1    0    0  501    0  0.00000000000E+00 -0.00000000000E+00 -0.15473016016E+03  0.15473016016E+03  0.00000000000E+00 0. -1.
         25    2    1    2    0    0 -0.22773038167E+02 -0.10219971542E+03 -0.19635580750E+01  0.16313933947E+03  0.12508875018E+03 0.  0.
         23    2    1    2    0    0  0.22773038167E+02  0.10219971542E+03 -0.46882249647E+01  0.13966919782E+03  0.92315287286E+02 0.  0.
          5    1    3    3  502    0  0.31749194823E+02  0.13727430826E+02  0.20297420965E+01  0.34900515497E+02  0.41800000000E+01 0.  1.
         -5    1    3    3    0  502 -0.54522232990E+02 -0.11592714625E+03 -0.39933001715E+01  0.12823882397E+03  0.41800000000E+01 0.  1.
        -11    1    4    4    0    0  0.39429299189E+02  0.11208846251E+03 -0.10917227413E+02  0.11932174536E+03  0.00000000000E+00 0. -1.
         11    1    4    4    0    0 -0.16656261022E+02 -0.98887470841E+01  0.62290024478E+01  0.20347452460E+02  0.00000000000E+00 0.  1.
</event>
<event>
 8    1  0.6627806E-009  0.1045914E+03  0.7561462E-02  0.1270927E+00
         -1   -1    0    0    0  501 -0.00000000000E+00  0.00000000000E+00  0.23377920989E+03  0.23377920989E+03  0.00000000000E+00 0.  1.
          1   -1    0    0  501    0  0.00000000000E+00 -0.00000000000E+00 -0.49218821885E+02  0.49218821885E+02  0.00000000000E+00 0. -1.
         25    2    1    2    0    0  0.88090568646E+01 -0.12157554787E+02  0.84742057602E+02  0.15183718298E+03  0.12509159919E+03 0.  0.
         23    2    1    2    0    0 -0.88090568646E+01  0.12157554787E+02  0.99818330402E+02  0.13116084879E+03  0.83750006275E+02 0.  0.
          5    1    3    3  502    0 -0.57772094658E+02  0.16608987787E+00  0.43563106580E+02  0.72476611137E+02  0.41800000000E+01 0. -1.
         -5    1    3    3    0  502  0.66581151523E+02 -0.12323644665E+02  0.41178951021E+02  0.79360571842E+02  0.41800000000E+01 0. -1.
        -11    1    4    4    0    0 -0.44651937859E+02 -0.24366970491E+01  0.66253864471E+02  0.79933144592E+02  0.00000000000E+00 0.  1.
         11    1    4    4    0    0  0.35842880994E+02  0.14594251836E+02  0.33564465931E+02  0.51227704203E+02  0.00000000000E+00 0. -1.
</event>
<event>
 8    1  0.6627806E-009  0.1182821E+03  0.7561462E-02  0.1245958E+00
         -4   -1    0    0    0  501 -0.00000000000E+00  0.00000000000E+00  0.53129541026E+03  0.53129541026E+03  0.00000000000E+00 0.  1.
          4   -1    0    0  501    0  0.00000000000E+00 -0.00000000000E+00 -0.36465740231E+02  0.36465740231E+02  0.00000000000E+00 0. -1.
         25    2    1    2    0    0  0.66088612311E+02  0.50292350927E+02  0.22756732637E+03  0.27263830814E+03  0.12509090211E+03 0.  0.
         23    2    1    2    0    0 -0.66088612311E+02 -0.50292350927E+02  0.26726234365E+03  0.29512284235E+03  0.93655253482E+02 0.  0.
          5    1    3    3  502    0  0.10284614537E+03  0.28803045904E+02  0.15234437232E+03  0.18610004097E+03  0.41800000000E+01 0.  1.
         -5    1    3    3    0  502 -0.36757533063E+02  0.21489305023E+02  0.75222954058E+02  0.86538267168E+02  0.41800000000E+01 0.  1.
        -11    1    4    4    0    0 -0.14900130040E+02 -0.26603952912E+02  0.10517357897E+02  0.32255216677E+02  0.00000000000E+00 0. -1.
         11    1    4    4    0    0 -0.51188482271E+02 -0.23688398015E+02  0.25674498576E+03  0.26286762568E+03  0.00000000000E+00 0.  1.
</event>
<event>
 8    1  0.6627806E-009  0.8791577E+02  0.7561462E-02  0.1307979E+00
          2   -1    0    0  501    0  0.00000000000E+00  0.00000000000E+00  0.28481226712E+03  0.28481226712E+03  0.00000000000E+00 0.  1.
         -2   -1    0    0    0  501 -0.00000000000E+00 -0.00000000000E+00 -0.65072209818E+02  0.65072209818E+02  0.00000000000E+00 0. -1.
         25    2    1    2    0    0  0.26985717721E+02 -0.15533348668E+02  0.21750369418E+03  0.25283000146E+03  0.12508252786E+03 0.  0.
         23    2    1    2    0    0 -0.26985717721E+02  0.15533348668E+02  0.22363631196E+01  0.97054475475E+02  0.91896985848E+02 0.  0.
          5    1    3    3  502    0  0.11400634264E+02  0.39633926870E+02  0.17878314787E+03  0.18352577199E+03  0.41800000000E+01 0.  1.
         -5    1    3    3    0  502  0.15585083457E+02 -0.55167275538E+02  0.38720546311E+02  0.69304229476E+02  0.41800000000E+01 0.  1.
        -11    1    4    4    0    0 -0.44908636520E+02  0.29881804120E+02 -0.26641585715E+02  0.60162130456E+02  0.00000000000E+00 0. -1.
         11    1    4    4    0    0  0.17922918799E+02 -0.14348455452E+02  0.28877948835E+02  0.36892345019E+02  0.00000000000E+00 0.  1.
</event>
<event>
 8    1  0.6627806E-009  0.1269162E+03  0.7561462E-02  0.1232105E+00
         -1   -1    0    0    0  501 -0.00000000000E+00  0.00000000000E+00  0.45731737573E+02  0.45731737573E+02  0.00000000000E+00 0.  1.
          1   -1    0    0  501    0  0.00000000000E+00 -0.00000000000E+00 -0.61589598036E+03  0.61589598036E+03  0.00000000000E+00 0. -1.
         25    2    1    2    0    0 -0.70791077908E+02  0.51189698080E+02 -0.12542415447E+03  0.19750499226E+03  0.12508093996E+03 0.  0.
         23    2    1    2    0    0  0.70791077908E+02 -0.51189698080E+02 -0.44474008832E+03  0.46412272567E+03  0.99921951699E+02 0.  0.
          5    1    3    3  502    0  0.90405030768E+01  0.63249535328E+02 -0.25373458927E+02  0.68873211288E+02  0.41800000000E+01 0.  1.
         -5    1    3    3    0  502 -0.79831580985E+02 -0.12059837249E+02 -0.10005069554E+03  0.12863178097E+03  0.41800000000E+01 0.  1.
        -11    1    4    4    0    0 -0.27083412462E+01  0.11832600645E+02 -0.38610674295E+01  0.12737872350E+02  0.00000000000E+00 0.  1.
         11    1    4    4    0    0  0.73499419155E+02 -0.63022298724E+02 -0.44087902089E+03  0.45138485332E+03  0.00000000000E+00 0. -1.
</event>
<event>
 8    1  0.6627806E-009  0.9386648E+02  0.7561462E-02  0.1293750E+00
          1   -1    0    0  501    0  0.00000000000E+00  0.00000000000E+00  0.15406448456E+03  0.15406448456E+03  0.00000000000E+00 0. -1.
         -1   -1    0    0    0  501 -0.00000000000E+00 -0.00000000000E+00 -0.86942005145E+02  0.86942005145E+02  0.00000000000E+00 0.  1.
         25    2    1    2    0    0  0.72424677836E+01  0.34967084464E+02  0.17692884068E+02  0.13128458537E+03  0.12508978325E+03 0.  0.
         23    2    1    2    0    0 -0.72424677836E+01 -0.34967084464E+02  0.49429595343E+02  0.10972190433E+03  0.91216561316E+02 0.  0.
          5    1    3    3  502    0  0.21078494487E+02 -0.28527313976E+02  0.47696306193E+02  0.59586245032E+02  0.41800000000E+01 0. -1.
         -5    1    3    3    0  502 -0.13836026704E+02  0.63494398441E+02 -0.30003422125E+02  0.71698340340E+02  0.41800000000E+01 0. -1.
        -11    1    4    4    0    0  0.26321785883E+02  0.12197519527E+02 -0.59446703731E+01  0.29613426018E+02  0.00000000000E+00 0.  1.
         11    1    4    4    0    0 -0.33564253666E+02 -0.47164603991E+02  0.55374265716E+02  0.80108478312E+02  0.00000000000E+00 0. -1.
</event>
<event>
 8    1  0.6627806E-009  0.1347073E+03  0.7561462E-02  0.1220634E+00
          1   -1    0    0  501    0  0.00000000000E+00  0.00000000000E+00  0.27183198787E+03  0.27183198787E+03  0.00000000000E+00 0. -1.
         -1   -1    0    0    0  501 -0.00000000000E+00 -0.00000000000E+00 -0.84364801411E+02  0.84364801411E+02  0.00000000000E+00 0.  1.
         25    2    1    2    0    0  0.99339287877E+02 -0.34714103050E+02  0.95173866902E+02  0.18915171319E+03  0.12508773958E+03 0.  0.
         23    2    1    2    0    0 -0.99339287877E+02  0.34714103050E+02  0.92293319561E+02  0.16704507610E+03  0.91173666959E+02 0.  0.
          5    1    3    3  502    0  0.85748364180E+02  0.33597539761E+02  0.41401275601E+02  0.10105995576E+03  0.41800000000E+01 0. -1.
         -5    1    3    3    0  502  0.13590923697E+02 -0.68311642812E+02  0.53772591301E+02  0.88091757422E+02  0.41800000000E+01 0. -1.
        -11    1    4    4    0    0 -0.29006247114E+02 -0.19693661292E-01  0.83159333740E+02  0.88072910407E+02  0.00000000000E+00 0. -1.
         11    1    4    4    0    0 -0.70333040763E+02  0.34733796712E+02  0.91339858207E+01  0.78972165691E+02  0.00000000000E+00 0.  1.
</event>
<event>
 8    1  0.6627806E-009  0.2119196E+03  0.7561462E-02  0.1140055E+00
          1   -1    0    0  501    0  0.00000000000E+00  0.00000000000E+00  0.66439150590E+03  0.66439150590E+03  0.00000000000E+00 0. -1.
         -1   -1    0    0    0  501 -0.00000000000E+00 -0.00000000000E+00 -0.11419141134E+03  0.11419141134E+03  0.00000000000E+00 0.  1.
         25    2    1    2    0    0 -0.17840532233E+03 -0.91618493374E+02  0.49726490457E+03  0.55058374676E+03  0.12509064520E+03 0.  0.
         23    2    1    2    0    0  0.17840532233E+03  0.91618493374E+02  0.52935189991E+02  0.22799917049E+03  0.94652416979E+02 0.  0.
          5    1    3    3  502    0 -0.17431011898E+03 -0.74241047590E+02  0.49736692066E+03  0.53224719529E+03  0.41800000000E+01 0.  1.
         -5    1    3    3    0  502 -0.40952033451E+01 -0.17377445784E+02 -0.10201609408E+00  0.18336551467E+02  0.41800000000E+01 0.  1.
        -11    1    4    4    0    0  0.84774672208E+02  0.88151071503E+02  0.55420632443E+02  0.13427137802E+03  0.00000000000E+00 0. -1.
         11    1    4    4    0    0  0.93630650121E+02  0.34674218714E+01 -0.24854424522E+01  0.93727792467E+02  0.00000000000E+00 0.  1.
</event>
<event>
 8    1  0.6627806E-009  0.1384506E+03  0.7561462E-02  0.1215429E+00
          2   -1    0    0  501    0  0.00000000000E+00  0.00000000000E+00  0.16039701309E+04  0.16039701309E+04  0.00000000000E+00 0. -1.
         -2   -1    0    0    0  501 -0.00000000000E+00 -0.00000000000E+00 -0.15578738447E+02  0.15578738447E+02  0.00000000000E+00 0.  1.
         25    2    1    2    0    0 -0.10626473911E+03  0.32692529357E+00  0.10709392102E+04  0.10834433963E+04  0.12508596812E+03 0.  0.
         23    2    1    2    0    0  0.10626473911E+03 -0.32692529357E+00  0.51745218223E+03  0.53610547301E+03  0.91433121117E+02 0.  0.
          5    1    3    3  502    0 -0.98509872730E+02 -0.32367942266E+02  0.99374916685E+03  0.99915302018E+03  0.41800000000E+01 0.  1.
         -5    1    3    3    0  502 -0.77548663762E+01  0.32694867559E+02  0.77190043334E+02  0.84290376124E+02  0.41800000000E+01 0.  1.
        -11    1    4    4    0    0  0.55440616666E+02 -0.45149550415E+02  0.23489029397E+03  0.24553124868E+03  0.00000000000E+00 0.  1.
         11    1    4    4    0    0  0.50824122441E+02  0.44822625121E+02  0.28256188826E+03  0.29057422433E+03  0.00000000000E+00 0. -1.
</event>
<event>
 8    1  0.6627806E-009  0.1448666E+03  0.7561462E-02  0.1206927E+00
          1   -1    0    0  501    0  0.00000000000E+00  0.00000000000E+00  0.34374854953E+03  0.34374854953E+03  0.00000000000E+00 0. -1.
         -1   -1    0    0    0  501 -0.00000000000E+00 -0.00000000000E+00 -0.82753759428E+02  0.82753759428E+02  0.00000000000E+00 0.  1.
         25    2    1    2    0    0 -0.89442404327E+02  0.70860647075E+02  0.22085005896E+03  0.27828538156E+03  0.12508728971E+03 0.  0.
         23    2    1    2    0    0  0.89442404327E+02 -0.70860647075E+02  0.40144731137E+02  0.14821692740E+03  0.85647435072E+02 0.  0.
          5    1    3    3  502    0 -0.89287314457E+01  0.69423326994E+02  0.41099361939E+02  0.81276998763E+02  0.41800000000E+01 0. -1.
         -5    1    3    3    0  502 -0.80513672882E+02  0.14373200810E+01  0.17975069702E+03  0.19700838279E+03  0.41800000000E+01 0. -1.
        -11    1    4    4    0    0  0.18101094398E+02  0.17659557417E+02  0.21116350887E+02  0.32945559054E+02  0.00000000000E+00 0. -1.
         11    1    4    4    0    0  0.71341309929E+02 -0.88520204492E+02  0.19028380251E+02  0.11527136835E+03  0.00000000000E+00 0.  1.
</event>
<event>
 8    1  0.6627806E-009  0.1771049E+03  0.7561462E-02  0.1170635E+00
         -2   -1    0    0    0  501 -0.00000000000E+00  0.00000000000E+00  0.14778483495E+03  0.14778483495E+03  0.00000000000E+00 0.  1.
          2   -1    0    0  501    0  0.00000000000E+00 -0.00000000000E+00 -0.31685761090E+03  0.31685761090E+03  0.00000000000E+00 0. -1.
         25    2    1    2    0    0 -0.10217052628E+03 -0.10535147156E+03 -0.21170772033E+03  0.28636519243E+03  0.12508843107E+03 0.  0.
         23    2    1    2    0    0  0.10217052628E+03  0.10535147156E+03  0.42634944373E+02  0.17827725342E+03  0.91800281069E+02 0.  0.
          5    1    3    3  502    0 -0.10064633237E+03 -0.14555921110E+02 -0.10618230665E+03  0.14708403620E+03  0.41800000000E+01 0. -1.
         -5    1    3    3    0  502 -0.15241939076E+01 -0.90795550451E+02 -0.10552541368E+03  0.13928115623E+03  0.41800000000E+01 0. -1.
        -11    1    4    4    0    0 -0.68766784212E+01  0.25386332650E+02  0.33712565330E+02  0.42758527251E+02  0.00000000000E+00 0.  1.
         11    1    4    4    0    0  0.10904720470E+03  0.79965138911E+02  0.89223790424E+01  0.13551872617E+03  0.00000000000E+00 0. -1.
</event>
<event>
 8    1  0.6627806E-009  0.1606821E+03  0.7561462E-02  0.1187929E+00
         -2   -1    0    0    0  501 -0.00000000000E+00  0.00000000000E+00  0.68656783849E+02  0.68656783849E+02  0.00000000000E+00 0.  1.
          2   -1    0    0  501    0  0.00000000000E+00 -0.00000000000E+00 -0.51020692997E+03  0.51020692997E+03  0.00000000000E+00 0. -1.
         25    2    1    2    0    0 -0.76847590210E+02  0.13059031495E+03 -0.21095400389E+03  0.28828594412E+03  0.12509121209E+03 0.  0.
         23    2    1    2    0    0  0.76847590210E+02 -0.13059031495E+03 -0.23059614223E+03  0.29057776969E+03  0.91112441247E+02 0.  0.
          5    1    3    3  502    0 -0.82255832534E+01  0.20048986070E+02 -0.13660002748E+03  0.13837146371E+03  0.41800000000E+01 0.  1.
         -5    1    3    3    0  502 -0.68622006956E+02  0.11054132888E+03 -0.74353976413E+02  0.14991448041E+03  0.41800000000E+01 0.  1.
        -11    1    4    4    0    0  0.67962208762E+01 -0.85586493829E+02 -0.74539203542E+02  0.11369841428E+03  0.00000000000E+00 0. -1.
         11    1    4    4    0    0  0.70051369334E+02 -0.45003821120E+02 -0.15605693869E+03  0.17687935542E+03  0.00000000000E+00 0.  1.
</event>
<event>
 8    1  0.6627806E-009  0.1134925E+03  0.7561462E-02  0.1254236E+00
          1   -1    0    0  501    0  0.00000000000E+00  0.00000000000E+00  0.82333231939E+02  0.82333231939E+02  0.00000000000E+00 0. -1.
         -1   -1    0    0    0  501 -0.00000000000E+00 -0.00000000000E+00 -0.25574866723E+03  0.25574866723E+03  0.00000000000E+00 0.  1.
         25    2    1    2    0    0 -0.75795770284E+02  0.43511476430E+02 -0.47096891898E+02  0.15969940254E+03  0.12509010581E+03 0.  0.
         23    2    1    2    0    0  0.75795770284E+02 -0.43511476430E+02 -0.12631854339E+03  0.17838249662E+03  0.90695608073E+02 0.  0.
          5    1    3    3  502    0 -0.95776176526E+02  0.31852266800E+02 -0.73062946738E+02  0.12467280969E+03  0.41800000000E+01 0. -1.
         -5    1    3    3    0  502  0.19980406242E+02  0.11659209630E+02  0.25966054840E+02  0.35026592851E+02  0.41800000000E+01 0. -1.
        -11    1    4    4    0    0  0.26955017878E+02  0.11135575474E+02  0.34287401423E+01  0.29365460815E+02  0.00000000000E+00 0. -1.
         11    1    4    4    0    0  0.48840752406E+02 -0.54647051903E+02 -0.12974728353E+03  0.14901703581E+03  0.00000000000E+00 0.  1.
</event>
<event>
 8    1  0.6627806E-009  0.9254143E+02  0.7561462E-02  0.1296811E+00
         -1   -1    0    0    0  501 -0.00000000000E+00  0.00000000000E+00  0.29816186904E+02  0.29816186904E+02  0.00000000000E+00 0.  1.
          1   -1    0    0  501    0  0.00000000000E+00 -0.00000000000E+00 -0.47807102251E+03  0.47807102251E+03  0.00000000000E+00 0. -1.
         25    2    1    2    0    0  0.18298838438E+02 -0.20175874872E+02 -0.16574743447E+03  0.20945796723E+03  0.12513398654E+03 0.  0.
         23    2    1    2    0    0 -0.18298838438E+02  0.20175874872E+02 -0.28250740113E+03  0.29842924218E+03  0.92237017948E+02 0.  0.
          5    1    3    3  502    0 -0.64566466550E+01 -0.49707592654E+02 -0.13115204303E+02  0.51980900698E+02  0.41800000000E+01 0.  1.
         -5    1    3    3    0  502  0.24755485093E+02  0.29531717782E+02 -0.15263223017E+03  0.15747706653E+03  0.41800000000E+01 0.  1.
        -11    1    4    4    0    0  0.37779378306E+02  0.91264373026E+01 -0.12267176632E+03  0.12868152756E+03  0.00000000000E+00 0. -1.
         11    1    4    4    0    0 -0.56078216744E+02  0.11049437569E+02 -0.15983563481E+03  0.16974771462E+03  0.00000000000E+00 0.  1.
</event>
<event>
 8    1  0.6627806E-009  0.1362244E+03  0.7561462E-02  0.1218502E+00
          2   -1    0    0  501    0  0.00000000000E+00  0.00000000000E+00  0.20322313787E+03  0.20322313787E+03  0.00000000000E+00 0. -1.
         -2   -1    0    0    0  501 -0.00000000000E+00 -0.00000000000E+00 -0.10509138162E+03  0.10509138162E+03  0.00000000000E+00 0.  1.
         25    2    1    2    0    0  0.15944519126E+02  0.94561739834E+02  0.69822394231E+02  0.17239116076E+03  0.12508954890E+03 0.  0.
         23    2    1    2    0    0 -0.15944519126E+02 -0.94561739834E+02  0.28309362015E+02  0.13592335872E+03  0.92073824391E+02 0.  0.
          5    1    3    3  502    0  0.42461564618E+01 -0.27100576585E+02  0.36100224492E+02  0.45532073359E+02  0.41800000000E+01 0.  1.
         -5    1    3    3    0  502  0.11698362664E+02  0.12166231642E+03  0.33722169739E+02  0.12685908741E+03  0.41800000000E+01 0.  1.
        -11    1    4    4    0    0 -0.26674229602E+02  0.56086163014E+00  0.30045730186E+02  0.40181774389E+02  0.00000000000E+00 0. -1.
         11    1    4    4    0    0  0.10729710475E+02 -0.95122601464E+02 -0.17363681715E+01  0.95741584333E+02  0.00000000000E+00 0.  1.
</event>
<event>
 8    1  0.6627806E-009  0.1933011E+03  0.7561462E-02  0.1155517E+00
         -3   -1    0    0    0  501 -0.00000000000E+00  0.00000000000E+00  0.32243424684E+03  0.32243424684E+03  0.00000000000E+00 0.  1.
          3   -1    0    0  501    0  0.00000000000E+00 -0.00000000000E+00 -0.17774816511E+03  0.17774816511E+03  0.00000000000E+00 0. -1.
         25    2    1    2    0    0 -0.13225839380E+03  0.12189865633E+03  0.19504403928E+03  0.29333365809E+03  0.12510352738E+03 0.  0.
         23    2    1    2    0    0  0.13225839380E+03 -0.12189865633E+03 -0.50357957555E+02  0.20684875387E+03  0.88875856919E+02 0.  0.
          5    1    3    3  502    0  0.15567182140E+02  0.25113809883E+02  0.72116978171E+02  0.78047239203E+02  0.41800000000E+01 0.  1.
         -5    1    3    3    0  502 -0.14782557594E+03  0.96784846445E+02  0.12292706111E+03  0.21528641888E+03  0.41800000000E+01 0.  1.
        -11    1    4    4    0    0  0.67795402689E+02 -0.67550537539E+02  0.19119499221E+02  0.97595322624E+02  0.00000000000E+00 0.  1.
         11    1    4    4    0    0  0.64462991107E+02 -0.54348118789E+02 -0.69477456776E+02  0.10925343124E+03  0.00000000000E+00 0. -1.
</event>
<event>
 8    1  0.6627806E-009  0.9955224E+02  0.7561462E-02  0.1281240E+00
          2   -1    0    0  501    0  0.00000000000E+00  0.00000000000E+00  0.68045003092E+03  0.68045003092E+03  0.00000000000E+00 0.  1.
         -2   -1    0    0    0  501 -0.00000000000E+00 -0.00000000000E+00 -0.32246832387E+02  0.32246832387E+02  0.00000000000E+00 0. -1.
         25    2    1    2    0    0  0.34179485235E+02  0.69017125034E+02  0.51128772812E+03  0.53197212097E+03  0.12509035060E+03 0.  0.
         23    2    1    2    0    0 -0.34179485235E+02 -0.69017125034E+02  0.13691547042E+03  0.18072474233E+03  0.89353151555E+02 0.  0.
          5    1    3    3  502    0  0.45911652920E+02  0.85151601011E+02  0.22489318489E+03  0.24485320508E+03  0.41800000000E+01 0. -1.
         -5    1    3    3    0  502 -0.11732167684E+02 -0.16134475977E+02  0.28639454323E+03  0.28711891589E+03  0.41800000000E+01 0. -1.
        -11    1    4    4    0    0 -0.26922212265E+01 -0.36602850439E+02  0.16610891229E+00  0.36702102223E+02  0.00000000000E+00 0. -1.
         11    1    4    4    0    0 -0.31487264009E+02 -0.32414274595E+02  0.13674936151E+03  0.14402264011E+03  0.00000000000E+00 0.  1.
</event>
<event>
 8    1  0.6627806E-009  0.8591183E+02  0.7561462E-02  0.1313065E+00
          2   -1    0    0  501    0  0.00000000000E+00  0.00000000000E+00  0.32590934198E+02  0.32590934198E+02  0.00000000000E+00 0. -1.
         -2   -1    0    0    0  501 -0.00000000000E+00 -0.00000000000E+00 -0.48223131101E+03  0.48223131101E+03  0.00000000000E+00 0.  1.
         25    2    1    2    0    0  0.32261649277E+02  0.20847724014E+02 -0.14286953886E+03  0.19371748232E+03  0.12505725173E+03 0.  0.
         23    2    1    2    0    0 -0.32261649277E+02 -0.20847724014E+02 -0.30677083794E+03  0.32110476289E+03  0.86743761310E+02 0.  0.
          5    1    3    3  502    0 -0.86404015995E+01  0.37141484063E+02  0.56295966766E+01  0.38772556492E+02  0.41800000000E+01 0.  1.
         -5    1    3    3    0  502  0.40902050876E+02 -0.16293760049E+02 -0.14849913554E+03  0.15494492582E+03  0.41800000000E+01 0.  1.
        -11    1    4    4    0    0 -0.28241095044E+02  0.28266845853E+02 -0.19343981954E+03  0.19752351204E+03  0.00000000000E+00 0.  1.
         11    1    4    4    0    0 -0.40205542326E+01 -0.49114569866E+02 -0.11333101840E+03  0.12358125085E+03  0.00000000000E+00 0. -1.
</event>
<event>
 8    1  0.6627806E-009  0.1560444E+03  0.7561462E-02  0.1193236E+00
         -1   -1    0    0    0  501 -0.00000000000E+00  0.00000000000E+00  0.51202262852E+02  0.51202262852E+02  0.00000000000E+00 0.  1.
          1   -1    0    0  501    0  0.00000000000E+00 -0.00000000000E+00 -0.90756572594E+03  0.90756572594E+03  0.00000000000E+00 0. -1.
         25    2    1    2    0    0 -0.11524130603E+03 -0.21657281193E+02 -0.76558757492E+03  0.78455156351E+03  0.12508886633E+03 0.  0.
         23    2    1    2    0    0  0.11524130603E+03  0.21657281193E+02 -0.90775888162E+02  0.17421642528E+03  0.91441262692E+02 0.  0.
          5    1    3    3  502    0 -0.13975908471E+03 -0.33681912824E+02 -0.63942070343E+03  0.65539559152E+03  0.41800000000E+01 0.  1.
         -5    1    3    3    0  502  0.24517778680E+02  0.12024631630E+02 -0.12616687149E+03  0.12915597199E+03  0.41800000000E+01 0.  1.
        -11    1    4    4    0    0 -0.76908771772E+01 -0.11022055410E+02  0.56682448140E+01  0.14586442215E+02  0.00000000000E+00 0.  1.
         11    1    4    4    0    0  0.12293218321E+03  0.32679336603E+02 -0.96444132976E+02  0.15962998307E+03  0.00000000000E+00 0. -1.
</event>
<event>
 8    1  0.6627806E-009  0.7668221E+02  0.7561462E-02  0.1338740E+00
         -2   -1    0    0    0  501 -0.00000000000E+00  0.00000000000E+00  0.27470943529E+02  0.27470943529E+02  0.00000000000E+00 0.  1.
          2   -1    0    0  501    0  0.00000000000E+00 -0.00000000000E+00 -0.65459056805E+03  0.65459056805E+03  0.00000000000E+00 0. -1.
         25    2    1    2    0    0 -0.34402804122E+01 -0.44040880169E+02 -0.50935561744E+03  0.52634765767E+03  0.12508907649E+03 0.  0.
         23    2    1    2    0    0  0.34402804122E+01  0.44040880169E+02 -0.11776400708E+03  0.15571385391E+03  0.91798737908E+02 0.  0.
          5    1    3    3  502    0  0.44234783063E+02 -0.40705959050E+02 -0.42544306507E+03  0.42968938217E+03  0.41800000000E+01 0. -1.
         -5    1    3    3    0  502 -0.47675063475E+02 -0.33349211191E+01 -0.83912552376E+02  0.96658275500E+02  0.41800000000E+01 0. -1.
        -11    1    4    4    0    0  0.60655303910E+01  0.18800350564E+02  0.12251285909E+02  0.23245168243E+02  0.00000000000E+00 0.  1.
         11    1    4    4    0    0 -0.26252499789E+01  0.25240529606E+02 -0.13001529299E+03  0.13246868567E+03  0.00000000000E+00 0. -1.
</event>
<event>
 8    1  0.6627806E-009  0.1101878E+03  0.7561462E-02  0.1260223E+00
         -2   -1    0    0    0  501 -0.00000000000E+00  0.00000000000E+00  0.75665002503E+01  0.75665002503E+01  0.00000000000E+00 0.  1.
          2   -1    0    0  501    0  0.00000000000E+00 -0.00000000000E+00 -0.23380692655E+04  0.23380692655E+04  0.00000000000E+00 0. -1.
         25    2    1    2    0    0 -0.20836837467E+01 -0.35349333249E+02 -0.18921720322E+04  0.18966331067E+04  0.12509286429E+03 0.  0.
         23    2    1    2    0    0  0.20836837467E+01  0.35349333249E+02 -0.43833073307E+03  0.44900265913E+03  0.90640163539E+02 0.  0.
          5    1    3    3  502    0  0.47487516529E+02  0.22035214564E+02 -0.92099795752E+03  0.92249407860E+03  0.41800000000E+01 0.  1.
         -5    1    3    3    0  502 -0.49571200276E+02 -0.57384547814E+02 -0.97117407468E+03  0.97413902805E+03  0.41800000000E+01 0.  1.
        -11    1    4    4    0    0 -0.36742272495E+02 -0.35982421661E+01 -0.10825476238E+03  0.11437672627E+03  0.00000000000E+00 0.  1.
         11    1    4    4    0    0  0.38825956242E+02  0.38947575415E+02 -0.33007597070E+03  0.33462593286E+03  0.00000000000E+00 0. -1.
</event>
<event>
 8    1  0.6627806E-009  0.8080493E+02  0.7561462E-02  0.1326783E+00
         -1   -1    0    0    0  501 -0.00000000000E+00  0.00000000000E+00  0.19103095064E+03  0.19103095064E+03  0.00000000000E+00 0.  1.
          1   -1    0    0  501    0  0.00000000000E+00 -0.00000000000E+00 -0.84849202631E+02  0.84849202631E+02  0.00000000000E+00 0. -1.
         25    2    1    2    0    0 -0.90327773981E+01 -0.15615052803E+02 -0.12674896107E+02  0.12701709357E+03  0.12508904079E+03 0.  0.
         23    2    1    2    0    0  0.90327773981E+01  0.15615052803E+02  0.11885664411E+03  0.14886305970E+03  0.87794577000E+02 0.  0.
          5    1    3    3  502    0 -0.11499632091E+02  0.49127037399E+02  0.19876738253E+02  0.54389929816E+02  0.41800000000E+01 0. -1.
         -5    1    3    3    0  502  0.24668546934E+01 -0.64742090202E+02 -0.32551634360E+02  0.72627163756E+02  0.41800000000E+01 0. -1.
        -11    1    4    4    0    0 -0.86937199330E+01  0.24667079956E+02  0.12525459495E+03  0.12795608292E+03  0.00000000000E+00 0.  1.
         11    1    4    4    0    0  0.17726497331E+02 -0.90520271533E+01 -0.63979508337E+01  0.20906976780E+02  0.00000000000E+00 0. -1.
</event>
<event>
 8    1  0.6627806E-009  0.9365735E+02  0.7561462E-02  0.1294229E+00
          2   -1    0    0  501    0  0.00000000000E+00  0.00000000000E+00  0.18866304867E+03  0.18866304867E+03  0.00000000000E+00 0.  1.
         -2   -1    0    0    0  501 -0.00000000000E+00 -0.00000000000E+00 -0.62761210298E+02  0.62761210298E+02  0.00000000000E+00 0. -1.
         25    2    1    2    0    0  0.50489333653E+01  0.13758970021E+02  0.79697807423E+02  0.14904173420E+03  0.12508755750E+03 0.  0.
         23    2    1    2    0    0 -0.50489333653E+01 -0.13758970021E+02  0.46204030947E+02  0.10238252477E+03  0.90180751372E+02 0.  0.
          5    1    3    3  502    0  0.42172751638E+02 -0.35701341287E+02  0.64858254675E+02  0.85306461361E+02  0.41800000000E+01 0.  1.
         -5    1    3    3    0  502 -0.37123818272E+02  0.49460311308E+02  0.14839552748E+02  0.63735272837E+02  0.41800000000E+01 0.  1.
        -11    1    4    4    0    0 -0.32942852729E+02 -0.23396897050E+02  0.57927267911E+02  0.70627294336E+02  0.00000000000E+00 0.  1.
         11    1    4    4    0    0  0.27893919364E+02  0.96379270292E+01 -0.11723236964E+02  0.31755230432E+02  0.00000000000E+00 0. -1.
</event>
<event>
 8    1  0.6627806E-009  0.1007059E+03  0.7561462E-02  0.1278818E+00
          2   -1    0    0  501    0  0.00000000000E+00  0.00000000000E+00  0.29454677472E+03  0.29454677472E+03  0.00000000000E+00 0. -1.
         -2   -1    0    0    0  501 -0.00000000000E+00 -0.00000000000E+00 -0.26265657413E+03  0.26265657413E+03  0.00000000000E+00 0.  1.
         25    2    1    2    0    0 -0.77345699235E+01  0.31939614338E+02  0.26594628038E+03  0.29572689049E+03  0.12508799771E+03 0.  0.
         23    2    1    2    0    0  0.77345699235E+01 -0.31939614338E+02 -0.23405607979E+03  0.26147645837E+03  0.11183795087E+03 0.  0.
          5    1    3    3  502    0 -0.70225401598E+01  0.62438351151E+02  0.25560065136E+03  0.26324328888E+03  0.41800000000E+01 0. -1.
         -5    1    3    3    0  502 -0.71202976367E+00 -0.30498736813E+02  0.10345629025E+02  0.32483601609E+02  0.41800000000E+01 0. -1.
        -11    1    4    4    0    0 -0.31297519242E+02  0.23998275170E+02 -0.41753664652E+02  0.57435358742E+02  0.00000000000E+00 0. -1.
         11    1    4    4    0    0  0.39032089165E+02 -0.55937889508E+02 -0.19230241514E+03  0.20404109963E+03  0.00000000000E+00 0.  1.
</event>
<event>
 8    1  0.6627806E-009  0.2141621E+03  0.7561462E-02  0.1138312E+00
          2   -1    0    0  501    0  0.00000000000E+00  0.00000000000E+00  0.10627303254E+04  0.10627303254E+04  0.00000000000E+00 0. -1.
         -2   -1    0    0    0  501 -0.00000000000E+00 -0.00000000000E+00 -0.46211956830E+02  0.46211956830E+02  0.00000000000E+00 0.  1.
         25    2    1    2    0    0  0.17809956629E+03 -0.53271694482E+02  0.66108868541E+03  0.69802781983E+03  0.12508900166E+03 0.  0.
         23    2    1    2    0    0 -0.17809956629E+03  0.53271694482E+02  0.35542968321E+03  0.41091446245E+03  0.89236241500E+02 0.  0.
          5    1    3    3  502    0  0.10036429269E+03  0.34787683869E+02  0.29843180471E+03  0.31679991897E+03  0.41800000000E+01 0.  1.
         -5    1    3    3    0  502  0.77735273604E+02 -0.88059378351E+02  0.36265688069E+03  0.38122790086E+03  0.41800000000E+01 0.  1.
        -11    1    4    4    0    0 -0.25975404768E+02  0.45216529113E+02  0.68934704634E+02  0.86436390837E+02  0.00000000000E+00 0. -1.
         11    1    4    4    0    0 -0.15212416152E+03  0.80551653694E+01  0.28649497857E+03  0.32447807161E+03  0.00000000000E+00 0.  1.
</event>
<event>
 8    1  0.6627806E-009  0.1246941E+03  0.7561462E-02  0.1235548E+00
          2   -1    0    0  501    0  0.00000000000E+00  0.00000000000E+00  0.85976705937E+02  0.85976705937E+02  0.00000000000E+00 0. -1.
         -2   -1    0    0    0  501 -0.00000000000E+00 -0.00000000000E+00 -0.20913503588E+03  0.20913503588E+03  0.00000000000E+00 0.  1.
         25    2    1    2    0    0  0.57621114559E+02 -0.51961373483E+02 -0.73366703442E+02  0.16447093034E+03  0.12509131295E+03 0.  0.
         23    2    1    2    0    0 -0.57621114559E+02  0.51961373483E+02 -0.49791626503E+02  0.13064081148E+03  0.92561538330E+02 0.  0.
          5    1    3    3  502    0  0.15740637315E+02  0.39287769705E+02 -0.40542664406E+02  0.58757778622E+02  0.41800000000E+01 0. -1.
         -5    1    3    3    0  502  0.41880477243E+02 -0.91249143188E+02 -0.32824039036E+02  0.10571315171E+03  0.41800000000E+01 0. -1.
        -11    1    4    4    0    0 -0.46645526228E+02  0.70672306066E+02 -0.62730490947E+02  0.10538260984E+03  0.00000000000E+00 0.  1.
         11    1    4    4    0    0 -0.10975588330E+02 -0.18710932582E+02  0.12938864444E+02  0.25258201646E+02  0.00000000000E+00 0. -1.
</event>
<event>
 7    1  0.6627806E-009  0.3537390E+03  0.7561462E-02  0.1061091E+00
         -1   -1    0    0    0  501 -0.00000000000E+00  0.00000000000E+00  0.17441721069E+03  0.17441721069E+03  0.00000000000E+00 0.  1.
          1   -1    0    0  501    0  0.00000000000E+00 -0.00000000000E+00 -0.12758656126E+04  0.12758656126E+04  0.00000000000E+00 0. -1.
         23    2    1    2    0    0  0.14646905494E+03  0.31743426414E+03 -0.89465867418E+02  0.37232078336E+03  0.91656577440E+02 0.  0.
          5    1    1    2  502    0 -0.11565702763E+03 -0.30084537312E+03 -0.79050286675E+03  0.85369593024E+03  0.41800000000E+01 0. -1.
         -5    1    1    2    0  502 -0.30812027312E+02 -0.16588891011E+02 -0.22147966772E+03  0.22426610967E+03  0.41800000000E+01 0. -1.
        -11    1    3    3    0    0  0.90661081789E+02  0.21286576828E+03 -0.10254086793E+03  0.25307290778E+03  0.00000000000E+00 0.  1.
         11    1    3    3    0    0  0.55807973152E+02  0.10456849586E+03  0.13075000508E+02  0.11924787559E+03  0.00000000000E+00 0. -1.
</event>
<event>
 8    1  0.6627806E-009  0.7863126E+02  0.7561462E-02  0.1332981E+00
         -1   -1    0    0    0  501 -0.00000000000E+00  0.00000000000E+00  0.22746783019E+02  0.22746783019E+02  0.00000000000E+00 0.  1.
          1   -1    0    0  501    0  0.00000000000E+00 -0.00000000000E+00 -0.76218448098E+03  0.76218448098E+03  0.00000000000E+00 0. -1.
         25    2    1    2    0    0  0.60216680106E+02 -0.12592903600E+02 -0.53339010492E+03  0.55130454948E+03  0.12508825872E+03 0.  0.
         23    2    1    2    0    0 -0.60216680106E+02  0.12592903600E+02 -0.20604759304E+03  0.23362671452E+03  0.91330177669E+02 0.  0.
          5    1    3    3  502    0  0.52877378933E+01  0.12035128054E+02  0.70442920955E+00  0.13812063561E+02  0.41800000000E+01 0.  1.
         -5    1    3    3    0  502  0.54928942213E+02 -0.24628031654E+02 -0.53409453413E+03  0.53749248592E+03  0.41800000000E+01 0.  1.
        -11    1    4    4    0    0  0.18860793789E+01  0.20442379598E+02 -0.25114065074E+01  0.20682247017E+02  0.00000000000E+00 0.  1.
         11    1    4    4    0    0 -0.62102759485E+02 -0.78494759979E+01 -0.20353618654E+03  0.21294446750E+03  0.00000000000E+00 0. -1.
</event>
<event>
 8    1  0.6627806E-009  0.8137708E+02  0.7561462E-02  0.1325188E+00
          2   -1    0    0  501    0  0.00000000000E+00  0.00000000000E+00  0.16755121200E+03  0.16755121200E+03  0.00000000000E+00 0. -1.
         -2   -1    0    0    0  501 -0.00000000000E+00 -0.00000000000E+00 -0.78000578921E+02  0.78000578921E+02  0.00000000000E+00 0.  1.
         25    2    1    2    0    0  0.76629357735E+01  0.33206436054E+02  0.38224343561E+02  0.13516686294E+03  0.12509033702E+03 0.  0.
         23    2    1    2    0    0 -0.76629357735E+01 -0.33206436054E+02  0.51326289515E+02  0.11038492798E+03  0.91591791936E+02 0.  0.
          5    1    3    3  502    0  0.34562469308E+02 -0.15748873216E+02  0.63186410043E+02  0.73841628546E+02  0.41800000000E+01 0.  1.
         -5    1    3    3    0  502 -0.26899533535E+02  0.48955309269E+02 -0.24962066482E+02  0.61325234391E+02  0.41800000000E+01 0.  1.
        -11    1    4    4    0    0  0.10216965738E+02  0.14410665852E+02 -0.17458899325E+02  0.24836804240E+02  0.00000000000E+00 0.  1.
         11    1    4    4    0    0 -0.17879901511E+02 -0.47617101906E+02  0.68785188840E+02  0.85548123742E+02  0.00000000000E+00 0. -1.
</event>
<event>
 8    1  0.6627806E-009  0.9362860E+02  0.7561462E-02  0.1294295E+00
          1   -1    0    0  501    0  0.00000000000E+00  0.00000000000E+00  0.40631416064E+02  0.40631416064E+02  0.00000000000E+00 0. -1.
         -1   -1    0    0    0  501 -0.00000000000E+00 -0.00000000000E+00 -0.29989797044E+03  0.29989797044E+03  0.00000000000E+00 0.  1.
         25    2    1    2    0    0 -0.34349315042E+01  0.27203407534E+01 -0.11989947923E+03  0.17332702193E+03  0.12508865817E+03 0.  0.
         23    2    1    2    0    0  0.34349315042E+01 -0.27203407534E+01 -0.13936707514E+03  0.16720236457E+03  0.92272694100E+02 0.  0.
          5    1    3    3  502    0  0.46553587524E+02  0.26808686244E+02 -0.17272099655E+02  0.56583919942E+02  0.41800000000E+01 0.  1.
         -5    1    3    3    0  502 -0.49988519028E+02 -0.24088345491E+02 -0.10262737958E+03  0.11674310199E+03  0.41800000000E+01 0.  1.
        -11    1    4    4    0    0 -0.36356657207E+02  0.63694749538E+01 -0.11234117361E+03  0.11824938065E+03  0.00000000000E+00 0.  1.
         11    1    4    4    0    0  0.39791588711E+02 -0.90898157071E+01 -0.27025901528E+02  0.48952983925E+02  0.00000000000E+00 0. -1.
</event>
<event>
 8    1  0.6627806E-009  0.9348423E+02  0.7561462E-02  0.1294627E+00
          2   -1    0    0  501    0  0.00000000000E+00  0.00000000000E+00  0.68435495231E+02  0.68435495231E+02  0.00000000000E+00 0. -1.
         -2   -1    0    0    0  501 -0.00000000000E+00 -0.00000000000E+00 -0.39618818952E+03  0.39618818952E+03  0.00000000000E+00 0.  1.
         25    2    1    2    0    0  0.18818727219E+02  0.18527597245E+02 -0.47135649074E+01  0.12793097592E+03  0.12508677209E+03 0.  0.
         23    2    1    2    0    0 -0.18818727219E+02 -0.18527597245E+02 -0.32303912938E+03  0.33669270883E+03  0.91160763031E+02 0.  0.
          5    1    3    3  502    0 -0.39343139343E+02  0.13053134913E+02 -0.41470541321E+02  0.58783885053E+02  0.41800000000E+01 0. -1.
         -5    1    3    3    0  502  0.58161866562E+02  0.54744623318E+01  0.36756976413E+02  0.69147090864E+02  0.41800000000E+01 0. -1.
        -11    1    4    4    0    0  0.37876276577E+01 -0.48805212858E+02 -0.11102523084E+03  0.12133794464E+03  0.00000000000E+00 0. -1.
         11    1    4    4    0    0 -0.22606354877E+02  0.30277615613E+02 -0.21201389854E+03  0.21535476419E+03  0.00000000000E+00 0.  1.
</event>
<event>
 8    1  0.6627806E-009  0.1028118E+03  0.7561462E-02  0.1274492E+00
          2   -1    0    0  501    0  0.00000000000E+00  0.00000000000E+00  0.84260400205E+02  0.84260400205E+02  0.00000000000E+00 0.  1.
         -2   -1    0    0    0  501 -0.00000000000E+00 -0.00000000000E+00 -0.17439111720E+03  0.17439111720E+03  0.00000000000E+00 0. -1.
         25    2    1    2    0    0  0.38843045737E+02 -0.24119549754E+02 -0.62590112610E+02  0.14715655953E+03  0.12508795280E+03 0.  0.
         23    2    1    2    0    0 -0.38843045737E+02  0.24119549754E+02 -0.27540604383E+02  0.11149495787E+03  0.97888231458E+02 0.  0.
          5    1    3    3  502    0  0.20916045814E+02 -0.65081462008E+02 -0.73992296346E+02  0.10082365788E+03  0.41800000000E+01 0.  1.
         -5    1    3    3    0  502  0.17926999924E+02  0.40961912254E+02  0.11402183737E+02  0.46332901655E+02  0.41800000000E+01 0.  1.
        -11    1    4    4    0    0 -0.49103087746E+02  0.46488250940E+02  0.81864898327E+01  0.68112328674E+02  0.00000000000E+00 0.  1.
         11    1    4    4    0    0  0.10260042008E+02 -0.22368701186E+02 -0.35727094216E+02  0.43382629195E+02  0.00000000000E+00 0. -1.
</event>
<event>
 8    1  0.6627806E-009  0.2702100E+03  0.7561462E-02  0.1101159E+00
          2   -1    0    0  501    0  0.00000000000E+00  0.00000000000E+00  0.24357488585E+04  0.24357488585E+04  0.00000000000E+00 0. -1.
         -2   -1    0    0    0  501 -0.00000000000E+00 -0.00000000000E+00 -0.35739693953E+02  0.35739693953E+02  0.00000000000E+00 0.  1.
         25    2    1    2    0    0 -0.24610333640E+03  0.93113198462E+02  0.15623226320E+04  0.15892564953E+04  0.12508909430E+03 0.  0.
         23    2    1    2    0    0  0.24610333640E+03 -0.93113198462E+02  0.83768653254E+03  0.88223205713E+03  0.85893864283E+02 0.  0.
          5    1    3    3  502    0 -0.21463308609E+02  0.12565857011E+02  0.33592784357E+02  0.42006213109E+02  0.41800000000E+01 0.  1.
         -5    1    3    3    0  502 -0.22464002779E+03  0.80547341452E+02  0.15287298476E+04  0.15472502822E+04  0.41800000000E+01 0.  1.
        -11    1    4    4    0    0  0.13829614481E+03 -0.68808940904E+01  0.39984174229E+03  0.42313897156E+03  0.00000000000E+00 0.  1.
         11    1    4    4    0    0  0.10780719159E+03 -0.86232304372E+02  0.43784479025E+03  0.45909308558E+03  0.00000000000E+00 0. -1.
</event>
<event>
 8    1  0.6627806E-009  0.1012414E+03  0.7561462E-02  0.1277707E+00
          1   -1    0    0  501    0  0.00000000000E+00  0.00000000000E+00  0.65673601881E+02  0.65673601881E+02  0.00000000000E+00 0. -1.
         -1   -1    0    0    0  501 -0.00000000000E+00 -0.00000000000E+00 -0.21095336994E+03  0.21095336994E+03  0.00000000000E+00 0.  1.
         25    2    1    2    0    0  0.23090354430E+02 -0.26757501352E+01 -0.37220081863E+02  0.13256631671E+03  0.12509264457E+03 0.  0.
         23    2    1    2    0    0 -0.23090354430E+02  0.26757501352E+01 -0.10805968619E+03  0.14406065511E+03  0.92391841975E+02 0.  0.
          5    1    3    3  502    0 -0.20687740867E+02 -0.42862251210E+02 -0.52580738776E+02  0.71044786517E+02  0.41800000000E+01 0.  1.
         -5    1    3    3    0  502  0.43778095296E+02  0.40186501075E+02  0.15360656913E+02  0.61521530193E+02  0.41800000000E+01 0.  1.
        -11    1    4    4    0    0 -0.26897963674E+02 -0.42228512116E+02 -0.60735923125E+02  0.78712134027E+02  0.00000000000E+00 0. -1.
         11    1    4    4    0    0  0.38076092442E+01  0.44904262251E+02 -0.47323763067E+02  0.65348521080E+02  0.00000000000E+00 0.  1.
</event>
<event>
 8    1  0.6627806E-009  0.1040473E+03  0.7561462E-02  0.1272008E+00
          1   -1    0    0  501    0  0.00000000000E+00  0.00000000000E+00  0.16788867350E+03  0.16788867350E+03  0.00000000000E+00 0. -1.
         -1   -1    0    0    0  501 -0.00000000000E+00 -0.00000000000E+00 -0.10416187920E+03  0.10416187920E+03  0.00000000000E+00 0.  1.
         25    2    1    2    0    0  0.71935433070E+02  0.83302658764E+00  0.16178933506E+02  0.14520637102E+03  0.12509089428E+03 0.  0.
         23    2    1    2    0    0 -0.71935433070E+02 -0.83302658764E+00  0.47547860794E+02  0.12684418168E+03  0.93022829967E+02 0.  0.
          5    1    3    3  502    0  0.68374328791E+02 -0.22538835281E+02 -0.41167015893E+02  0.83037603114E+02  0.41800000000E+01 0. -1.
         -5    1    3    3    0  502  0.35611042784E+01  0.23371861869E+02  0.57345949398E+02  0.62168767909E+02  0.41800000000E+01 0. -1.
        -11    1    4    4    0    0 -0.15190102450E+02  0.39521628103E+02  0.37369510546E+02  0.56472813095E+02  0.00000000000E+00 0. -1.
         11    1    4    4    0    0 -0.56745330620E+02 -0.40354654691E+02  0.10178350247E+02  0.70371368582E+02  0.00000000000E+00 0.  1.
</event>
<event>
 8    1  0.6627806E-009  0.7088774E+02  0.7561462E-02  0.1357100E+00
          1   -1    0    0  501    0  0.00000000000E+00  0.00000000000E+00  0.19913647280E+03  0.19913647280E+03  0.00000000000E+00 0. -1.
         -1   -1    0    0    0  501 -0.00000000000E+00 -0.00000000000E+00 -0.63408893484E+02  0.63408893484E+02  0.00000000000E+00 0.  1.
         25    2    1    2    0    0 -0.58026486840E+01  0.20526368348E+02  0.10154280445E+03  0.16252348627E+03  0.12509172604E+03 0.  0.
         23    2    1    2    0    0  0.58026486840E+01 -0.20526368348E+02  0.34184774862E+02  0.10002188001E+03  0.91546573497E+02 0.  0.
          5    1    3    3  502    0  0.17396725978E+02  0.17453867631E+02 -0.24058401282E+02  0.34692400354E+02  0.41800000000E+01 0.  1.
         -5    1    3    3    0  502 -0.23199374662E+02  0.30725007168E+01  0.12560120573E+03  0.12783108592E+03  0.41800000000E+01 0.  1.
        -11    1    4    4    0    0 -0.40853297507E+02  0.25980229590E+01  0.78976903558E+01  0.41690708239E+02  0.00000000000E+00 0.  1.
         11    1    4    4    0    0  0.46655946191E+02 -0.23124391307E+02  0.26287084506E+02  0.58331171771E+02  0.00000000000E+00 0. -1.
</event>
<event>
 8    1  0.6627806E-009  0.1349283E+03  0.7561462E-02  0.1220321E+00
         -2   -1    0    0    0  501 -0.00000000000E+00  0.00000000000E+00  0.44300199545E+02  0.44300199545E+02  0.00000000000E+00 0.  1.
          2   -1    0    0  501    0  0.00000000000E+00 -0.00000000000E+00 -0.49929845606E+03  0.49929845606E+03  0.00000000000E+00 0. -1.
         25    2    1    2    0    0  0.29823445066E+02 -0.92234429165E+02 -0.30573972298E+03  0.34426645825E+03  0.12508392489E+03 0.  0.
         23    2    1    2    0    0 -0.29823445066E+02  0.92234429165E+02 -0.14925853353E+03  0.19933219736E+03  0.89769634469E+02 0.  0.
          5    1    3    3  502    0 -0.48470722806E+02 -0.23749810242E+02 -0.10310105116E+03  0.11645069173E+03  0.41800000000E+01 0. -1.
         -5    1    3    3    0  502  0.78294167872E+02 -0.68484618924E+02 -0.20263867183E+03  0.22781576651E+03  0.41800000000E+01 0. -1.
        -11    1    4    4    0    0 -0.46299524715E+02  0.70428169432E+02 -0.53688863124E+02  0.99931311719E+02  0.00000000000E+00 0.  1.
         11    1    4    4    0    0  0.16476079649E+02  0.21806259733E+02 -0.95569670406E+02  0.99400885638E+02  0.00000000000E+00 0. -1.
</event>
<event>
 8    1  0.6627806E-009  0.1418370E+03  0.7561462E-02  0.1210878E+00
         -2   -1    0    0    0  501 -0.00000000000E+00  0.00000000000E+00  0.20481312298E+03  0.20481312298E+03  0.00000000000E+00 0.  1.
          2   -1    0    0  501    0  0.00000000000E+00 -0.00000000000E+00 -0.15773566275E+03  0.15773566275E+03  0.00000000000E+00 0. -1.
         25    2    1    2    0    0  0.80776882650E+01 -0.12500799551E+03  0.95051666386E+02  0.20093364204E+03  0.12508901323E+03 0.  0.
         23    2    1    2    0    0 -0.80776882650E+01  0.12500799551E+03 -0.47974206161E+02  0.16161514369E+03  0.90142566119E+02 0.  0.
          5    1    3    3  502    0  0.51941590280E+02 -0.78626875855E+02  0.99120436658E+02  0.13682999587E+03  0.41800000000E+01 0.  1.
         -5    1    3    3    0  502 -0.43863902015E+02 -0.46381119651E+02 -0.40687702724E+01  0.64103646164E+02  0.41800000000E+01 0.  1.
        -11    1    4    4    0    0 -0.77183443998E+01  0.81834036537E+02  0.16677656533E+02  0.83872084770E+02  0.00000000000E+00 0.  1.
         11    1    4    4    0    0 -0.35934386512E+00  0.43173958968E+02 -0.64651862695E+02  0.77743058924E+02  0.00000000000E+00 0. -1.
</event>
<event>
 8    1  0.6627806E-009  0.1131177E+03  0.7561462E-02  0.1254903E+00
          1   -1    0    0  501    0  0.00000000000E+00  0.00000000000E+00  0.40076718117E+03  0.40076718117E+03  0.00000000000E+00 0. -1.
         -1   -1    0    0    0  501 -0.00000000000E+00 -0.00000000000E+00 -0.45842457061E+02  0.45842457061E+02  0.00000000000E+00 0.  1.
         25    2    1    2    0    0 -0.79051635361E+02 -0.23575945430E+01  0.16995460891E+03  0.22535796316E+03  0.12508766192E+03 0.  0.
         23    2    1    2    0    0  0.79051635361E+02  0.23575945430E+01  0.18497011520E+03  0.22125167507E+03  0.92106682169E+02 0.  0.
          5    1    3    3  502    0  0.80465724024E+01 -0.21408803418E+02  0.12168539403E+03  0.12388660828E+03  0.41800000000E+01 0.  1.
         -5    1    3    3    0  502 -0.87098207764E+02  0.19051208875E+02  0.48269214879E+02  0.10147135488E+03  0.41800000000E+01 0.  1.
        -11    1    4    4    0    0  0.10978932454E+02  0.36114999759E+02  0.10192863951E+03  0.10869350356E+03  0.00000000000E+00 0.  1.
         11    1    4    4    0    0  0.68072702908E+02 -0.33757405216E+02  0.83041475692E+02  0.11255817151E+03  0.00000000000E+00 0. -1.
</event>
<event>
 8    1  0.6627806E-009  0.1013295E+03  0.7561462E-02  0.1277525E+00
         -4   -1    0    0    0  501 -0.00000000000E+00  0.00000000000E+00  0.32183558084E+03  0.32183558084E+03  0.00000000000E+00 0. -1.
          4   -1    0    0  501    0  0.00000000000E+00 -0.00000000000E+00 -0.41890607790E+02  0.41890607790E+02  0.00000000000E+00 0.  1.
         25    2    1    2    0    0 -0.16351871985E+02 -0.22481229311E+02  0.11246227691E+03  0.17049686849E+03  0.12509448048E+03 0.  0.
         23    2    1    2    0    0  0.16351871985E+02  0.22481229311E+02  0.16748269615E+03  0.19322932015E+03  0.92273112374E+02 0.  0.
          5    1    3    3  502    0  0.41858342611E+02  0.49262970094E+01  0.94513799826E+02  0.10356987982E+03  0.41800000000E+01 0.  1.
         -5    1    3    3    0  502 -0.58210214596E+02 -0.27407526321E+02  0.17948477079E+02  0.66926988665E+02  0.41800000000E+01 0.  1.
        -11    1    4    4    0    0  0.39023754408E+02  0.47890152520E+02  0.97914710634E+02  0.11577396372E+03  0.00000000000E+00 0.  1.
         11    1    4    4    0    0 -0.22671882423E+02 -0.25408923209E+02  0.69567985513E+02  0.77455356429E+02  0.00000000000E+00 0. -1.
</event>
<event>
 8    1  0.6627806E-009  0.1950086E+03  0.7561462E-02  0.1154020E+00
          1   -1    0    0  501    0  0.00000000000E+00  0.00000000000E+00  0.21423328293E+04  0.21423328293E+04  0.00000000000E+00 0. -1.
         -1   -1    0    0    0  501 -0.00000000000E+00 -0.00000000000E+00 -0.20115177301E+02  0.20115177301E+02  0.00000000000E+00 0.  1.
         25    2    1    2    0    0  0.55595884569E+02 -0.16351295692E+03  0.11876153420E+04  0.12066087676E+04  0.12508848092E+03 0.  0.
         23    2    1    2    0    0 -0.55595884569E+02  0.16351295692E+03  0.93460231000E+03  0.95583923899E+03  0.10158633510E+03 0.  0.
          5    1    3    3  502    0  0.83516569624E+02 -0.78653424023E+02  0.48912008851E+03  0.50241149658E+03  0.41800000000E+01 0.  1.
         -5    1    3    3    0  502 -0.27920685055E+02 -0.84859532892E+02  0.69849525350E+03  0.70419727104E+03  0.41800000000E+01 0.  1.
        -11    1    4    4    0    0 -0.38420276715E+02  0.16416158402E+03  0.91195194018E+03  0.92740578202E+03  0.00000000000E+00 0. -1.
         11    1    4    4    0    0 -0.17175607853E+02 -0.64862710946E+00  0.22650369827E+02  0.28433456975E+02  0.00000000000E+00 0.  1.
</event>
<event>
 8    1  0.6627806E-009  0.2815383E+03  0.7561462E-02  0.1094852E+00
         -2   -1    0    0    0  501 -0.00000000000E+00  0.00000000000E+00  0.40683790182E+03  0.40683790182E+03  0.00000000000E+00 0.  1.
          2   -1    0    0  501    0  0.00000000000E+00 -0.00000000000E+00 -0.30193321480E+03  0.30193321480E+03  0.00000000000E+00 0. -1.
         25    2    1    2    0    0 -0.76721290933E+02  0.25575941000E+03  0.25323206613E+03  0.38868215622E+03  0.12509319311E+03 0.  0.
         23    2    1    2    0    0  0.76721290933E+02 -0.25575941000E+03 -0.14832737911E+03  0.32008896039E+03  0.95691686617E+02 0.  0.
          5    1    3    3  502    0  0.30889302459E+02  0.92688703497E+02  0.10434305476E+03  0.14300451125E+03  0.41800000000E+01 0.  1.
         -5    1    3    3    0  502 -0.10761059339E+03  0.16307070650E+03  0.14888901138E+03  0.24567764497E+03  0.41800000000E+01 0.  1.
        -11    1    4    4    0    0  0.41047114207E+02 -0.73848398617E+02 -0.30081164002E+01  0.84542890460E+02  0.00000000000E+00 0.  1.
         11    1    4    4    0    0  0.35674176725E+02 -0.18191101138E+03 -0.14531926271E+03  0.23554606993E+03  0.00000000000E+00 0. -1.
</event>
<event>
 8    1  0.6627806E-009  0.1622911E+03  0.7561462E-02  0.1186134E+00
          2   -1    0    0  501    0  0.00000000000E+00  0.00000000000E+00  0.16255935797E+03  0.16255935797E+03  0.00000000000E+00 0.  1.
         -2   -1    0    0    0  501 -0.00000000000E+00 -0.00000000000E+00 -0.22669127716E+03  0.22669127716E+03  0.00000000000E+00 0. -1.
         25    2    1    2    0    0  0.99535585215E+02  0.10659852284E+03  0.26580355136E+02  0.19396158367E+03  0.12507598836E+03 0.  0.
         23    2    1    2    0    0 -0.99535585215E+02 -0.10659852284E+03 -0.90712274331E+02  0.19528905146E+03  0.92943634039E+02 0.  0.
          5    1    3    3  502    0  0.19353727422E+02  0.70724024642E+02 -0.40027636828E+02  0.83642922813E+02  0.41800000000E+01 0.  1.
         -5    1    3    3    0  502  0.80181857793E+02  0.35874498202E+02  0.66607991964E+02  0.11031866086E+03  0.41800000000E+01 0.  1.
        -11    1    4    4    0    0 -0.77585903923E+02 -0.29449013073E+02 -0.13733668360E+02  0.84115578255E+02  0.00000000000E+00 0.  1.
         11    1    4    4    0    0 -0.21949681292E+02 -0.77149509771E+02 -0.76978605972E+02  0.11117347320E+03  0.00000000000E+00 0. -1.
</event>
<event>
 8    1  0.6627806E-009  0.9971399E+02  0.7561462E-02  0.1280899E+00
          3   -1    0    0  501    0  0.00000000000E+00  0.00000000000E+00  0.81235646564E+02  0.81235646564E+02  0.00000000000E+00 0. -1.
         -3   -1    0    0    0  501 -0.00000000000E+00 -0.00000000000E+00 -0.16783454418E+03  0.16783454418E+03  0.00000000000E+00 0.  1.
         25    2    1    2    0    0 -0.24851431863E+02 -0.31446417475E+02 -0.24678444925E+02  0.13365232494E+03  0.12508975770E+03 0.  0.
         23    2    1    2    0    0  0.24851431863E+02  0.31446417475E+02 -0.61920452694E+02  0.11541786581E+03  0.88773140350E+02 0.  0.
          5    1    3    3  502    0  0.42885512415E+02 -0.43174728812E+02 -0.16061589759E+01  0.61018657227E+02  0.41800000000E+01 0. -1.
         -5    1    3    3    0  502 -0.67736944278E+02  0.11728311337E+02 -0.23072285949E+02  0.72633667716E+02  0.41800000000E+01 0. -1.
        -11    1    4    4    0    0  0.16784145146E+02 -0.14943497479E+02 -0.64458302175E+02  0.68263374986E+02  0.00000000000E+00 0.  1.
         11    1    4    4    0    0  0.80672867168E+01  0.46389914954E+02  0.25378494813E+01  0.47154490819E+02  0.00000000000E+00 0. -1.
</event>
<event>
 8    1  0.6627806E-009  0.1092771E+03  0.7561462E-02  0.1261915E+00
          2   -1    0    0  501    0  0.00000000000E+00  0.00000000000E+00  0.37118677038E+03  0.37118677038E+03  0.00000000000E+00 0. -1.
         -2   -1    0    0    0  501 -0.00000000000E+00 -0.00000000000E+00 -0.44290460450E+02  0.44290460450E+02  0.00000000000E+00 0.  1.
         25    2    1    2    0    0 -0.61625861155E+02 -0.24609007144E+02  0.14985906774E+03  0.20618353371E+03  0.12510219580E+03 0.  0.
         23    2    1    2    0    0  0.61625861155E+02  0.24609007144E+02  0.17703724220E+03  0.20929369712E+03  0.89768126499E+02 0.  0.
          5    1    3    3  502    0  0.18425851867E+02 -0.32370033791E+02  0.11022589498E+03  0.11642401569E+03  0.41800000000E+01 0. -1.
         -5    1    3    3    0  502 -0.80051713022E+02  0.77610266473E+01  0.39633172753E+02  0.89759518018E+02  0.41800000000E+01 0. -1.
        -11    1    4    4    0    0  0.16447397616E+02 -0.27206900621E+02  0.10504440542E+03  0.10974998606E+03  0.00000000000E+00 0. -1.
         11    1    4    4    0    0  0.45178463539E+02  0.51815907765E+02  0.71992836772E+02  0.99543711061E+02  0.00000000000E+00 0.  1.
</event>
<event>
 8    1  0.6627806E-009  0.1369944E+03  0.7561462E-02  0.1217431E+00
         -2   -1    0    0    0  501 -0.00000000000E+00  0.00000000000E+00  0.12967045169E+02  0.12967045169E+02  0.00000000000E+00 0.  1.
          2   -1    0    0  501    0  0.00000000000E+00 -0.00000000000E+00 -0.16096225784E+04  0.16096225784E+04  0.00000000000E+00 0. -1.
         25    2    1    2    0    0  0.61671042031E+02  0.67270248181E+02 -0.96594939284E+03  0.97828049230E+03  0.12508352553E+03 0.  0.
         23    2    1    2    0    0 -0.61671042031E+02 -0.67270248181E+02 -0.63070614041E+03  0.64430913129E+03  0.94949551889E+02 0.  0.
          5    1    3    3  502    0  0.48362183247E+02  0.10119962082E+03 -0.59279410777E+03  0.60332627212E+03  0.41800000000E+01 0.  1.
         -5    1    3    3    0  502  0.13308858784E+02 -0.33929372643E+02 -0.37315528508E+03  0.37495422018E+03  0.41800000000E+01 0.  1.
        -11    1    4    4    0    0 -0.37770535133E+02 -0.86500749608E+02 -0.54857793594E+03  0.55663879204E+03  0.00000000000E+00 0. -1.
         11    1    4    4    0    0 -0.23900506898E+02  0.19230501427E+02 -0.82128204472E+02  0.87670339254E+02  0.00000000000E+00 0.  1.
</event>
<event>
 8    1  0.6627806E-009  0.8344386E+02  0.7561462E-02  0.1319553E+00
          1   -1    0    0  501    0  0.00000000000E+00  0.00000000000E+00  0.75630201532E+02  0.75630201532E+02  0.00000000000E+00 0. -1.
         -1   -1    0    0    0  501 -0.00000000000E+00 -0.00000000000E+00 -0.19992321523E+03  0.19992321523E+03  0.00000000000E+00 0.  1.
         25    2    1    2    0    0  0.14871083822E+02 -0.10792818624E+02 -0.13085278733E+03  0.18195476750E+03  0.12508977335E+03 0.  0.
         23    2    1    2    0    0 -0.14871083822E+02  0.10792818624E+02  0.65597736291E+01  0.93598649261E+02  0.91542571766E+02 0.  0.
          5    1    3    3  502    0  0.62511929300E+02 -0.21001257160E+02 -0.11099592588E+03  0.12917570232E+03  0.41800000000E+01 0. -1.
         -5    1    3    3    0  502 -0.47640845479E+02  0.10208438536E+02 -0.19856861448E+02  0.52779065185E+02  0.41800000000E+01 0. -1.
        -11    1    4    4    0    0 -0.15074733832E+01  0.29157492505E+02 -0.35399729943E+02  0.45886520082E+02  0.00000000000E+00 0.  1.
         11    1    4    4    0    0 -0.13363610438E+02 -0.18364673882E+02  0.41959503572E+02  0.47712129179E+02  0.00000000000E+00 0. -1.
</event>
<event>
 7    1  0.6627806E-009  0.1383311E+03  0.7561462E-02  0.1215592E+00
          3   -1    0    0  501    0  0.00000000000E+00  0.00000000000E+00  0.25294075979E+03  0.25294075979E+03  0.00000000000E+00 0. -1.
         -3   -1    0    0    0  501 -0.00000000000E+00 -0.00000000000E+00 -0.91488666937E+02  0.91488666937E+02  0.00000000000E+00 0.  1.
         23    2    1    2    0    0 -0.91567327757E+02 -0.52901612153E+02  0.66292615756E+02  0.15493482128E+03  0.91798321665E+02 0.  0.
          5    1    1    2  502    0 -0.22986342851E+02  0.13030771854E+01  0.51249330154E+02  0.56338585437E+02  0.41800000000E+01 0. -1.
         -5    1    1    2    0  502  0.11455367061E+03  0.51598534967E+02  0.43910146945E+02  0.13315602001E+03  0.41800000000E+01 0. -1.
        -11    1    3    3    0    0  0.11983547006E+02 -0.94315622124E+01 -0.10825012424E+02  0.18701354459E+02  0.00000000000E+00 0. -1.
         11    1    3    3    0    0 -0.10355087476E+03 -0.43470049940E+02  0.77117628181E+02  0.13623346682E+03  0.00000000000E+00 0.  1.
</event>
<event>
 8    1  0.6627806E-009  0.2841622E+03  0.7561462E-02  0.1093437E+00
          1   -1    0    0  501    0  0.00000000000E+00  0.00000000000E+00  0.53814691686E+03  0.53814691686E+03  0.00000000000E+00 0. -1.
         -1   -1    0    0    0  501 -0.00000000000E+00 -0.00000000000E+00 -0.16658881017E+03  0.16658881017E+03  0.00000000000E+00 0.  1.
         25    2    1    2    0    0  0.48911802220E+02  0.26480303757E+03  0.27374279292E+03  0.40385037654E+03  0.12508795647E+03 0.  0.
         23    2    1    2    0    0 -0.48911802220E+02 -0.26480303757E+03  0.97815313773E+02  0.30088535049E+03  0.91930111651E+02 0.  0.
          5    1    3    3  502    0  0.75986297398E+02  0.22967208755E+03  0.26427762162E+03  0.35830618035E+03  0.41800000000E+01 0.  1.
         -5    1    3    3    0  502 -0.27074495178E+02  0.35130950018E+02  0.94651712996E+01  0.45544196184E+02  0.41800000000E+01 0.  1.
        -11    1    4    4    0    0 -0.63025845020E+02 -0.11318756704E+03  0.24357523934E+02  0.13182174117E+03  0.00000000000E+00 0.  1.
         11    1    4    4    0    0  0.14114042800E+02 -0.15161547053E+03  0.73457789839E+02  0.16906360932E+03  0.00000000000E+00 0. -1.
</event>
<event>
 8    1  0.6627806E-009  0.1651106E+03  0.7561462E-02  0.1183045E+00
          2   -1    0    0  501    0  0.00000000000E+00  0.00000000000E+00  0.14196437181E+03  0.14196437181E+03  0.00000000000E+00 0. -1.
         -2   -1    0    0    0  501 -0.00000000000E+00 -0.00000000000E+00 -0.21798833959E+03  0.21798833959E+03  0.00000000000E+00 0.  1.
         25    2    1    2    0    0  0.10045083575E+03  0.91501771400E+02 -0.62042015276E+02  0.19483111506E+03  0.12508799768E+03 0.  0.
         23    2    1    2    0    0 -0.10045083575E+03 -0.91501771400E+02 -0.13981952499E+02  0.16512159634E+03  0.92772312734E+02 0.  0.
          5    1    3    3  502    0  0.61773684226E+02 -0.21168018521E+02 -0.24338751404E+02  0.69813467833E+02  0.41800000000E+01 0.  1.
         -5    1    3    3    0  502  0.38677151525E+02  0.11266978992E+03 -0.37703263872E+02  0.12501764722E+03  0.41800000000E+01 0.  1.
        -11    1    4    4    0    0 -0.75248543046E+02 -0.33535688130E+02  0.30481579831E+02  0.87841404348E+02  0.00000000000E+00 0. -1.
         11    1    4    4    0    0 -0.25202292705E+02 -0.57966083270E+02 -0.44463532329E+02  0.77280191993E+02  0.00000000000E+00 0.  1.
</event>
<event>
 8    1  0.6627806E-009  0.1635033E+03  0.7561462E-02  0.1184797E+00
          2   -1    0    0  501    0  0.00000000000E+00  0.00000000000E+00  0.17995418920E+03  0.17995418920E+03  0.00000000000E+00 0.  1.
         -2   -1    0    0    0  501 -0.00000000000E+00 -0.00000000000E+00 -0.16044318876E+03  0.16044318876E+03  0.00000000000E+00 0. -1.
         25    2    1    2    0    0 -0.58957844086E+02  0.11049411139E+03 -0.21151437938E+02  0.17826881746E+03  0.12508961556E+03 0.  0.
         23    2    1    2    0    0  0.58957844086E+02 -0.11049411139E+03  0.40662438378E+02  0.16212856049E+03  0.94589958241E+02 0.  0.
          5    1    3    3  502    0  0.23756304579E+02  0.79811941528E+02  0.11374357460E+02  0.84149607399E+02  0.41800000000E+01 0.  1.
         -5    1    3    3    0  502 -0.82714148665E+02  0.30682169863E+02 -0.32525795398E+02  0.94119210065E+02  0.41800000000E+01 0.  1.
        -11    1    4    4    0    0  0.76772916548E+02 -0.48508278035E+02  0.35219992200E+02  0.97404217587E+02  0.00000000000E+00 0.  1.
         11    1    4    4    0    0 -0.17815072462E+02 -0.61985833356E+02  0.54424461779E+01  0.64724342902E+02  0.00000000000E+00 0. -1.
</event>
<event>
 8    1  0.6627806E-009  0.8316534E+02  0.7561462E-02  0.1320301E+00
         -1   -1    0    0    0  501 -0.00000000000E+00  0.00000000000E+00  0.20417313310E+02  0.20417313310E+02  0.00000000000E+00 0.  1.
          1   -1    0    0  501    0  0.00000000000E+00 -0.00000000000E+00 -0.68040050975E+03  0.68040050975E+03  0.00000000000E+00 0. -1.
         25    2    1    2    0    0 -0.11234352121E+01  0.82091419036E+01 -0.23581603042E+03  0.26706776332E+03  0.12508931964E+03 0.  0.
         23    2    1    2    0    0  0.11234352121E+01 -0.82091419036E+01 -0.42416716602E+03  0.43375005973E+03  0.90292178346E+02 0.  0.
          5    1    3    3  502    0  0.17204903133E+02  0.38130347608E+02 -0.16887124503E+02  0.45305402266E+02  0.41800000000E+01 0.  1.
         -5    1    3    3    0  502 -0.18328338345E+02 -0.29921205704E+02 -0.21892890591E+03  0.22176236106E+03  0.41800000000E+01 0.  1.
        -11    1    4    4    0    0 -0.68191088211E+01  0.39755305569E+02 -0.23492209750E+03  0.23835976267E+03  0.00000000000E+00 0. -1.
         11    1    4    4    0    0  0.79425440332E+01 -0.47964447473E+02 -0.18924506852E+03  0.19539029707E+03  0.00000000000E+00 0.  1.
</event>
<event>
 8    1  0.6627806E-009  0.1301655E+03  0.7561462E-02  0.1227210E+00
          1   -1    0    0  501    0  0.00000000000E+00  0.00000000000E+00  0.53278030853E+03  0.53278030853E+03  0.00000000000E+00 0. -1.
         -1   -1    0    0    0  501 -0.00000000000E+00 -0.00000000000E+00 -0.35894400123E+02  0.35894400123E+02  0.00000000000E+00 0.  1.
         25    2    1    2    0    0  0.75285417787E+02  0.98210967066E+01  0.19320364740E+03  0.24236258994E+03  0.12509047750E+03 0.  0.
         23    2    1    2    0    0 -0.75285417787E+02 -0.98210967066E+01  0.30368226101E+03  0.32631211872E+03  0.92153866426E+02 0.  0.
          5    1    3    3  502    0  0.81237900485E+02 -0.41731203243E+02  0.99199040801E+02  0.13490371342E+03  0.41800000000E+01 0. -1.
         -5    1    3    3    0  502 -0.59524826987E+01  0.51552299950E+02  0.94004606598E+02  0.10745887652E+03  0.41800000000E+01 0. -1.
        -11    1    4    4    0    0 -0.78061740656E+02 -0.39187365285E+02  0.25321767121E+03  0.26785905616E+03  0.00000000000E+00 0. -1.
         11    1    4    4    0    0  0.27763228689E+01  0.29366268579E+02  0.50464589798E+02  0.58453062557E+02  0.00000000000E+00 0.  1.
</event>
<event>
 8    1  0.6627806E-009  0.9813920E+02  0.7561462E-02  0.1284258E+00
          4   -1    0    0  501    0  0.00000000000E+00  0.00000000000E+00  0.72750520961E+02  0.72750520961E+02  0.00000000000E+00 0. -1.
         -4   -1    0    0    0  501 -0.00000000000E+00 -0.00000000000E+00 -0.19674512905E+03  0.19674512905E+03  0.00000000000E+00 0.  1.
         25    2    1    2    0    0 -0.47461840258E+02 -0.50897062643E+01 -0.82437504533E+02  0.15723500561E+03  0.12509345885E+03 0.  0.
         23    2    1    2    0    0  0.47461840258E+02  0.50897062643E+01 -0.41557103555E+02  0.11226064440E+03  0.92719620544E+02 0.  0.
          5    1    3    3  502    0  0.35835627460E+02 -0.55680190092E+01 -0.61051167513E+02  0.71133061834E+02  0.41800000000E+01 0.  1.
         -5    1    3    3    0  502 -0.83297467718E+02  0.47831274490E+00 -0.21386337020E+02  0.86101943779E+02  0.41800000000E+01 0.  1.
        -11    1    4    4    0    0  0.51000145063E+02  0.24541741043E+02 -0.61912614431E+02  0.83883750963E+02  0.00000000000E+00 0.  1.
         11    1    4    4    0    0 -0.35383048050E+01 -0.19452034779E+02  0.20355510876E+02  0.28376893434E+02  0.00000000000E+00 0. -1.
</event>
<event>
 8    1  0.6627806E-009  0.1166381E+03  0.7561462E-02  0.1248749E+00
         -1   -1    0    0    0  501 -0.00000000000E+00  0.00000000000E+00  0.24624780506E+02  0.24624780506E+02  0.00000000000E+00 0.  1.
          1   -1    0    0  501    0  0.00000000000E+00 -0.00000000000E+00 -0.10838967789E+04  0.10838967789E+04  0.00000000000E+00 0. -1.
         25    2    1    2    0    0  0.29816182053E+02  0.39281391997E+02 -0.88902477580E+03  0.89913517754E+03  0.12508790123E+03 0.  0.
         23    2    1    2    0    0 -0.29816182053E+02 -0.39281391997E+02 -0.17024722255E+03  0.20938638182E+03  0.11147424652E+03 0.  0.
          5    1    3    3  502    0 -0.13649310464E+02  0.66845259186E+02 -0.69511539926E+03  0.69846795420E+03  0.41800000000E+01 0.  1.
         -5    1    3    3    0  502  0.43465492517E+02 -0.27563867188E+02 -0.19390937653E+03  0.20066722334E+03  0.41800000000E+01 0.  1.
        -11    1    4    4    0    0  0.21106969472E+02 -0.55873655119E+02 -0.50528433335E+02  0.78233573816E+02  0.00000000000E+00 0. -1.
         11    1    4    4    0    0 -0.50923151525E+02  0.16592263122E+02 -0.11971878922E+03  0.13115280801E+03  0.00000000000E+00 0.  1.
</event>
<event>
 8    1  0.6627806E-009  0.4689538E+03  0.7561462E-02  0.1022216E+00
          1   -1    0    0  501    0  0.00000000000E+00  0.00000000000E+00  0.30435522792E+04  0.30435522792E+04  0.00000000000E+00 0. -1.
         -1   -1    0    0    0  501 -0.00000000000E+00 -0.00000000000E+00 -0.77398889775E+02  0.77398889775E+02  0.00000000000E+00 0.  1.
         25    2    1    2    0    0  0.32815922553E+03  0.32726944968E+03  0.17924524502E+04  0.18556202035E+04  0.12508710384E+03 0.  0.
         23    2    1    2    0    0 -0.32815922553E+03 -0.32726944968E+03  0.11737009393E+04  0.12653309655E+04  0.93245843729E+02 0.  0.
          5    1    3    3  502    0  0.23835529257E+03  0.20964283485E+03  0.14149365369E+04  0.14501124920E+04  0.41800000000E+01 0.  1.
         -5    1    3    3    0  502  0.89803932961E+02  0.11762661483E+03  0.37751591328E+03  0.40550771148E+03  0.41800000000E+01 0.  1.
        -11    1    4    4    0    0 -0.27696866372E+03 -0.22060680186E+03  0.90030589084E+03  0.96743459665E+03  0.00000000000E+00 0.  1.
         11    1    4    4    0    0 -0.51190561806E+02 -0.10666264783E+03  0.27339504843E+03  0.29789636883E+03  0.00000000000E+00 0. -1.
</event>
<event>
 8    1  0.6627806E-009  0.9258696E+02  0.7561462E-02  0.1296705E+00
          2   -1    0    0  501    0  0.00000000000E+00  0.00000000000E+00  0.69247299768E+03  0.69247299768E+03  0.00000000000E+00 0. -1.
         -2   -1    0    0    0  501 -0.00000000000E+00 -0.00000000000E+00 -0.18892276568E+02  0.18892276568E+02  0.00000000000E+00 0.  1.
         25    2    1    2    0    0 -0.22603735513E+02  0.26688826146E+02  0.35133358643E+03  0.37457478860E+03  0.12509101088E+03 0.  0.
         23    2    1    2    0    0  0.22603735513E+02 -0.26688826146E+02  0.32224713469E+03  0.33679048565E+03  0.91440653490E+02 0.  0.
          5    1    3    3  502    0  0.23955556423E+02 -0.13422379927E+02  0.27540956545E+03  0.27680666558E+03  0.41800000000E+01 0.  1.
         -5    1    3    3    0  502 -0.46559291936E+02  0.40111206073E+02  0.75924020979E+02  0.97768123025E+02  0.41800000000E+01 0.  1.
        -11    1    4    4    0    0 -0.16790794122E+02  0.25427499206E+02  0.72568263087E+02  0.78706043546E+02  0.00000000000E+00 0.  1.
         11    1    4    4    0    0  0.39394529635E+02 -0.52116325352E+02  0.24967887160E+03  0.25808444211E+03  0.00000000000E+00 0. -1.
</event>
<event>
 8    1  0.6627806E-009  0.2763081E+03  0.7561462E-02  0.1097723E+00
         -4   -1    0    0    0  501 -0.00000000000E+00  0.00000000000E+00  0.25716226477E+03  0.25716226477E+03  0.00000000000E+00 0. -1.
          4   -1    0    0  501    0  0.00000000000E+00 -0.00000000000E+00 -0.31369207238E+03  0.31369207238E+03  0.00000000000E+00 0.  1.
         25    2    1    2    0    0 -0.50480496987E+02 -0.25720858398E+03 -0.30928334002E+02  0.29207538494E+03  0.12508769882E+03 0.  0.
         23    2    1    2    0    0  0.50480496987E+02  0.25720858398E+03 -0.25601473607E+02  0.27877895221E+03  0.91420634948E+02 0.  0.
          5    1    3    3  502    0  0.38746683402E+02 -0.76809683771E+02  0.98240730146E+01  0.86689202362E+02  0.41800000000E+01 0. -1.
         -5    1    3    3    0  502 -0.89227180390E+02 -0.18039890021E+03 -0.40752407016E+02  0.20538618258E+03  0.41800000000E+01 0. -1.
        -11    1    4    4    0    0  0.57827406216E+01  0.13386992712E+03 -0.54146199604E+02  0.14452130780E+03  0.00000000000E+00 0.  1.
         11    1    4    4    0    0  0.44697756366E+02  0.12333865686E+03  0.28544725997E+02  0.13425764441E+03  0.00000000000E+00 0. -1.
</event>
<event>
 8    1  0.6627806E-009  0.1460516E+03  0.7561462E-02  0.1205410E+00
          2   -1    0    0  501    0  0.00000000000E+00  0.00000000000E+00  0.53101462029E+03  0.53101462029E+03  0.00000000000E+00 0. -1.
         -2   -1    0    0    0  501 -0.00000000000E+00 -0.00000000000E+00 -0.73192713598E+02  0.73192713598E+02  0.00000000000E+00 0.  1.
         25    2    1    2    0    0  0.86224741170E+02  0.11721289002E+03  0.12363688469E+03  0.22826989144E+03  0.12508995364E+03 0.  0.
         23    2    1    2    0    0 -0.86224741170E+02 -0.11721289002E+03  0.33418502200E+03  0.37593744245E+03  0.92063913289E+02 0.  0.
          5    1    3    3  502    0  0.32845457569E+02  0.54004400700E+02  0.13058745532E+03  0.14514081185E+03  0.41800000000E+01 0.  1.
         -5    1    3    3    0  502  0.53379283601E+02  0.63208489323E+02 -0.69505706311E+01  0.83129079583E+02  0.41800000000E+01 0.  1.
        -11    1    4    4    0    0 -0.58772623748E+02 -0.71028262300E+02  0.10145060903E+03  0.13708195147E+03  0.00000000000E+00 0.  1.
         11    1    4    4    0    0 -0.27452117422E+02 -0.46184627723E+02  0.23273441297E+03  0.23885549098E+03  0.00000000000E+00 0. -1.
</event>
<event>
 8    1  0.6627806E-009  0.1326426E+03  0.7561462E-02  0.1223586E+00
          2   -1    0    0  501    0  0.00000000000E+00  0.00000000000E+00  0.73213134388E+03  0.73213134388E+03  0.00000000000E+00 0. -1.
         -2   -1    0    0    0  501 -0.00000000000E+00 -0.00000000000E+00 -0.37700485487E+02  0.37700485487E+02  0.00000000000E+00 0.  1.
         25    2    1    2    0    0 -0.11250519533E+03 -0.30030851081E+01  0.24729837737E+03  0.29911697705E+03  0.12509213009E+03 0.  0.
         23    2    1    2    0    0  0.11250519533E+03  0.30030851081E+01  0.44713248102E+03  0.47071485232E+03  0.94755364593E+02 0.  0.
          5    1    3    3  502    0 -0.23070386915E+02  0.28793133710E+02  0.33059287348E+01  0.37278530900E+02  0.41800000000E+01 0. -1.
         -5    1    3    3    0  502 -0.89434808412E+02 -0.31796218818E+02  0.24399244864E+03  0.26183844615E+03  0.41800000000E+01 0. -1.
        -11    1    4    4    0    0  0.10940913411E+03 -0.18893417075E+02  0.42561942041E+03  0.43986271821E+03  0.00000000000E+00 0. -1.
         11    1    4    4    0    0  0.30960612169E+01  0.21896502183E+02  0.21513060609E+02  0.30852134119E+02  0.00000000000E+00 0.  1.
</event>
<event>
 8    1  0.6627806E-009  0.1007328E+03  0.7561462E-02  0.1278763E+00
          2   -1    0    0  501    0  0.00000000000E+00  0.00000000000E+00  0.13613361229E+04  0.13613361229E+04  0.00000000000E+00 0. -1.
         -2   -1    0    0    0  501 -0.00000000000E+00 -0.00000000000E+00 -0.11015458305E+02  0.11015458305E+02  0.00000000000E+00 0.  1.
         25    2    1    2    0    0 -0.72450072787E+01 -0.33275837785E+02  0.10243732354E+04  0.10325438487E+04  0.12508598055E+03 0.  0.
         23    2    1    2    0    0  0.72450072787E+01  0.33275837785E+02  0.32594742921E+03  0.33980773254E+03  0.89820916134E+02 0.  0.
          5    1    3    3  502    0  0.45163119050E+02 -0.27121933389E+02  0.81036807283E+03  0.81208939930E+03  0.41800000000E+01 0.  1.
         -5    1    3    3    0  502 -0.52408126329E+02 -0.61539043958E+01  0.21400516260E+03  0.22045444940E+03  0.41800000000E+01 0.  1.
        -11    1    4    4    0    0  0.12637860599E+02 -0.29805347501E+02  0.12488956527E+03  0.12901735454E+03  0.00000000000E+00 0. -1.
         11    1    4    4    0    0 -0.53928533200E+01  0.63081185286E+02  0.20105786394E+03  0.21079037800E+03  0.00000000000E+00 0.  1.
</event>
<event>
 8    1  0.6627806E-009  0.1430929E+03  0.7561462E-02  0.1209227E+00
          1   -1    0    0  501    0  0.00000000000E+00  0.00000000000E+00  0.53515866943E+03  0.53515866943E+03  0.00000000000E+00 0. -1.
         -1   -1    0    0    0  501 -0.00000000000E+00 -0.00000000000E+00 -0.47184816481E+02  0.47184816481E+02  0.00000000000E+00 0.  1.
         25    2    1    2    0    0 -0.88311581272E+02 -0.69649197787E+02  0.30236362144E+03  0.34600575240E+03  0.12508507098E+03 0.  0.
         23    2    1    2    0    0  0.88311581272E+02  0.69649197787E+02  0.18561023151E+03  0.23633773351E+03  0.93565058133E+02 0.  0.
          5    1    3    3  502    0 -0.59320138589E+02 -0.99235221356E+02  0.15844079373E+03  0.19618222528E+03  0.41800000000E+01 0. -1.
         -5    1    3    3    0  502 -0.28991442682E+02  0.29586023570E+02  0.14392282772E+03  0.14982352712E+03  0.41800000000E+01 0. -1.
        -11    1    4    4    0    0  0.74952952461E+02  0.81699751266E+02  0.18792973474E+03  0.21819802850E+03  0.00000000000E+00 0. -1.
         11    1    4    4    0    0  0.13358628810E+02 -0.12050553480E+02 -0.23195032353E+01  0.18139705017E+02  0.00000000000E+00 0.  1.
</event>
<event>
 8    1  0.6627806E-009  0.1770034E+03  0.7561462E-02  0.1170735E+00
          1   -1    0    0  501    0  0.00000000000E+00  0.00000000000E+00  0.35440707510E+03  0.35440707510E+03  0.00000000000E+00 0. -1.
         -1   -1    0    0    0  501 -0.00000000000E+00 -0.00000000000E+00 -0.10212644705E+03  0.10212644705E+03  0.00000000000E+00 0.  1.
         25    2    1    2    0    0  0.14313511320E+03  0.58341290425E+02  0.10814483197E+03  0.22635178563E+03  0.12509380231E+03 0.  0.
         23    2    1    2    0    0 -0.14313511320E+03 -0.58341290425E+02  0.14413579608E+03  0.23018173652E+03  0.91198340531E+02 0.  0.
          5    1    3    3  502    0 -0.48842128990E+01 -0.13715159492E+02 -0.14539956783E+02  0.20996282499E+02  0.41800000000E+01 0. -1.
         -5    1    3    3    0  502  0.14801932610E+03  0.72056449916E+02  0.12268478876E+03  0.20535550313E+03  0.41800000000E+01 0. -1.
        -11    1    4    4    0    0 -0.11849903182E+03 -0.87682640570E+01  0.70864661484E+02  0.13834993040E+03  0.00000000000E+00 0. -1.
         11    1    4    4    0    0 -0.24636081385E+02 -0.49573026368E+02  0.73271134592E+02  0.91831806111E+02  0.00000000000E+00 0.  1.
</event>
<event>
 8    1  0.6627806E-009  0.1734846E+03  0.7561462E-02  0.1174262E+00
         -1   -1    0    0    0  501 -0.00000000000E+00  0.00000000000E+00  0.57233531820E+02  0.57233531820E+02  0.00000000000E+00 0.  1.
          1   -1    0    0  501    0  0.00000000000E+00 -0.00000000000E+00 -0.71153765127E+03  0.71153765127E+03  0.00000000000E+00 0. -1.
         25    2    1    2    0    0 -0.38823276072E+02 -0.14178373208E+03 -0.47865046625E+03  0.51610229499E+03  0.12508171972E+03 0.  0.
         23    2    1    2    0    0  0.38823276072E+02  0.14178373208E+03 -0.17565365320E+03  0.25266888810E+03  0.10666530684E+03 0.  0.
          5    1    3    3  502    0 -0.11689128064E+02 -0.14661089529E+03 -0.45897562046E+03  0.48198286578E+03  0.41800000000E+01 0. -1.
         -5    1    3    3    0  502 -0.27134148008E+02  0.48271632057E+01 -0.19674845789E+02  0.34119429209E+02  0.41800000000E+01 0. -1.
        -11    1    4    4    0    0  0.46452633023E+02  0.15215219439E+03 -0.17889079680E+03  0.23939518490E+03  0.00000000000E+00 0. -1.
         11    1    4    4    0    0 -0.76293569515E+01 -0.10368462307E+02  0.32371435957E+01  0.13273703204E+02  0.00000000000E+00 0.  1.
</event>
<event>
 8    1  0.6627806E-009  0.1408962E+03  0.7561462E-02  0.1212128E+00
          2   -1    0    0  501    0  0.00000000000E+00  0.00000000000E+00  0.25622920610E+03  0.25622920610E+03  0.00000000000E+00 0. -1.
         -2   -1    0    0    0  501 -0.00000000000E+00 -0.00000000000E+00 -0.11137314662E+03  0.11137314662E+03  0.00000000000E+00 0.  1.
         25    2    1    2    0    0  0.11295363664E+03 -0.60218564377E+02  0.91066621306E+02  0.20081157808E+03  0.12508941143E+03 0.  0.
         23    2    1    2    0    0 -0.11295363664E+03  0.60218564377E+02  0.53789438168E+02  0.16679077463E+03  0.92417851729E+02 0.  0.
          5    1    3    3  502    0  0.45466525888E+02 -0.15474090064E+02 -0.28756190729E+02  0.56134154887E+02  0.41800000000E+01 0. -1.
         -5    1    3    3    0  502  0.67487110753E+02 -0.44744474313E+02  0.11982281203E+03  0.14467742320E+03  0.41800000000E+01 0. -1.
        -11    1    4    4    0    0 -0.89039782874E+02  0.81337843815E+02  0.59340569751E+02  0.13440696034E+03  0.00000000000E+00 0.  1.
         11    1    4    4    0    0 -0.23913853767E+02 -0.21119279438E+02 -0.55511315835E+01  0.32383814288E+02  0.00000000000E+00 0. -1.
</event>
<event>
 8    1  0.6627806E-009  0.1605125E+03  0.7561462E-02  0.1188119E+00
         -1   -1    0    0    0  501 -0.00000000000E+00  0.00000000000E+00  0.22870268290E+03  0.22870268290E+03  0.00000000000E+00 0.  1.
          1   -1    0    0  501    0  0.00000000000E+00 -0.00000000000E+00 -0.18053181334E+03  0.18053181334E+03  0.00000000000E+00 0. -1.
         25    2    1    2    0    0 -0.62687382213E+02  0.10336602937E+03  0.14744208321E+03  0.22804564404E+03  0.12510557121E+03 0.  0.
         23    2    1    2    0    0  0.62687382213E+02 -0.10336602937E+03 -0.99271213647E+02  0.18118885221E+03  0.91435126672E+02 0.  0.
          5    1    3    3  502    0  0.29572933503E+02 -0.58586644831E+01  0.19573270435E+02  0.36186567411E+02  0.41800000000E+01 0.  1.
         -5    1    3    3    0  502 -0.92260315716E+02  0.10922469386E+03  0.12786881277E+03  0.19185907663E+03  0.41800000000E+01 0.  1.
        -11    1    4    4    0    0 -0.50658989975E+01 -0.73220271534E+02 -0.28663239055E+02  0.78793735596E+02  0.00000000000E+00 0.  1.
         11    1    4    4    0    0  0.67753281211E+02 -0.30145757839E+02 -0.70607974592E+02  0.10239511661E+03  0.00000000000E+00 0. -1.
</event>
<event>
 8    1  0.6627806E-009  0.1541545E+03  0.7561462E-02  0.1195459E+00
         -2   -1    0    0    0  501 -0.00000000000E+00  0.00000000000E+00  0.36332272522E+03  0.36332272522E+03  0.00000000000E+00 0.  1.
          2   -1    0    0  501    0  0.00000000000E+00 -0.00000000000E+00 -0.84917895719E+02  0.84917895719E+02  0.00000000000E+00 0. -1.
         25    2    1    2    0    0  0.27759853730E+02 -0.11486314647E+03  0.56940046216E+02  0.18125989923E+03  0.12509528493E+03 0.  0.
         23    2    1    2    0    0 -0.27759853730E+02  0.11486314647E+03  0.22146478329E+03  0.26698072171E+03  0.90928013467E+02 0.  0.
          5    1    3    3  502    0 -0.32218363000E+01  0.25114390899E+02  0.21602177098E+02  0.33544586966E+02  0.41800000000E+01 0. -1.
         -5    1    3    3    0  502  0.30981690030E+02 -0.13997753737E+03  0.35337869118E+02  0.14771531227E+03  0.41800000000E+01 0. -1.
        -11    1    4    4    0    0  0.15365800818E+02  0.85917909509E+02  0.88807762514E+02  0.12451832673E+03  0.00000000000E+00 0. -1.
         11    1    4    4    0    0 -0.43125654548E+02  0.28945236958E+02  0.13265702077E+03  0.14246239498E+03  0.00000000000E+00 0.  1.
</event>
<event>
 7    1  0.6627806E-009  0.1215269E+03  0.7561462E-02  0.1240599E+00
          1   -1    0    0  501    0  0.00000000000E+00  0.00000000000E+00  0.65608369521E+02  0.65608369521E+02  0.00000000000E+00 0. -1.
         -1   -1    0    0    0  501 -0.00000000000E+00 -0.00000000000E+00 -0.28713965798E+03  0.28713965798E+03  0.00000000000E+00 0.  1.
         23    2    1    2    0    0  0.15056834465E+02 -0.79471136181E+02 -0.65909965098E+02  0.13727916568E+03  0.89213654112E+02 0.  0.
          5    1    1    2  502    0  0.61299609355E+00 -0.34055816899E+02 -0.34041049131E+02  0.48336734011E+02  0.41800000000E+01 0.  1.
         -5    1    1    2    0  502 -0.15669830559E+02  0.11352695308E+03 -0.12158027423E+03  0.16713212781E+03  0.41800000000E+01 0.  1.
        -11    1    3    3    0    0  0.31685126367E+02 -0.63672867421E+02 -0.82535487751E+02  0.10895085138E+03  0.00000000000E+00 0.  1.
         11    1    3    3    0    0 -0.16628291901E+02 -0.15798268760E+02  0.16625522653E+02  0.28328314296E+02  0.00000000000E+00 0. -1.
</event>
<event>
 8    1  0.6627806E-009  0.8458493E+02  0.7561462E-02  0.1316522E+00
          2   -1    0    0  501    0  0.00000000000E+00  0.00000000000E+00  0.94900504359E+02  0.94900504359E+02  0.00000000000E+00 0. -1.
         -2   -1    0    0    0  501 -0.00000000000E+00 -0.00000000000E+00 -0.13438618787E+03  0.13438618787E+03  0.00000000000E+00 0.  1.
         25    2    1    2    0    0 -0.33487750736E+02 -0.47672289003E+01 -0.13476508146E+02  0.13028227788E+03  0.12509076599E+03 0.  0.
         23    2    1    2    0    0  0.33487750736E+02  0.47672289003E+01 -0.26009175365E+02  0.99004414351E+02  0.89337791203E+02 0.  0.
          5    1    3    3  502    0  0.13412832173E+02  0.33523984130E+02 -0.48192956209E+02  0.60363855137E+02  0.41800000000E+01 0. -1.
         -5    1    3    3    0  502 -0.46900582909E+02 -0.38291213030E+02  0.34716448063E+02  0.69918422741E+02  0.41800000000E+01 0. -1.
        -11    1    4    4    0    0  0.51092039434E+02  0.12964447545E+02 -0.46847296986E+02  0.70520512112E+02  0.00000000000E+00 0.  1.
         11    1    4    4    0    0 -0.17604288698E+02 -0.81972186450E+01  0.20838121621E+02  0.28483902239E+02  0.00000000000E+00 0. -1.
</event>
<event>
 8    1  0.6627806E-009  0.7060733E+02  0.7561462E-02  0.1358040E+00
         -3   -1    0    0    0  501 -0.00000000000E+00  0.00000000000E+00  0.28385968493E+02  0.28385968493E+02  0.00000000000E+00 0.  1.
          3   -1    0    0  501    0  0.00000000000E+00 -0.00000000000E+00 -0.46703248186E+03  0.46703248186E+03  0.00000000000E+00 0. -1.
         25    2    1    2    0    0  0.34126971898E+01  0.32358198847E+02 -0.27442373300E+03  0.30333704388E+03  0.12508508073E+03 0.  0.
         23    2    1    2    0    0 -0.34126971898E+01 -0.32358198847E+02 -0.16422278036E+03  0.19208140647E+03  0.94167115210E+02 0.  0.
          5    1    3    3  502    0  0.19948225417E+02  0.11127695886E+02 -0.27511706718E+03  0.27609532841E+03  0.41800000000E+01 0.  1.
         -5    1    3    3    0  502 -0.16535528227E+02  0.21230502961E+02  0.69333417904E+00  0.27241715475E+02  0.41800000000E+01 0.  1.
        -11    1    4    4    0    0  0.32410190959E+02  0.11266226263E+02 -0.10411538475E+03  0.10962372770E+03  0.00000000000E+00 0. -1.
         11    1    4    4    0    0 -0.35822888149E+02 -0.43624425111E+02 -0.60107395609E+02  0.82457678772E+02  0.00000000000E+00 0.  1.
</event>
<event>
 8    1  0.6627806E-009  0.1467496E+03  0.7561462E-02  0.1204525E+00
         -2   -1    0    0    0  501 -0.00000000000E+00  0.00000000000E+00  0.75470727314E+02  0.75470727314E+02  0.00000000000E+00 0.  1.
          2   -1    0    0  501    0  0.00000000000E+00 -0.00000000000E+00 -0.30427305611E+03  0.30427305611E+03  0.00000000000E+00 0. -1.
         25    2    1    2    0    0 -0.94421905340E+02 -0.50268972662E+02 -0.12189078273E+03  0.20480922885E+03  0.12508793502E+03 0.  0.
         23    2    1    2    0    0  0.94421905340E+02  0.50268972662E+02 -0.10691154606E+03  0.17493455457E+03  0.87917881459E+02 0.  0.
          5    1    3    3  502    0 -0.11796502760E+03 -0.65558174399E+02 -0.10949107205E+03  0.17383724925E+03  0.41800000000E+01 0. -1.
         -5    1    3    3    0  502  0.23543122262E+02  0.15289201737E+02 -0.12399710677E+02  0.30971979602E+02  0.41800000000E+01 0. -1.
        -11    1    4    4    0    0  0.25147782070E+02  0.55186935648E+02 -0.80148663248E+02  0.10050779587E+03  0.00000000000E+00 0. -1.
         11    1    4    4    0    0  0.69274123270E+02 -0.49179629855E+01 -0.26762882817E+02  0.74426758706E+02  0.00000000000E+00 0.  1.
</event>
<event>
 7    1  0.6627806E-009  0.2173568E+03  0.7561462E-02  0.1135869E+00
         -2   -1    0    0    0  501 -0.00000000000E+00  0.00000000000E+00  0.44136156166E+03  0.44136156166E+03  0.00000000000E+00 0. -1.
          2   -1    0    0  501    0  0.00000000000E+00 -0.00000000000E+00 -0.15775670383E+03  0.15775670383E+03  0.00000000000E+00 0.  1.
         23    2    1    2    0    0 -0.19460546767E+03  0.20964420179E+02  0.29574584326E+03  0.36656174025E+03  0.92688244400E+02 0.  0.
          5    1    1    2  502    0  0.17565482198E+03 -0.51116235305E+02 -0.39804987877E+02  0.18726824466E+03  0.41800000000E+01 0.  1.
         -5    1    1    2    0  502  0.18950645686E+02  0.30151815126E+02  0.27664002446E+02  0.45288280589E+02  0.41800000000E+01 0.  1.
        -11    1    3    3    0    0 -0.19823383162E+03  0.37442584146E+01  0.26271089705E+03  0.32913171664E+03  0.00000000000E+00 0.  1.
         11    1    3    3    0    0  0.36283639559E+01  0.17220161764E+02  0.33034946207E+02  0.37430023605E+02  0.00000000000E+00 0. -1.
</event>
<event>
 7    1  0.6627806E-009  0.8185096E+02  0.7561462E-02  0.1323879E+00
          2   -1    0    0  501    0  0.00000000000E+00  0.00000000000E+00  0.70744636207E+03  0.70744636207E+03  0.00000000000E+00 0. -1.
         -2   -1    0    0    0  501 -0.00000000000E+00 -0.00000000000E+00 -0.12675317172E+02  0.12675317172E+02  0.00000000000E+00 0.  1.
         25    2    1    2    0    0  0.27439952116E+02 -0.11062386275E+02  0.64825439800E+03  0.66087600356E+03  0.12509196692E+03 0.  0.
          5    1    3    3  502    0  0.55343226519E+02 -0.53528250345E+02  0.36269464515E+03  0.37080051824E+03  0.41800000000E+01 0. -1.
         -5    1    3    3    0  502 -0.27903274403E+02  0.42465864070E+02  0.28555975286E+03  0.29007548532E+03  0.41800000000E+01 0. -1.
        -11    1    1    2    0    0 -0.66523103964E+01  0.13130375820E+02  0.26500034661E+02  0.30313558680E+02  0.00000000000E+00 0.  1.
         11    1    1    2    0    0 -0.20787641719E+02 -0.20679895455E+01  0.20016612239E+02  0.28932117008E+02  0.00000000000E+00 0. -1.
</event>
<event>
 8    1  0.6627806E-009  0.1260004E+03  0.7561462E-02  0.1233514E+00
          1   -1    0    0  501    0  0.00000000000E+00  0.00000000000E+00  0.30023318845E+03  0.30023318845E+03  0.00000000000E+00 0. -1.
         -1   -1    0    0    0  501 -0.00000000000E+00 -0.00000000000E+00 -0.81045741854E+02  0.81045741854E+02  0.00000000000E+00 0.  1.
         25    2    1    2    0    0  0.56706263735E+02  0.40382788538E+02  0.22388332350E+03  0.26573924039E+03  0.12508889393E+03 0.  0.
         23    2    1    2    0    0 -0.56706263735E+02 -0.40382788538E+02 -0.46958769098E+01  0.11553968991E+03  0.92092338049E+02 0.  0.
          5    1    3    3  502    0 -0.37080818201E+02  0.18573705672E+02  0.38231244096E+02  0.56560322188E+02  0.41800000000E+01 0. -1.
         -5    1    3    3    0  502  0.93787081936E+02  0.21809082866E+02  0.18565207941E+03  0.20917891820E+03  0.41800000000E+01 0. -1.
        -11    1    4    4    0    0 -0.66758553564E+02 -0.61361727215E+02 -0.11252062777E+02  0.91370536594E+02  0.00000000000E+00 0. -1.
         11    1    4    4    0    0  0.10052289828E+02  0.20978938677E+02  0.65561858675E+01  0.24169153314E+02  0.00000000000E+00 0.  1.
</event>
<event>
 8    1  0.6627806E-009  0.1783962E+03  0.7561462E-02  0.1169364E+00
          1   -1    0    0  501    0  0.00000000000E+00  0.00000000000E+00  0.53508099326E+03  0.53508099326E+03  0.00000000000E+00 0. -1.
         -1   -1    0    0    0  501 -0.00000000000E+00 -0.00000000000E+00 -0.70843369460E+02  0.70843369460E+02  0.00000000000E+00 0.  1.
         25    2    1    2    0    0  0.71578814780E+01  0.14305857206E+03  0.13008693207E+03  0.23040595951E+03  0.12508919208E+03 0.  0.
         23    2    1    2    0    0 -0.71578814780E+01 -0.14305857206E+03  0.33415069173E+03  0.37551840321E+03  0.94023380375E+02 0.  0.
          5    1    3    3  502    0  0.62712740282E+02  0.44768196368E+02  0.51077275052E+02  0.92538854685E+02  0.41800000000E+01 0. -1.
         -5    1    3    3    0  502 -0.55554858804E+02  0.98290375693E+02  0.79009657014E+02  0.13786710482E+03  0.41800000000E+01 0. -1.
        -11    1    4    4    0    0  0.35228703569E+02 -0.10085514007E+03  0.25364158972E+03  0.27522150510E+03  0.00000000000E+00 0.  1.
         11    1    4    4    0    0 -0.42386585048E+02 -0.42203431995E+02  0.80509102016E+02  0.10029689812E+03  0.00000000000E+00 0. -1.
</event>
<event>
 8    1  0.6627806E-009  0.1272570E+03  0.7561462E-02  0.1231583E+00
          2   -1    0    0  501    0  0.00000000000E+00  0.00000000000E+00  0.11063080754E+03  0.11063080754E+03  0.00000000000E+00 0. -1.
         -2   -1    0    0    0  501 -0.00000000000E+00 -0.00000000000E+00 -0.39069890391E+03  0.39069890391E+03  0.00000000000E+00 0.  1.
         25    2    1    2    0    0 -0.11183756516E+02  0.70371776327E+02 -0.34153471469E+03  0.37063499187E+03  0.12508825904E+03 0.  0.
         23    2    1    2    0    0  0.11183756516E+02 -0.70371776327E+02  0.61466618315E+02  0.13069471957E+03  0.90695651733E+02 0.  0.
          5    1    3    3  502    0  0.40352324857E+02 -0.15263766750E+02 -0.11907220156E+03  0.12671603797E+03  0.41800000000E+01 0. -1.
         -5    1    3    3    0  502 -0.51536081374E+02  0.85635543077E+02 -0.22246251313E+03  0.24391895390E+03  0.41800000000E+01 0. -1.
        -11    1    4    4    0    0  0.48564839684E+02 -0.37530281854E+02  0.16323968494E+02  0.63510138222E+02  0.00000000000E+00 0.  1.
         11    1    4    4    0    0 -0.37381083168E+02 -0.32841494473E+02  0.45142649821E+02  0.67184581348E+02  0.00000000000E+00 0. -1.
</event>
<event>
 8    1  0.6627806E-009  0.2045014E+03  0.7561462E-02  0.1145996E+00
          2   -1    0    0  501    0  0.00000000000E+00  0.00000000000E+00  0.14791678902E+03  0.14791678902E+03  0.00000000000E+00 0.  1.
         -2   -1    0    0    0  501 -0.00000000000E+00 -0.00000000000E+00 -0.37184457859E+03  0.37184457859E+03  0.00000000000E+00 0. -1.
         25    2    1    2    0    0  0.18477170661E+03 -0.60768349084E+01 -0.22115082369E+03  0.31421667167E+03  0.12508764309E+03 0.  0.
         23    2    1    2    0    0 -0.18477170661E+03  0.60768349084E+01 -0.27769658839E+01  0.20554469594E+03  0.89796430912E+02 0.  0.
          5    1    3    3  502    0 -0.13571954591E+02  0.17533311083E+02 -0.14729520892E+02  0.26945243266E+02  0.41800000000E+01 0. -1.
         -5    1    3    3    0  502  0.19834366120E+03 -0.23610145991E+02 -0.20642130280E+03  0.28727142841E+03  0.41800000000E+01 0. -1.
        -11    1    4    4    0    0 -0.97228728788E+02  0.16044116010E+02 -0.44418041850E+02  0.10809163613E+03  0.00000000000E+00 0.  1.
         11    1    4    4    0    0 -0.87542977819E+02 -0.99672811012E+01  0.41641075966E+02  0.97453059807E+02  0.00000000000E+00 0. -1.
</event>
<event>
 8    1  0.6627806E-009  0.9485767E+02  0.7561462E-02  0.1291497E+00
          2   -1    0    0  501    0  0.00000000000E+00  0.00000000000E+00  0.29728197239E+03  0.29728197239E+03  0.00000000000E+00 0. -1.
         -2   -1    0    0    0  501 -0.00000000000E+00 -0.00000000000E+00 -0.91405219652E+02  0.91405219652E+02  0.00000000000E+00 0.  1.
         25    2    1    2    0    0 -0.98062173843E-01 -0.55731188749E+02  0.23988581845E+03  0.27622168149E+03  0.12508891404E+03 0.  0.
         23    2    1    2    0    0  0.98062173843E-01  0.55731188749E+02 -0.34009065714E+02  0.11246551055E+03  0.91574557039E+02 0.  0.
          5    1    3    3  502    0  0.39954041371E+02  0.17279634641E+02  0.38523511888E+02  0.58279023356E+02  0.41800000000E+01 0. -1.
         -5    1    3    3    0  502 -0.40052103545E+02 -0.73010823390E+02  0.20136230656E+03  0.21794265813E+03  0.41800000000E+01 0. -1.
        -11    1    4    4    0    0  0.12560358798E+02  0.12931431691E+02 -0.58770210914E+02  0.61472939003E+02  0.00000000000E+00 0.  1.
         11    1    4    4    0    0 -0.12462296624E+02  0.42799757058E+02  0.24761145200E+02  0.50992571547E+02  0.00000000000E+00 0. -1.
</event>
<event>
 8    1  0.6627806E-009  0.1522283E+03  0.7561462E-02  0.1197761E+00
          2   -1    0    0  501    0  0.00000000000E+00  0.00000000000E+00  0.99500438445E+03  0.99500438445E+03  0.00000000000E+00 0. -1.
         -2   -1    0    0    0  501 -0.00000000000E+00 -0.00000000000E+00 -0.29831579039E+02  0.29831579039E+02  0.00000000000E+00 0.  1.
         25    2    1    2    0    0  0.69396363675E+00 -0.13183905789E+03  0.56676977389E+03  0.59519603637E+03  0.12509327061E+03 0.  0.
         23    2    1    2    0    0 -0.69396363675E+00  0.13183905789E+03  0.39840303153E+03  0.42963992712E+03  0.92105768952E+02 0.  0.
          5    1    3    3  502    0 -0.29229629749E+02 -0.88233917639E+02  0.50619547923E+03  0.51467555903E+03  0.41800000000E+01 0.  1.
         -5    1    3    3    0  502  0.29923593385E+02 -0.43605140250E+02  0.60574294660E+02  0.80520477339E+02  0.41800000000E+01 0.  1.
        -11    1    4    4    0    0 -0.43949444764E+02  0.57750047963E+02  0.14574289707E+03  0.16281158982E+03  0.00000000000E+00 0.  1.
         11    1    4    4    0    0  0.43255481128E+02  0.74089009926E+02  0.25266013446E+03  0.26682833729E+03  0.00000000000E+00 0. -1.
</event>
<event>
 8    1  0.6627806E-009  0.1123273E+03  0.7561462E-02  0.1256320E+00
         -2   -1    0    0    0  501 -0.00000000000E+00  0.00000000000E+00  0.14912889666E+02  0.14912889666E+02  0.00000000000E+00 0.  1.
          2   -1    0    0  501    0  0.00000000000E+00 -0.00000000000E+00 -0.10549243877E+04  0.10549243877E+04  0.00000000000E+00 0. -1.
         25    2    1    2    0    0  0.28355538887E+02 -0.26520213352E+02 -0.79381045490E+03  0.80454269286E+03  0.12508616245E+03 0.  0.
         23    2    1    2    0    0 -0.28355538887E+02  0.26520213352E+02 -0.24620104313E+03  0.26529458449E+03  0.90878515734E+02 0.  0.
          5    1    3    3  502    0  0.12347357464E+02  0.50475054224E+02 -0.33079631324E+03  0.33487887600E+03  0.41800000000E+01 0. -1.
         -5    1    3    3    0  502  0.16008181423E+02 -0.76995267576E+02 -0.46301414165E+03  0.46966381686E+03  0.41800000000E+01 0. -1.
        -11    1    4    4    0    0 -0.50964367027E+02 -0.89139905192E+01 -0.17624514163E+03  0.18368226883E+03  0.00000000000E+00 0. -1.
         11    1    4    4    0    0  0.22608828140E+02  0.35434203871E+02 -0.69955901500E+02  0.81612315666E+02  0.00000000000E+00 0.  1.
</event>
<event>
 8    1  0.6627806E-009  0.1283763E+03  0.7561462E-02  0.1229885E+00
          1   -1    0    0  501    0  0.00000000000E+00  0.00000000000E+00  0.47682008780E+03  0.47682008780E+03  0.00000000000E+00 0. -1.
         -1   -1    0    0    0  501 -0.00000000000E+00 -0.00000000000E+00 -0.38825823952E+02  0.38825823952E+02  0.00000000000E+00 0.  1.
         25    2    1    2    0    0 -0.16783719570E+02  0.80008496284E+02  0.23466389080E+03  0.27820295080E+03  0.12508671979E+03 0.  0.
         23    2    1    2    0    0  0.16783719570E+02 -0.80008496284E+02  0.20333037305E+03  0.23744296096E+03  0.91394017217E+02 0.  0.
          5    1    3    3  502    0 -0.40163188827E+02  0.10459404022E+03  0.20140674802E+03  0.23051061913E+03  0.41800000000E+01 0.  1.
         -5    1    3    3    0  502  0.23379469258E+02 -0.24585543938E+02  0.33257142784E+02  0.47692331665E+02  0.41800000000E+01 0.  1.
        -11    1    4    4    0    0 -0.26148914346E+02 -0.93472396044E+01  0.14550290637E+02  0.31350399795E+02  0.00000000000E+00 0.  1.
         11    1    4    4    0    0  0.42932633915E+02 -0.70661256680E+02  0.18878008241E+03  0.20609256116E+03  0.00000000000E+00 0. -1.
</event>
<event>
 8    1  0.6627806E-009  0.1079231E+03  0.7561462E-02  0.1264465E+00
          1   -1    0    0  501    0  0.00000000000E+00  0.00000000000E+00  0.26249428460E+03  0.26249428460E+03  0.00000000000E+00 0. -1.
         -1   -1    0    0    0  501 -0.00000000000E+00 -0.00000000000E+00 -0.71962513898E+02  0.71962513898E+02  0.00000000000E+00 0.  1.
         25    2    1    2    0    0  0.64344905931E+02  0.38483042002E+02  0.57091654621E+02  0.15661293429E+03  0.12508774008E+03 0.  0.
         23    2    1    2    0    0 -0.64344905931E+02 -0.38483042002E+02  0.13344011608E+03  0.17784386421E+03  0.90559174120E+02 0.  0.
          5    1    3    3  502    0  0.73219374587E+02 -0.53936312680E+01  0.77851968256E+02  0.10709140691E+03  0.41800000000E+01 0. -1.
         -5    1    3    3    0  502 -0.88744686567E+01  0.43876673270E+02 -0.20760313634E+02  0.49521527373E+02  0.41800000000E+01 0. -1.
        -11    1    4    4    0    0 -0.31961495973E+02  0.14623872588E+02  0.10252650049E+03  0.10838393874E+03  0.00000000000E+00 0. -1.
         11    1    4    4    0    0 -0.32383409957E+02 -0.53106914591E+02  0.30913615593E+02  0.69459925474E+02  0.00000000000E+00 0.  1.
</event>
<event>
 8    1  0.6627806E-009  0.1864937E+03  0.7561462E-02  0.1161662E+00
         -1   -1    0    0    0  501 -0.00000000000E+00  0.00000000000E+00  0.12336016729E+03  0.12336016729E+03  0.00000000000E+00 0. -1.
          1   -1    0    0  501    0  0.00000000000E+00 -0.00000000000E+00 -0.31835384801E+03  0.31835384801E+03  0.00000000000E+00 0.  1.
         25    2    1    2    0    0  0.33082522327E+02 -0.16236552842E+03 -0.99008495537E+02  0.23001607727E+03  0.12509074911E+03 0.  0.
         23    2    1    2    0    0 -0.33082522327E+02  0.16236552842E+03 -0.95985185190E+02  0.21169793803E+03  0.90254324478E+02 0.  0.
          5    1    3    3  502    0 -0.30925586867E+02 -0.36877513999E+02 -0.71710250448E+02  0.86464879467E+02  0.41800000000E+01 0. -1.
         -5    1    3    3    0  502  0.64008109194E+02 -0.12548801442E+03 -0.27298245089E+02  0.14355119781E+03  0.41800000000E+01 0. -1.
        -11    1    4    4    0    0 -0.32198622762E+02  0.13559259194E+02 -0.59928257593E+00  0.34942294676E+02  0.00000000000E+00 0. -1.
         11    1    4    4    0    0 -0.88389956572E+00  0.14880626923E+03 -0.95385902614E+02  0.17675564335E+03  0.00000000000E+00 0.  1.
</event>
<event>
 8    1  0.6627806E-009  0.1449664E+03  0.7561462E-02  0.1206798E+00
          2   -1    0    0  501    0  0.00000000000E+00  0.00000000000E+00  0.45910545752E+03  0.45910545752E+03  0.00000000000E+00 0.  1.
         -2   -1    0    0    0  501 -0.00000000000E+00 -0.00000000000E+00 -0.69879107577E+02  0.69879107577E+02  0.00000000000E+00 0. -1.
         25    2    1    2    0    0 -0.80349522788E+02 -0.10949403335E+03  0.14308159001E+03  0.23359004697E+03  0.12508788708E+03 0.  0.
         23    2    1    2    0    0  0.80349522788E+02  0.10949403335E+03  0.24614475993E+03  0.29539451813E+03  0.90695586151E+02 0.  0.
          5    1    3    3  502    0 -0.47735930200E+02 -0.98254474898E+01 -0.80676214612E+01  0.49576379118E+02  0.41800000000E+01 0.  1.
         -5    1    3    3    0  502 -0.32613592588E+02 -0.99668585855E+02  0.15114921148E+03  0.18401366786E+03  0.41800000000E+01 0.  1.
        -11    1    4    4    0    0  0.49830338981E+02  0.60986670793E+02  0.21751119553E+03  0.23132997401E+03  0.00000000000E+00 0.  1.
         11    1    4    4    0    0  0.30519183807E+02  0.48507362552E+02  0.28633564405E+02  0.64064544114E+02  0.00000000000E+00 0. -1.
</event>
<event>
 8    1  0.6627806E-009  0.1281844E+03  0.7561462E-02  0.1230175E+00
          2   -1    0    0  501    0  0.00000000000E+00  0.00000000000E+00  0.96045174257E+03  0.96045174257E+03  0.00000000000E+00 0. -1.
         -2   -1    0    0    0  501 -0.00000000000E+00 -0.00000000000E+00 -0.30217170842E+02  0.30217170842E+02  0.00000000000E+00 0.  1.
         25    2    1    2    0    0 -0.26915680153E+02  0.11345910938E+03  0.67300501781E+03  0.69439163311E+03  0.12508622144E+03 0.  0.
         23    2    1    2    0    0  0.26915680153E+02 -0.11345910938E+03  0.25722955392E+03  0.29627728031E+03  0.89530777261E+02 0.  0.
          5    1    3    3  502    0 -0.49256172696E+00  0.37304085133E+02  0.35079388723E+02  0.51379697331E+02  0.41800000000E+01 0. -1.
         -5    1    3    3    0  502 -0.26423118426E+02  0.76155024245E+02  0.63792562909E+03  0.64301193578E+03  0.41800000000E+01 0. -1.
        -11    1    4    4    0    0 -0.23398136193E+02 -0.61421375740E+02  0.17386142849E+03  0.18587053153E+03  0.00000000000E+00 0.  1.
         11    1    4    4    0    0  0.50313816347E+02 -0.52037733637E+02  0.83368125435E+02  0.11040674878E+03  0.00000000000E+00 0. -1.
</event>
<event>
 8    1  0.6627806E-009  0.1021324E+03  0.7561462E-02  0.1275875E+00
         -2   -1    0    0    0  501 -0.00000000000E+00  0.00000000000E+00  0.25926324070E+02  0.25926324070E+02  0.00000000000E+00 0.  1.
          2   -1    0    0  501    0  0.00000000000E+00 -0.00000000000E+00 -0.54922228485E+03  0.54922228485E+03  0.00000000000E+00 0. -1.
         25    2    1    2    0    0 -0.32309055486E+02  0.26796077046E+02 -0.35738776416E+03  0.38096514715E+03  0.12508606859E+03 0.  0.
         23    2    1    2    0    0  0.32309055486E+02 -0.26796077046E+02 -0.16590819661E+03  0.19418346177E+03  0.91759371784E+02 0.  0.
          5    1    3    3  502    0 -0.45779112820E+02 -0.24536104228E+02 -0.29216515937E+03  0.29677550494E+03  0.41800000000E+01 0.  1.
         -5    1    3    3    0  502  0.13470057334E+02  0.51332181274E+02 -0.65222604790E+02  0.84189642204E+02  0.41800000000E+01 0.  1.
        -11    1    4    4    0    0 -0.23830410436E+02  0.15678539078E+02 -0.31785301032E+02  0.42708434892E+02  0.00000000000E+00 0. -1.
         11    1    4    4    0    0  0.56139465922E+02 -0.42474616124E+02 -0.13412289558E+03  0.15147502688E+03  0.00000000000E+00 0.  1.
</event>
<event>
 8    1  0.6627806E-009  0.1141783E+03  0.7561462E-02  0.1253022E+00
         -1   -1    0    0    0  501 -0.00000000000E+00  0.00000000000E+00  0.22638152885E+02  0.22638152885E+02  0.00000000000E+00 0.  1.
          1   -1    0    0  501    0  0.00000000000E+00 -0.00000000000E+00 -0.69437811011E+03  0.69437811011E+03  0.00000000000E+00 0. -1.
         25    2    1    2    0    0  0.72976389223E+02 -0.36053663645E+01 -0.45592841284E+03  0.47838981068E+03  0.12509013260E+03 0.  0.
         23    2    1    2    0    0 -0.72976389223E+02  0.36053663645E+01 -0.21581154438E+03  0.23862645231E+03  0.70918326297E+02 0.  0.
          5    1    3    3  502    0  0.69264411916E+02  0.53415943274E+02 -0.27692024918E+03  0.29043608343E+03  0.41800000000E+01 0. -1.
         -5    1    3    3    0  502  0.37119773064E+01 -0.57021309638E+02 -0.17900816366E+03  0.18795372725E+03  0.41800000000E+01 0. -1.
        -11    1    4    4    0    0 -0.14505368980E+01  0.11447164406E+02 -0.43348495900E+00  0.11546841102E+02  0.00000000000E+00 0.  1.
         11    1    4    4    0    0 -0.71525852325E+02 -0.78417980414E+01 -0.21537805942E+03  0.22707961121E+03  0.00000000000E+00 0. -1.
</event>
<event>
 7    1  0.6627806E-009  0.1817706E+03  0.7561462E-02  0.1166100E+00
          2   -1    0    0  501    0  0.00000000000E+00  0.00000000000E+00  0.10252161137E+04  0.10252161137E+04  0.00000000000E+00 0. -1.
         -2   -1    0    0    0  501 -0.00000000000E+00 -0.00000000000E+00 -0.41231767662E+02  0.41231767662E+02  0.00000000000E+00 0.  1.
         23    2    1    2    0    0 -0.89389260027E+02 -0.14084375315E+03  0.59881593431E+03  0.62833359191E+03  0.91625198099E+02 0.  0.
          5    1    1    2  502    0  0.80041846593E+02  0.15705583864E+03  0.27770850288E+03  0.32895701638E+03  0.41800000000E+01 0.  1.
         -5    1    1    2    0  502  0.93474134335E+01 -0.16212085492E+02  0.10745990885E+03  0.10915727307E+03  0.41800000000E+01 0.  1.
        -11    1    3    3    0    0 -0.11185177461E+02 -0.32868664741E+02  0.36286180361E+02  0.50220953813E+02  0.00000000000E+00 0.  1.
         11    1    3    3    0    0 -0.78204082566E+02 -0.10797508841E+03  0.56252975395E+03  0.57811263809E+03  0.00000000000E+00 0. -1.
</event>
<event>
 7    1  0.6627806E-009  0.7722944E+02  0.7561462E-02  0.1337103E+00
         -2   -1    0    0    0  501 -0.00000000000E+00  0.00000000000E+00  0.32587858869E+03  0.32587858869E+03  0.00000000000E+00 0.  1.
          2   -1    0    0  501    0  0.00000000000E+00 -0.00000000000E+00 -0.42937141815E+02  0.42937141815E+02  0.00000000000E+00 0. -1.
         25    2    1    2    0    0  0.46856798708E+01  0.50220300369E+02  0.25936556217E+03  0.29233830242E+03  0.12508858484E+03 0.  0.
          5    1    3    3  502    0  0.34024333172E+02  0.55638579896E+02  0.54000163618E+02  0.84774977980E+02  0.41800000000E+01 0. -1.
         -5    1    3    3    0  502 -0.29338653301E+02 -0.54182795273E+01  0.20536539855E+03  0.20756332444E+03  0.41800000000E+01 0. -1.
        -11    1    1    2    0    0 -0.15904932235E+02 -0.42456582806E+02  0.36101951579E+02  0.57955838367E+02  0.00000000000E+00 0.  1.
         11    1    1    2    0    0  0.11219252364E+02 -0.77637175625E+01 -0.12526066880E+02  0.18521589712E+02  0.00000000000E+00 0. -1.
</event>
<event>
 8    1  0.6627806E-009  0.1360529E+03  0.7561462E-02  0.1218741E+00
         -2   -1    0    0    0  501 -0.00000000000E+00  0.00000000000E+00  0.15530763552E+02  0.15530763552E+02  0.00000000000E+00 0.  1.
          2   -1    0    0  501    0  0.00000000000E+00 -0.00000000000E+00 -0.23972388217E+04  0.23972388217E+04  0.00000000000E+00 0. -1.
         25    2    1    2    0    0  0.66991568870E+02  0.10282295406E+03 -0.18926252204E+04  0.19007205069E+04  0.12509112742E+03 0.  0.
         23    2    1    2    0    0 -0.66991568870E+02 -0.10282295406E+03 -0.48908283773E+03  0.51204907836E+03  0.89060688920E+02 0.  0.
          5    1    3    3  502    0  0.53103361492E+02  0.54347131722E+02 -0.39631401166E+03  0.40355401865E+03  0.41800000000E+01 0.  1.
         -5    1    3    3    0  502  0.13888207379E+02  0.48475822334E+02 -0.14963112087E+04  0.14971664882E+04  0.41800000000E+01 0.  1.
        -11    1    4    4    0    0 -0.13546771906E+02 -0.89242101354E+02 -0.36948335608E+03  0.38034933694E+03  0.00000000000E+00 0. -1.
         11    1    4    4    0    0 -0.53444796964E+02 -0.13580852701E+02 -0.11959948164E+03  0.13169974143E+03  0.00000000000E+00 0.  1.
</event>
<event>
 8    1  0.6627806E-009  0.8129802E+02  0.7561462E-02  0.1325408E+00
          2   -1    0    0  501    0  0.00000000000E+00  0.00000000000E+00  0.27423845354E+03  0.27423845354E+03  0.00000000000E+00 0. -1.
         -2   -1    0    0    0  501 -0.00000000000E+00 -0.00000000000E+00 -0.71772970652E+02  0.71772970652E+02  0.00000000000E+00 0.  1.
         25    2    1    2    0    0  0.11113081905E+02  0.24280865776E+02  0.62391448792E+01  0.12806152374E+03  0.12509103046E+03 0.  0.
         23    2    1    2    0    0 -0.11113081905E+02 -0.24280865776E+02  0.19622633801E+03  0.21794990045E+03  0.91018252807E+02 0.  0.
          5    1    3    3  502    0  0.35095974839E+02  0.39174343258E+02 -0.45042681079E+02  0.69373425304E+02  0.41800000000E+01 0.  1.
         -5    1    3    3    0  502 -0.23982892934E+02 -0.14893477482E+02  0.51281825958E+02  0.58688098441E+02  0.41800000000E+01 0.  1.
        -11    1    4    4    0    0  0.15581560160E+02 -0.44924282377E+02  0.54800980957E+02  0.72554280907E+02  0.00000000000E+00 0.  1.
         11    1    4    4    0    0 -0.26694642065E+02  0.20643416601E+02  0.14142535705E+03  0.14539561954E+03  0.00000000000E+00 0. -1.
</event>
<event>
 8    1  0.6627806E-009  0.1338543E+03  0.7561462E-02  0.1221846E+00
          1   -1    0    0  501    0  0.00000000000E+00  0.00000000000E+00  0.53002792179E+03  0.53002792179E+03  0.00000000000E+00 0. -1.
         -1   -1    0    0    0  501 -0.00000000000E+00 -0.00000000000E+00 -0.48456287963E+02  0.48456287963E+02  0.00000000000E+00 0.  1.
         25    2    1    2    0    0 -0.86287101577E+02  0.80935960431E+02  0.26631173663E+03  0.31711965573E+03  0.12508733507E+03 0.  0.
         23    2    1    2    0    0  0.86287101577E+02 -0.80935960431E+02  0.21525989720E+03  0.26136455402E+03  0.89322523298E+02 0.  0.
          5    1    3    3  502    0 -0.24011749589E+02  0.35926369419E+02  0.38205348823E+01  0.43581383925E+02  0.41800000000E+01 0. -1.
         -5    1    3    3    0  502 -0.62275351987E+02  0.45009591011E+02  0.26249120175E+03  0.27353827181E+03  0.41800000000E+01 0. -1.
        -11    1    4    4    0    0  0.87614032525E+02 -0.24614074146E+02  0.14658981516E+03  0.17254172032E+03  0.00000000000E+00 0. -1.
         11    1    4    4    0    0 -0.13269309481E+01 -0.56321886284E+02  0.68670082038E+02  0.88822833706E+02  0.00000000000E+00 0.  1.
</event>
<event>
 8    1  0.6627806E-009  0.9054482E+02  0.7561462E-02  0.1301538E+00
         -2   -1    0    0    0  501 -0.00000000000E+00  0.00000000000E+00  0.17847254849E+03  0.17847254849E+03  0.00000000000E+00 0.  1.
          2   -1    0    0  501    0  0.00000000000E+00 -0.00000000000E+00 -0.83808582470E+02  0.83808582470E+02  0.00000000000E+00 0. -1.
         25    2    1    2    0    0  0.27681073961E+01  0.26697042455E+02  0.10433695958E+03  0.16508721359E+03  0.12508873835E+03 0.  0.
         23    2    1    2    0    0 -0.27681073961E+01 -0.26697042455E+02 -0.96729935542E+01  0.97193917378E+02  0.92912304226E+02 0.  0.
          5    1    3    3  502    0  0.52475253295E+02  0.29311620801E+02  0.13995596958E+02  0.61856062408E+02  0.41800000000E+01 0.  1.
         -5    1    3    3    0  502 -0.49707145899E+02 -0.26145783464E+01  0.90341362621E+02  0.10323115118E+03  0.41800000000E+01 0.  1.
        -11    1    4    4    0    0 -0.25535632426E+02 -0.37751926857E+02  0.26745037644E+02  0.52844806210E+02  0.00000000000E+00 0.  1.
         11    1    4    4    0    0  0.22767525030E+02  0.11054884402E+02 -0.36418031198E+02  0.44349111169E+02  0.00000000000E+00 0. -1.
</event>
<event>
 8    1  0.6627806E-009  0.1473762E+03  0.7561462E-02  0.1203735E+00
          2   -1    0    0  501    0  0.00000000000E+00  0.00000000000E+00  0.12726319203E+04  0.12726319203E+04  0.00000000000E+00 0. -1.
         -2   -1    0    0    0  501 -0.00000000000E+00 -0.00000000000E+00 -0.23136765250E+02  0.23136765250E+02  0.00000000000E+00 0.  1.
         25    2    1    2    0    0  0.83856332367E+01 -0.13230197223E+03  0.67003549941E+03  0.69438370787E+03  0.12508809932E+03 0.  0.
         23    2    1    2    0    0 -0.83856332367E+01  0.13230197223E+03  0.57945965566E+03  0.60138497770E+03  0.91193575227E+02 0.  0.
          5    1    3    3  502    0 -0.96464853770E+01 -0.97819341140E+02  0.63267077825E+03  0.64027452256E+03  0.41800000000E+01 0. -1.
         -5    1    3    3    0  502  0.18032118614E+02 -0.34482631085E+02  0.37364721152E+02  0.54109185311E+02  0.41800000000E+01 0. -1.
        -11    1    4    4    0    0  0.21079959015E+02  0.12514871946E+03  0.40860123222E+03  0.42785690789E+03  0.00000000000E+00 0.  1.
         11    1    4    4    0    0 -0.29465592252E+02  0.71532527666E+01  0.17085842344E+03  0.17352806981E+03  0.00000000000E+00 0. -1.
</event>
<event>
 8    1  0.6627806E-009  0.2250545E+03  0.7561462E-02  0.1130170E+00
          2   -1    0    0  501    0  0.00000000000E+00  0.00000000000E+00  0.10874450249E+04  0.10874450249E+04  0.00000000000E+00 0. -1.
         -2   -1    0    0    0  501 -0.00000000000E+00 -0.00000000000E+00 -0.60832668895E+02  0.60832668895E+02  0.00000000000E+00 0.  1.
         25    2    1    2    0    0 -0.18520348855E+03 -0.85401341413E+02  0.77870291664E+03  0.81462871274E+03  0.12509191002E+03 0.  0.
         23    2    1    2    0    0  0.18520348855E+03  0.85401341413E+02  0.24790943937E+03  0.33364898106E+03  0.90933113602E+02 0.  0.
          5    1    3    3  502    0 -0.10120819185E+03  0.15904984524E+02  0.42558944145E+03  0.43776696049E+03  0.41800000000E+01 0. -1.
         -5    1    3    3    0  502 -0.83995296691E+02 -0.10130632594E+03  0.35311347519E+03  0.37686175224E+03  0.41800000000E+01 0. -1.
        -11    1    4    4    0    0  0.15739092590E+03  0.39554560185E+02  0.14509181575E+03  0.21768808370E+03  0.00000000000E+00 0.  1.
         11    1    4    4    0    0  0.27812562647E+02  0.45846781228E+02  0.10281762362E+03  0.11596089736E+03  0.00000000000E+00 0. -1.
</event>
<event>
 8    1  0.6627806E-009  0.9358772E+02  0.7561462E-02  0.1294389E+00
         -2   -1    0    0    0  501 -0.00000000000E+00  0.00000000000E+00  0.82928646105E+02  0.82928646105E+02  0.00000000000E+00 0.  1.
          2   -1    0    0  501    0  0.00000000000E+00 -0.00000000000E+00 -0.21442356823E+03  0.21442356823E+03  0.00000000000E+00 0. -1.
         25    2    1    2    0    0 -0.25486658445E+02  0.36773817976E+02 -0.14006186529E+03  0.19303854926E+03  0.12507866303E+03 0.  0.
         23    2    1    2    0    0  0.25486658445E+02 -0.36773817976E+02  0.85669431632E+01  0.10431366507E+03  0.93840634903E+02 0.  0.
          5    1    3    3  502    0 -0.51932868313E+02  0.15680399091E+02 -0.14830497331E+03  0.15797067841E+03  0.41800000000E+01 0. -1.
         -5    1    3    3    0  502  0.26446209868E+02  0.21093418886E+02  0.82431080207E+01  0.35067870858E+02  0.41800000000E+01 0. -1.
        -11    1    4    4    0    0 -0.21068248255E+02 -0.46563299394E+02 -0.11979908979E+02  0.52493143877E+02  0.00000000000E+00 0.  1.
         11    1    4    4    0    0  0.46554906700E+02  0.97894814175E+01  0.20546852142E+02  0.51820521198E+02  0.00000000000E+00 0. -1.
</event>
<event>
 8    1  0.6627806E-009  0.1707444E+03  0.7561462E-02  0.1177074E+00
         -2   -1    0    0    0  501 -0.00000000000E+00  0.00000000000E+00  0.11234183118E+03  0.11234183118E+03  0.00000000000E+00 0.  1.
          2   -1    0    0  501    0  0.00000000000E+00 -0.00000000000E+00 -0.37970920000E+03  0.37970920000E+03  0.00000000000E+00 0. -1.
         25    2    1    2    0    0 -0.72440339427E+02  0.14284535280E+03 -0.22704017582E+03  0.30470737643E+03  0.12508775409E+03 0.  0.
         23    2    1    2    0    0  0.72440339427E+02 -0.14284535280E+03 -0.40327193002E+02  0.18734365474E+03  0.88424910993E+02 0.  0.
          5    1    3    3  502    0 -0.72937810786E+02  0.82132490130E+02 -0.56417703587E+02  0.12355605957E+03  0.41800000000E+01 0. -1.
         -5    1    3    3    0  502  0.49747135856E+00  0.60712862669E+02 -0.17062247224E+03  0.18115131687E+03  0.41800000000E+01 0. -1.
        -11    1    4    4    0    0  0.26642380001E+02 -0.11286907014E+03  0.52891413807E+01  0.11609142269E+03  0.00000000000E+00 0.  1.
         11    1    4    4    0    0  0.45797959427E+02 -0.29976282662E+02 -0.45616334382E+02  0.71252232052E+02  0.00000000000E+00 0. -1.
</event>
<event>
 8    1  0.6627806E-009  0.9264996E+02  0.7561462E-02  0.1296558E+00
         -1   -1    0    0    0  501 -0.00000000000E+00  0.00000000000E+00  0.20783433305E+02  0.20783433305E+02  0.00000000000E+00 0.  1.
          1   -1    0    0  501    0  0.00000000000E+00 -0.00000000000E+00 -0.10576663492E+04  0.10576663492E+04  0.00000000000E+00 0. -1.
         25    2    1    2    0    0  0.58655056903E+01 -0.44855287223E+02 -0.88478187449E+03  0.89472490536E+03  0.12508912783E+03 0.  0.
         23    2    1    2    0    0 -0.58655056903E+01  0.44855287223E+02 -0.15210104141E+03  0.18372487714E+03  0.92594291051E+02 0.  0.
          5    1    3    3  502    0 -0.35492868608E+02 -0.63279467834E+02 -0.72397092022E+03  0.72760937356E+03  0.41800000000E+01 0. -1.
         -5    1    3    3    0  502  0.41358374299E+02  0.18424180611E+02 -0.16081095427E+03  0.16711553180E+03  0.41800000000E+01 0. -1.
        -11    1    4    4    0    0  0.40937874239E+01  0.53688717673E+02 -0.15960531758E+03  0.16844315035E+03  0.00000000000E+00 0. -1.
         11    1    4    4    0    0 -0.99592931142E+01 -0.88334304496E+01  0.75042761726E+01  0.15281726791E+02  0.00000000000E+00 0.  1.
</event>
<event>
 8    1  0.6627806E-009  0.2015612E+03  0.7561462E-02  0.1148428E+00
          1   -1    0    0  501    0  0.00000000000E+00  0.00000000000E+00  0.76332073577E+02  0.76332073577E+02  0.00000000000E+00 0. -1.
         -1   -1    0    0    0  501 -0.00000000000E+00 -0.00000000000E+00 -0.63558152518E+03  0.63558152518E+03  0.00000000000E+00 0.  1.
         25    2    1    2    0    0  0.14785097791E+03  0.11544311670E+03 -0.22796860070E+03  0.32063172475E+03  0.12509194678E+03 0.  0.
         23    2    1    2    0    0 -0.14785097791E+03 -0.11544311670E+03 -0.33128085090E+03  0.39128187400E+03  0.90374099645E+02 0.  0.
          5    1    3    3  502    0  0.11101281372E+03  0.50319050757E+02 -0.58349159029E+02  0.13519596310E+03  0.41800000000E+01 0. -1.
         -5    1    3    3    0  502  0.36838164194E+02  0.65124065942E+02 -0.16961944167E+03  0.18543576165E+03  0.41800000000E+01 0. -1.
        -11    1    4    4    0    0 -0.80531824763E+02 -0.10030950196E+02 -0.10466522086E+03  0.13244169744E+03  0.00000000000E+00 0.  1.
         11    1    4    4    0    0 -0.67319153151E+02 -0.10541216650E+03 -0.22661563003E+03  0.25884017656E+03  0.00000000000E+00 0. -1.
</event>
<event>
 8    1  0.6627806E-009  0.1234742E+03  0.7561462E-02  0.1237473E+00
          1   -1    0    0  501    0  0.00000000000E+00  0.00000000000E+00  0.14235394880E+03  0.14235394880E+03  0.00000000000E+00 0. -1.
         -1   -1    0    0    0  501 -0.00000000000E+00 -0.00000000000E+00 -0.16837353391E+03  0.16837353391E+03  0.00000000000E+00 0.  1.
         25    2    1    2    0    0 -0.59184623739E+02  0.85948753570E+02  0.18453956426E+02  0.16394670296E+03  0.12509182617E+03 0.  0.
         23    2    1    2    0    0  0.59184623739E+02 -0.85948753570E+02 -0.44473541537E+02  0.14678077974E+03  0.93148770674E+02 0.  0.
          5    1    3    3  502    0  0.22443262907E+02  0.87666672133E+00 -0.28886372200E+02  0.36828840510E+02  0.41800000000E+01 0. -1.
         -5    1    3    3    0  502 -0.81627886645E+02  0.85072086848E+02  0.47340328626E+02  0.12711786245E+03  0.41800000000E+01 0. -1.
        -11    1    4    4    0    0  0.38700144683E+02 -0.39181803786E+02  0.25068286485E+02  0.60508957466E+02  0.00000000000E+00 0. -1.
         11    1    4    4    0    0  0.20484479056E+02 -0.46766949784E+02 -0.69541828023E+02  0.86271822277E+02  0.00000000000E+00 0.  1.
</event>
<event>
 8    1  0.6627806E-009  0.1359561E+03  0.7561462E-02  0.1218876E+00
          1   -1    0    0  501    0  0.00000000000E+00  0.00000000000E+00  0.99435848894E+03  0.99435848894E+03  0.00000000000E+00 0. -1.
         -1   -1    0    0    0  501 -0.00000000000E+00 -0.00000000000E+00 -0.21623059731E+02  0.21623059731E+02  0.00000000000E+00 0.  1.
         25    2    1    2    0    0 -0.64172158020E+02  0.68905632450E+02  0.67470716096E+03  0.69263555125E+03  0.12509277260E+03 0.  0.
         23    2    1    2    0    0  0.64172158020E+02 -0.68905632450E+02  0.29802826825E+03  0.32334599742E+03  0.82859720763E+02 0.  0.
          5    1    3    3  502    0 -0.87635634474E+02  0.13653325082E+02  0.50085034029E+03  0.50865995860E+03  0.41800000000E+01 0. -1.
         -5    1    3    3    0  502  0.23463476454E+02  0.55252307368E+02  0.17385682067E+03  0.18397559265E+03  0.41800000000E+01 0. -1.
        -11    1    4    4    0    0  0.16165980202E+02 -0.72998620676E+02  0.21123341073E+03  0.22407519127E+03  0.00000000000E+00 0.  1.
         11    1    4    4    0    0  0.48006177818E+02  0.40929882257E+01  0.86794857524E+02  0.99270806151E+02  0.00000000000E+00 0. -1.
</event>
<event>
 8    1  0.6627806E-009  0.1457740E+03  0.7561462E-02  0.1205764E+00
         -3   -1    0    0    0  501 -0.00000000000E+00  0.00000000000E+00  0.11603015328E+03  0.11603015328E+03  0.00000000000E+00 0.  1.
          3   -1    0    0  501    0  0.00000000000E+00 -0.00000000000E+00 -0.30564225079E+03  0.30564225079E+03  0.00000000000E+00 0. -1.
         25    2    1    2    0    0 -0.31759284595E+02  0.11773194170E+03  0.59271956516E+01  0.17479206356E+03  0.12509065345E+03 0.  0.
         23    2    1    2    0    0  0.31759284595E+02 -0.11773194170E+03 -0.19553929317E+03  0.24688034051E+03  0.88571017292E+02 0.  0.
          5    1    3    3  502    0 -0.35490211305E+02 -0.13510544087E+02  0.19206758702E+02  0.42760517769E+02  0.41800000000E+01 0.  1.
         -5    1    3    3    0  502  0.37309267105E+01  0.13124248578E+03 -0.13279563051E+02  0.13203154579E+03  0.41800000000E+01 0.  1.
        -11    1    4    4    0    0  0.22867855660E+02 -0.89973313233E+02 -0.65501752510E+02  0.11361608820E+03  0.00000000000E+00 0.  1.
         11    1    4    4    0    0  0.88914289345E+01 -0.27758628464E+02 -0.13003754066E+03  0.13326425231E+03  0.00000000000E+00 0. -1.
</event>
<event>
 8    1  0.6627806E-009  0.1123231E+03  0.7561462E-02  0.1256327E+00
          4   -1    0    0  501    0  0.00000000000E+00  0.00000000000E+00  0.15320745313E+03  0.15320745313E+03  0.00000000000E+00 0. -1.
         -4   -1    0    0    0  501 -0.00000000000E+00 -0.00000000000E+00 -0.97127434533E+02  0.97127434533E+02  0.00000000000E+00 0.  1.
         25    2    1    2    0    0  0.48922243794E+02 -0.22599617342E+01  0.61339886045E+02  0.14767660525E+03  0.12508918720E+03 0.  0.
         23    2    1    2    0    0 -0.48922243794E+02  0.22599617342E+01 -0.52598674461E+01  0.10265828241E+03  0.90069769499E+02 0.  0.
          5    1    3    3  502    0  0.25532476056E+02  0.56150637006E+02  0.57614068236E+02  0.84508311002E+02  0.41800000000E+01 0. -1.
         -5    1    3    3    0  502  0.23389767738E+02 -0.58410598740E+02  0.37258178090E+01  0.63168294249E+02  0.41800000000E+01 0. -1.
        -11    1    4    4    0    0  0.22774464888E+02 -0.13333432623E+02 -0.11972057512E+02  0.28979075856E+02  0.00000000000E+00 0.  1.
         11    1    4    4    0    0 -0.71696708682E+02  0.15593394357E+02  0.67121900658E+01  0.73679206557E+02  0.00000000000E+00 0. -1.
</event>
<event>
 8    1  0.6627806E-009  0.1276555E+03  0.7561462E-02  0.1230977E+00
          3   -1    0    0  501    0  0.00000000000E+00  0.00000000000E+00  0.40472825159E+02  0.40472825159E+02  0.00000000000E+00 0. -1.
         -3   -1    0    0    0  501 -0.00000000000E+00 -0.00000000000E+00 -0.51826908177E+03  0.51826908177E+03  0.00000000000E+00 0.  1.
         25    2    1    2    0    0 -0.88034507202E+02 -0.29429483502E+01 -0.33434620842E+03  0.36768704415E+03  0.12509052703E+03 0.  0.
         23    2    1    2    0    0  0.88034507202E+02  0.29429483502E+01 -0.14345004819E+03  0.19105486278E+03  0.90362098584E+02 0.  0.
          5    1    3    3  502    0 -0.10793461047E+03  0.30779462494E+01 -0.16640608349E+03  0.19841323271E+03  0.41800000000E+01 0.  1.
         -5    1    3    3    0  502  0.19900103266E+02 -0.60208945995E+01 -0.16794012492E+03  0.16927381145E+03  0.41800000000E+01 0.  1.
        -11    1    4    4    0    0  0.10631347588E+03  0.92330487637E+01 -0.12464780001E+03  0.16408802025E+03  0.00000000000E+00 0.  1.
         11    1    4    4    0    0 -0.18278968675E+02 -0.62901004135E+01 -0.18802248181E+02  0.26966842524E+02  0.00000000000E+00 0. -1.
</event>
<event>
 8    1  0.6627806E-009  0.1054186E+03  0.7561462E-02  0.1269297E+00
         -3   -1    0    0    0  501 -0.00000000000E+00  0.00000000000E+00  0.39787122665E+03  0.39787122665E+03  0.00000000000E+00 0.  1.
          3   -1    0    0  501    0  0.00000000000E+00 -0.00000000000E+00 -0.29895515100E+02  0.29895515100E+02  0.00000000000E+00 0. -1.
         25    2    1    2    0    0  0.17795457553E+02 -0.11850494477E+02  0.22124495882E+03  0.25505317861E+03  0.12508269099E+03 0.  0.
         23    2    1    2    0    0 -0.17795457553E+02  0.11850494477E+02  0.14673075272E+03  0.17271356314E+03  0.88560423257E+02 0.  0.
          5    1    3    3  502    0 -0.75290868790E+01 -0.64629824427E+02  0.14372190550E+03  0.15782002369E+03  0.41800000000E+01 0. -1.
         -5    1    3    3    0  502  0.25324544432E+02  0.52779329950E+02  0.77523053320E+02  0.97233154925E+02  0.41800000000E+01 0. -1.
        -11    1    4    4    0    0 -0.49492372090E+02 -0.71271148664E+01  0.57877029161E+02  0.76485561814E+02  0.00000000000E+00 0.  1.
         11    1    4    4    0    0  0.31696914537E+02  0.18977609344E+02  0.88853723562E+02  0.96228001322E+02  0.00000000000E+00 0. -1.
</event>
<event>
 8    1  0.6627806E-009  0.2012828E+03  0.7561462E-02  0.1148661E+00
         -3   -1    0    0    0  501 -0.00000000000E+00  0.00000000000E+00  0.20457727131E+03  0.20457727131E+03  0.00000000000E+00 0.  1.
          3   -1    0    0  501    0  0.00000000000E+00 -0.00000000000E+00 -0.23945094677E+03  0.23945094677E+03  0.00000000000E+00 0. -1.
         25    2    1    2    0    0 -0.12919746525E+03 -0.13411492709E+03 -0.69483883209E+02  0.23485115068E+03  0.12509298244E+03 0.  0.
         23    2    1    2    0    0  0.12919746525E+03  0.13411492709E+03  0.34610207749E+02  0.20917706740E+03  0.88760240810E+02 0.  0.
          5    1    3    3  502    0 -0.35479003050E+02 -0.10383410443E+03 -0.79790679763E+02  0.13573616275E+03  0.41800000000E+01 0. -1.
         -5    1    3    3    0  502 -0.93718462198E+02 -0.30280822660E+02  0.10306796554E+02  0.99114987933E+02  0.41800000000E+01 0. -1.
        -11    1    4    4    0    0  0.84868795677E+02  0.12128958101E+03 -0.53548088490E+01  0.14813017559E+03  0.00000000000E+00 0. -1.
         11    1    4    4    0    0  0.44328669571E+02  0.12825346083E+02  0.39965016598E+02  0.61046891810E+02  0.00000000000E+00 0.  1.
</event>
<event>
 8    1  0.6627806E-009  0.2255524E+03  0.7561462E-02  0.1129810E+00
         -4   -1    0    0    0  501 -0.00000000000E+00  0.00000000000E+00  0.80071634946E+02  0.80071634946E+02  0.00000000000E+00 0.  1.
          4   -1    0    0  501    0  0.00000000000E+00 -0.00000000000E+00 -0.66756332051E+03  0.66756332051E+03  0.00000000000E+00 0. -1.
         25    2    1    2    0    0  0.19059072438E+03  0.75321280216E+02 -0.31021062879E+03  0.39227098013E+03  0.12509103953E+03 0.  0.
         23    2    1    2    0    0 -0.19059072438E+03 -0.75321280216E+02 -0.27728105677E+03  0.35536397532E+03  0.86027036660E+02 0.  0.
          5    1    3    3  502    0  0.13818493550E+03  0.10982592089E+01 -0.12702496476E+03  0.18774742779E+03  0.41800000000E+01 0. -1.
         -5    1    3    3    0  502  0.52405788882E+02  0.74223021007E+02 -0.18318566403E+03  0.20452355234E+03  0.41800000000E+01 0. -1.
        -11    1    4    4    0    0 -0.44557077707E+02 -0.60465759289E+02 -0.10359085377E+03  0.12795509448E+03  0.00000000000E+00 0.  1.
         11    1    4    4    0    0 -0.14603364667E+03 -0.14855520927E+02 -0.17369020301E+03  0.22740888084E+03  0.00000000000E+00 0. -1.
</event>
<event>
 8    1  0.6627806E-009  0.1666680E+03  0.7561462E-02  0.1181368E+00
          1   -1    0    0  501    0  0.00000000000E+00  0.00000000000E+00  0.10824283966E+04  0.10824283966E+04  0.00000000000E+00 0. -1.
         -1   -1    0    0    0  501 -0.00000000000E+00 -0.00000000000E+00 -0.40541328286E+02  0.40541328286E+02  0.00000000000E+00 0.  1.
         25    2    1    2    0    0 -0.12207129007E+03 -0.93564037935E+02  0.78844544945E+03  0.81298713725E+03  0.12508488929E+03 0.  0.
         23    2    1    2    0    0  0.12207129007E+03  0.93564037935E+02  0.25344161889E+03  0.30998258765E+03  0.90558938882E+02 0.  0.
          5    1    3    3  502    0  0.36912972776E+01 -0.37621538543E+02  0.38113221960E+03  0.38302512588E+03  0.41800000000E+01 0. -1.
         -5    1    3    3    0  502 -0.12576258735E+03 -0.55942499393E+02  0.40731322985E+03  0.42996201137E+03  0.41800000000E+01 0. -1.
        -11    1    4    4    0    0  0.38587925692E+02  0.50810094496E+02  0.36196271363E+02  0.73354371189E+02  0.00000000000E+00 0.  1.
         11    1    4    4    0    0  0.83483364377E+02  0.42753943439E+02  0.21724534752E+03  0.23662821647E+03  0.00000000000E+00 0. -1.
</event>
<event>
 8    1  0.6627806E-009  0.2408389E+03  0.7561462E-02  0.1119235E+00
          2   -1    0    0  501    0  0.00000000000E+00  0.00000000000E+00  0.64412902010E+02  0.64412902010E+02  0.00000000000E+00 0. -1.
         -2   -1    0    0    0  501 -0.00000000000E+00 -0.00000000000E+00 -0.10453054016E+04  0.10453054016E+04  0.00000000000E+00 0.  1.
         25    2    1    2    0    0  0.40080067470E+02  0.23154021590E+03 -0.55117554142E+03  0.61209396109E+03  0.12508899375E+03 0.  0.
         23    2    1    2    0    0 -0.40080067470E+02 -0.23154021590E+03 -0.42971695815E+03  0.49762434250E+03  0.88068375372E+02 0.  0.
          5    1    3    3  502    0 -0.89208455411E+01  0.14089989186E+02  0.36767649473E+00  0.17196420163E+02  0.41800000000E+01 0.  1.
         -5    1    3    3    0  502  0.49000913011E+02  0.21745022671E+03 -0.55154321791E+03  0.59489754092E+03  0.41800000000E+01 0.  1.
        -11    1    4    4    0    0 -0.39775636037E+02 -0.74081342375E+02 -0.89870210307E+02  0.12307234137E+03  0.00000000000E+00 0.  1.
         11    1    4    4    0    0 -0.30443143356E+00 -0.15745887352E+03 -0.33984674784E+03  0.37455200113E+03  0.00000000000E+00 0. -1.
</event>
<event>
 8    1  0.6627806E-009  0.1661375E+03  0.7561462E-02  0.1181937E+00
         -2   -1    0    0    0  501 -0.00000000000E+00  0.00000000000E+00  0.13418539997E+03  0.13418539997E+03  0.00000000000E+00 0.  1.
          2   -1    0    0  501    0  0.00000000000E+00 -0.00000000000E+00 -0.21628197733E+03  0.21628197733E+03  0.00000000000E+00 0. -1.
         25    2    1    2    0    0 -0.13156126307E+02 -0.12597861374E+03 -0.74548262998E+02  0.19300208128E+03  0.12509462451E+03 0.  0.
         23    2    1    2    0    0  0.13156126307E+02  0.12597861374E+03 -0.75483143564E+01  0.15746529603E+03  0.93245094366E+02 0.  0.
          5    1    3    3  502    0 -0.51945388050E+02 -0.73775353081E+01 -0.29047259058E+02  0.60116279207E+02  0.41800000000E+01 0.  1.
         -5    1    3    3    0  502  0.38789261743E+02 -0.11860107843E+03 -0.45501003939E+02  0.13288580207E+03  0.41800000000E+01 0.  1.
        -11    1    4    4    0    0 -0.10300547417E+02 -0.11433509912E+02  0.77465679896E+01  0.17228921661E+02  0.00000000000E+00 0. -1.
         11    1    4    4    0    0  0.23456673724E+02  0.13741212365E+03 -0.15294882346E+02  0.14023637436E+03  0.00000000000E+00 0.  1.
</event>
<event>
 8    1  0.6627806E-009  0.1883578E+03  0.7561462E-02  0.1159951E+00
         -2   -1    0    0    0  501 -0.00000000000E+00  0.00000000000E+00  0.92931756450E+02  0.92931756450E+02  0.00000000000E+00 0.  1.
          2   -1    0    0  501    0  0.00000000000E+00 -0.00000000000E+00 -0.43063725258E+03  0.43063725258E+03  0.00000000000E+00 0. -1.
         25    2    1    2    0    0 -0.60042665513E+02 -0.15634355303E+03 -0.16009220873E+03  0.26329701788E+03  0.12508947227E+03 0.  0.
         23    2    1    2    0    0  0.60042665513E+02  0.15634355303E+03 -0.17761328740E+03  0.26027199115E+03  0.90258524575E+02 0.  0.
          5    1    3    3  502    0 -0.19537119942E+02  0.88888985165E+01 -0.64509573204E+02  0.68115115851E+02  0.41800000000E+01 0. -1.
         -5    1    3    3    0  502 -0.40505545571E+02 -0.16523245155E+03 -0.95582635528E+02  0.19518190203E+03  0.41800000000E+01 0. -1.
        -11    1    4    4    0    0  0.16532170192E+02 -0.52321415448E+01 -0.16017879716E+01  0.17414180460E+02  0.00000000000E+00 0.  1.
         11    1    4    4    0    0  0.43510495322E+02  0.16157569458E+03 -0.17601149943E+03  0.24285781069E+03  0.00000000000E+00 0. -1.
</event>
<event>
 8    1  0.6627806E-009  0.1317933E+03  0.7561462E-02  0.1224819E+00
         -2   -1    0    0    0  501 -0.00000000000E+00  0.00000000000E+00  0.74009803010E+02  0.74009803010E+02  0.00000000000E+00 0.  1.
          2   -1    0    0  501    0  0.00000000000E+00 -0.00000000000E+00 -0.27317435681E+03  0.27317435681E+03  0.00000000000E+00 0. -1.
         25    2    1    2    0    0  0.81788392229E+02 -0.86792130476E+01 -0.15395235090E+03  0.21474236153E+03  0.12509310790E+03 0.  0.
         23    2    1    2    0    0 -0.81788392229E+02  0.86792130476E+01 -0.45212202903E+02  0.13244179829E+03  0.93445260991E+02 0.  0.
          5    1    3    3  502    0  0.67811541871E+02 -0.57031636282E+02 -0.13343390775E+03  0.16022825245E+03  0.41800000000E+01 0. -1.
         -5    1    3    3    0  502  0.13976850358E+02  0.48352423234E+02 -0.20518443150E+02  0.54514109072E+02  0.41800000000E+01 0. -1.
        -11    1    4    4    0    0 -0.10124695683E+03 -0.36994590889E+01 -0.34650023645E+02  0.10707593756E+03  0.00000000000E+00 0. -1.
         11    1    4    4    0    0  0.19458564603E+02  0.12378672137E+02 -0.10562179258E+02  0.25365860737E+02  0.00000000000E+00 0.  1.
</event>
<event>
 8    1  0.6627806E-009  0.1428277E+03  0.7561462E-02  0.1209574E+00
          2   -1    0    0  501    0  0.00000000000E+00  0.00000000000E+00  0.48196483675E+03  0.48196483675E+03  0.00000000000E+00 0. -1.
         -2   -1    0    0    0  501 -0.00000000000E+00 -0.00000000000E+00 -0.72669687123E+02  0.72669687123E+02  0.00000000000E+00 0.  1.
         25    2    1    2    0    0 -0.48524204592E+01  0.96889521403E+02  0.38942003331E+03  0.42036470311E+03  0.12508955166E+03 0.  0.
         23    2    1    2    0    0  0.48524204592E+01 -0.96889521403E+02  0.19875116320E+02  0.13426982077E+03  0.90676563554E+02 0.  0.
          5    1    3    3  502    0 -0.32915362608E+02 -0.18495971161E+02  0.71484572788E+02  0.80950840585E+02  0.41800000000E+01 0.  1.
         -5    1    3    3    0  502  0.28062942148E+02  0.11538549256E+03  0.31793546052E+03  0.33941386252E+03  0.41800000000E+01 0.  1.
        -11    1    4    4    0    0 -0.30346090933E+02 -0.87212998675E+02  0.28728089794E+02  0.96707267131E+02  0.00000000000E+00 0.  1.
         11    1    4    4    0    0  0.35198511392E+02 -0.96765227280E+01 -0.88529734733E+01  0.37562553636E+02  0.00000000000E+00 0. -1.
</event>
<event>
 8    1  0.6627806E-009  0.1119826E+03  0.7561462E-02  0.1256942E+00
         -2   -1    0    0    0  501 -0.00000000000E+00  0.00000000000E+00  0.13627899517E+03  0.13627899517E+03  0.00000000000E+00 0.  1.
          2   -1    0    0  501    0  0.00000000000E+00 -0.00000000000E+00 -0.10417759866E+03  0.10417759866E+03  0.00000000000E+00 0. -1.
         25    2    1    2    0    0 -0.44530086238E+02  0.26255385074E+02  0.12939101845E+02  0.13597228845E+03  0.12509504004E+03 0.  0.
         23    2    1    2    0    0  0.44530086238E+02 -0.26255385074E+02  0.19162294666E+02  0.10448430539E+03  0.88755296799E+02 0.  0.
          5    1    3    3  502    0 -0.40452288909E+02 -0.41871150182E+02  0.29815539439E+02  0.65544028618E+02  0.41800000000E+01 0. -1.
         -5    1    3    3    0  502 -0.40777973297E+01  0.68126535256E+02 -0.16876437593E+02  0.70428259831E+02  0.41800000000E+01 0. -1.
        -11    1    4    4    0    0  0.42751491252E+02 -0.54304471246E+02  0.28656129914E+02  0.74818710115E+02  0.00000000000E+00 0.  1.
         11    1    4    4    0    0  0.17785949863E+01  0.28049086172E+02 -0.94938352481E+01  0.29665595274E+02  0.00000000000E+00 0. -1.
</event>
<event>
 8    1  0.6627806E-009  0.9566693E+02  0.7561462E-02  0.1289681E+00
         -2   -1    0    0    0  501 -0.00000000000E+00  0.00000000000E+00  0.19515460800E+03  0.19515460800E+03  0.00000000000E+00 0.  1.
          2   -1    0    0  501    0  0.00000000000E+00 -0.00000000000E+00 -0.64629180897E+02  0.64629180897E+02  0.00000000000E+00 0. -1.
         25    2    1    2    0    0  0.71947981316E+01  0.70200032284E+01  0.85598404924E+02  0.15189508290E+03  0.12507591182E+03 0.  0.
         23    2    1    2    0    0 -0.71947981316E+01 -0.70200032284E+01  0.44927022179E+02  0.10788870600E+03  0.97572998285E+02 0.  0.
          5    1    3    3  502    0 -0.85220704848E+01 -0.43553825602E+02 -0.70170802686E+01  0.45125084215E+02  0.41800000000E+01 0.  1.
         -5    1    3    3    0  502  0.15716868616E+02  0.50573828830E+02  0.92615485192E+02  0.10676999868E+03  0.41800000000E+01 0.  1.
        -11    1    4    4    0    0 -0.46077663732E+02  0.15603268261E+02  0.72007528681E+01  0.49177880366E+02  0.00000000000E+00 0. -1.
         11    1    4    4    0    0  0.38882865601E+02 -0.22623271489E+02  0.37726269311E+02  0.58710825631E+02  0.00000000000E+00 0.  1.
</event>
<event>
 8    1  0.6627806E-009  0.1757598E+03  0.7561462E-02  0.1171971E+00
         -2   -1    0    0    0  501 -0.00000000000E+00  0.00000000000E+00  0.37885440267E+02  0.37885440267E+02  0.00000000000E+00 0.  1.
          2   -1    0    0  501    0  0.00000000000E+00 -0.00000000000E+00 -0.83946879856E+03  0.83946879856E+03  0.00000000000E+00 0. -1.
         25    2    1    2    0    0  0.77019123305E+02  0.11406565159E+03 -0.48794860959E+03  0.52219206086E+03  0.12509110518E+03 0.  0.
         23    2    1    2    0    0 -0.77019123305E+02 -0.11406565159E+03 -0.31363474870E+03  0.35516217797E+03  0.93970733937E+02 0.  0.
          5    1    3    3  502    0  0.11415130309E+02  0.11895884803E+03 -0.33228670937E+03  0.35314790435E+03  0.41800000000E+01 0. -1.
         -5    1    3    3    0  502  0.65603992996E+02 -0.48931964389E+01 -0.15566190023E+03  0.16904415651E+03  0.41800000000E+01 0. -1.
        -11    1    4    4    0    0 -0.34242802823E+01  0.16117343444E+02 -0.41372803827E+02  0.44533171363E+02  0.00000000000E+00 0.  1.
         11    1    4    4    0    0 -0.73594843023E+02 -0.13018299504E+03 -0.27226194488E+03  0.31062900661E+03  0.00000000000E+00 0. -1.
</event>
<event>
 8    1  0.6627806E-009  0.7413831E+02  0.7561462E-02  0.1346560E+00
         -2   -1    0    0    0  501 -0.00000000000E+00  0.00000000000E+00  0.32933802764E+03  0.32933802764E+03  0.00000000000E+00 0.  1.
          2   -1    0    0  501    0  0.00000000000E+00 -0.00000000000E+00 -0.47681966629E+02  0.47681966629E+02  0.00000000000E+00 0. -1.
         25    2    1    2    0    0 -0.11385621662E+02  0.15573304800E+02  0.25218988548E+03  0.28216841413E+03  0.12508843029E+03 0.  0.
         23    2    1    2    0    0  0.11385621662E+02 -0.15573304800E+02  0.29466175530E+02  0.94851580137E+02  0.88070463556E+02 0.  0.
          5    1    3    3  502    0  0.35175869801E+02  0.21587091872E+02  0.21520572288E+02  0.46732769909E+02  0.41800000000E+01 0.  1.
         -5    1    3    3    0  502 -0.46561491464E+02 -0.60137870720E+01  0.23066931319E+03  0.23543564422E+03  0.41800000000E+01 0.  1.
        -11    1    4    4    0    0 -0.73733251765E+01  0.18969516326E+02 -0.22079329635E+02  0.30028407732E+02  0.00000000000E+00 0. -1.
         11    1    4    4    0    0  0.18758946839E+02 -0.34542821126E+02  0.51545505165E+02  0.64823172405E+02  0.00000000000E+00 0.  1.
</event>
<event>
 8    1  0.6627806E-009  0.1380983E+03  0.7561462E-02  0.1215911E+00
         -1   -1    0    0    0  501 -0.00000000000E+00  0.00000000000E+00  0.68651138639E+03  0.68651138639E+03  0.00000000000E+00 0.  1.
          1   -1    0    0  501    0  0.00000000000E+00 -0.00000000000E+00 -0.33680169321E+02  0.33680169321E+02  0.00000000000E+00 0. -1.
         25    2    1    2    0    0  0.84309337586E+02  0.53180347621E+02  0.43892018815E+03  0.46715544488E+03  0.12508822620E+03 0.  0.
         23    2    1    2    0    0 -0.84309337586E+02 -0.53180347621E+02  0.21391102892E+03  0.25303611084E+03  0.91285986421E+02 0.  0.
          5    1    3    3  502    0  0.91118839110E+02  0.78383427822E+02  0.26217623166E+03  0.28844488805E+03  0.41800000000E+01 0. -1.
         -5    1    3    3    0  502 -0.68095015236E+01 -0.25203080201E+02  0.17674395650E+03  0.17871055682E+03  0.41800000000E+01 0. -1.
        -11    1    4    4    0    0 -0.88432835550E+02 -0.69615312557E+02  0.20507023920E+03  0.23392404997E+03  0.00000000000E+00 0.  1.
         11    1    4    4    0    0  0.41234979640E+01  0.16434964936E+02  0.88407897146E+01  0.19112060869E+02  0.00000000000E+00 0. -1.
</event>
<event>
 8    1  0.6627806E-009  0.1671145E+03  0.7561462E-02  0.1180891E+00
          2   -1    0    0  501    0  0.00000000000E+00  0.00000000000E+00  0.52534249321E+03  0.52534249321E+03  0.00000000000E+00 0. -1.
         -2   -1    0    0    0  501 -0.00000000000E+00 -0.00000000000E+00 -0.64025450012E+02  0.64025450012E+02  0.00000000000E+00 0.  1.
         25    2    1    2    0    0  0.13529947843E+03 -0.50526771506E+02  0.29003173070E+03  0.34730547627E+03  0.12507511954E+03 0.  0.
         23    2    1    2    0    0 -0.13529947843E+03  0.50526771506E+02  0.17128531250E+03  0.24206246696E+03  0.91633378906E+02 0.  0.
          5    1    3    3  502    0  0.91741802637E+02 -0.90640209714E+02  0.17026743971E+03  0.21363679317E+03  0.41800000000E+01 0. -1.
         -5    1    3    3    0  502  0.43557675794E+02  0.40113438209E+02  0.11976429099E+03  0.13366868310E+03  0.41800000000E+01 0. -1.
        -11    1    4    4    0    0 -0.40558327151E+02  0.25259385199E+02  0.12463120250E+03  0.13347640645E+03  0.00000000000E+00 0. -1.
         11    1    4    4    0    0 -0.94741151280E+02  0.25267386306E+02  0.46654109993E+02  0.10858606050E+03  0.00000000000E+00 0.  1.
</event>
<event>
 8    1  0.6627806E-009  0.1974450E+03  0.7561462E-02  0.1151913E+00
         -1   -1    0    0    0  501 -0.00000000000E+00  0.00000000000E+00  0.95071669860E+03  0.95071669860E+03  0.00000000000E+00 0.  1.
          1   -1    0    0  501    0  0.00000000000E+00 -0.00000000000E+00 -0.47348839894E+02  0.47348839894E+02  0.00000000000E+00 0. -1.
         25    2    1    2    0    0  0.34710649371E+02  0.17719026824E+03  0.41424564346E+03  0.46888531445E+03  0.12511100928E+03 0.  0.
         23    2    1    2    0    0 -0.34710649371E+02 -0.17719026824E+03  0.48912221525E+03  0.52918022404E+03  0.90498329978E+02 0.  0.
          5    1    3    3  502    0  0.28293408080E+02  0.18446361580E+03  0.29450915314E+03  0.34868389149E+03  0.41800000000E+01 0.  1.
         -5    1    3    3    0  502  0.64172412906E+01 -0.72733475580E+01  0.11973649031E+03  0.12020142297E+03  0.41800000000E+01 0.  1.
        -11    1    4    4    0    0  0.23349847507E+02 -0.89464233560E+02  0.17521769883E+03  0.19811690097E+03  0.00000000000E+00 0. -1.
         11    1    4    4    0    0 -0.58060496878E+02 -0.87726034684E+02  0.31390451642E+03  0.33106332308E+03  0.00000000000E+00 0.  1.
</event>
<event>
 8    1  0.6627806E-009  0.8979803E+02  0.7561462E-02  0.1303342E+00
         -1   -1    0    0    0  501 -0.00000000000E+00  0.00000000000E+00  0.46289962169E+02  0.46289962169E+02  0.00000000000E+00 0.  1.
          1   -1    0    0  501    0  0.00000000000E+00 -0.00000000000E+00 -0.28405554112E+03  0.28405554112E+03  0.00000000000E+00 0. -1.
         25    2    1    2    0    0  0.21272701378E+02  0.26679074603E+02 -0.15908697772E+03  0.20523743412E+03  0.12509770997E+03 0.  0.
         23    2    1    2    0    0 -0.21272701378E+02 -0.26679074603E+02 -0.78678601235E+02  0.12510806917E+03  0.91090097344E+02 0.  0.
          5    1    3    3  502    0 -0.27167611358E+02  0.56977887387E+02 -0.45189522553E+02  0.77743965082E+02  0.41800000000E+01 0. -1.
         -5    1    3    3    0  502  0.48440312736E+02 -0.30298812785E+02 -0.11389745516E+03  0.12749346904E+03  0.41800000000E+01 0. -1.
        -11    1    4    4    0    0  0.15701161661E+02 -0.78948453196E+01 -0.81659521962E+02  0.83529231932E+02  0.00000000000E+00 0. -1.
         11    1    4    4    0    0 -0.36973863040E+02 -0.18784229283E+02  0.29809207273E+01  0.41578837240E+02  0.00000000000E+00 0.  1.
</event>
<event>
 8    1  0.6627806E-009  0.2126286E+03  0.7561462E-02  0.1139501E+00
          2   -1    0    0  501    0  0.00000000000E+00  0.00000000000E+00  0.14489212411E+04  0.14489212411E+04  0.00000000000E+00 0. -1.
         -2   -1    0    0    0  501 -0.00000000000E+00 -0.00000000000E+00 -0.35273921384E+02  0.35273921384E+02  0.00000000000E+00 0.  1.
         25    2    1    2    0    0 -0.72314761238E+02 -0.18164286319E+03  0.73468827385E+03  0.77047881587E+03  0.12508873461E+03 0.  0.
         23    2    1    2    0    0  0.72314761238E+02  0.18164286319E+03  0.67895904582E+03  0.71371634657E+03  0.10090630814E+03 0.  0.
          5    1    3    3  502    0 -0.10178621442E+03 -0.99599851086E+02  0.50696825653E+03  0.52660692106E+03  0.41800000000E+01 0. -1.
         -5    1    3    3    0  502  0.29471453180E+02 -0.82043012100E+02  0.22772001732E+03  0.24387189481E+03  0.41800000000E+01 0. -1.
        -11    1    4    4    0    0  0.30200604725E+02  0.76940990402E+02  0.46018736328E+03  0.46755149647E+03  0.00000000000E+00 0.  1.
         11    1    4    4    0    0  0.42114156513E+02  0.10470187278E+03  0.21877168254E+03  0.24616485010E+03  0.00000000000E+00 0. -1.
</event>
<event>
 7    1  0.6627806E-009  0.8447047E+02  0.7561462E-02  0.1316823E+00
          3   -1    0    0  501    0  0.00000000000E+00  0.00000000000E+00  0.11583969389E+03  0.11583969389E+03  0.00000000000E+00 0. -1.
         -3   -1    0    0    0  501 -0.00000000000E+00 -0.00000000000E+00 -0.14084223547E+03  0.14084223547E+03  0.00000000000E+00 0.  1.
         23    2    1    2    0    0  0.73158675046E+02  0.12071449515E+02  0.46718544085E+01  0.10796133311E+03  0.78332059813E+02 0.  0.
          5    1    1    2  502    0 -0.11817673763E+02  0.19970388623E+02 -0.66258556389E+02  0.70328817206E+02  0.41800000000E+01 0.  1.
         -5    1    1    2    0  502 -0.61341001282E+02 -0.32041838138E+02  0.36584160398E+02  0.78391779044E+02  0.41800000000E+01 0.  1.
        -11    1    3    3    0    0  0.57334770274E+02  0.16383996152E+02  0.38074960407E+02  0.70748949266E+02  0.00000000000E+00 0. -1.
         11    1    3    3    0    0  0.15823904772E+02 -0.43125466372E+01 -0.33403105998E+02  0.37212383840E+02  0.00000000000E+00 0.  1.
</event>
<event>
 8    1  0.6627806E-009  0.5155071E+02  0.7561462E-02  0.1437152E+00
          1   -1    0    0  501    0  0.00000000000E+00  0.00000000000E+00  0.12303987037E+03  0.12303987037E+03  0.00000000000E+00 0. -1.
         -1   -1    0    0    0  501 -0.00000000000E+00 -0.00000000000E+00 -0.98650650163E+02  0.98650650163E+02  0.00000000000E+00 0.  1.
         25    2    1    2    0    0  0.96128488509E+01  0.94873696870E+01  0.86928008240E+00  0.12582054545E+03  0.12509051508E+03 0.  0.
         23    2    1    2    0    0 -0.96128488509E+01 -0.94873696870E+01  0.23519940124E+02  0.95869975083E+02  0.91953507233E+02 0.  0.
          5    1    3    3  502    0 -0.18024889030E+02 -0.19062952889E+02 -0.52684775786E+02  0.59003820190E+02  0.41800000000E+01 0.  1.
         -5    1    3    3    0  502  0.27637737881E+02  0.28550322576E+02  0.53554055869E+02  0.66816725259E+02  0.41800000000E+01 0.  1.
        -11    1    4    4    0    0 -0.22161295437E+02 -0.92900722750E+01  0.56060325251E+02  0.60993348207E+02  0.00000000000E+00 0. -1.
         11    1    4    4    0    0  0.12548446587E+02 -0.19729741201E+00 -0.32540385127E+02  0.34876626876E+02  0.00000000000E+00 0.  1.
</event>
<event>
 8    1  0.6627806E-009  0.1469251E+03  0.7561462E-02  0.1204303E+00
          1   -1    0    0  501    0  0.00000000000E+00  0.00000000000E+00  0.46833246226E+03  0.46833246226E+03  0.00000000000E+00 0. -1.
         -1   -1    0    0    0  501 -0.00000000000E+00 -0.00000000000E+00 -0.58930420790E+02  0.58930420790E+02  0.00000000000E+00 0.  1.
         25    2    1    2    0    0  0.87279704277E+01  0.12518656473E+03  0.21788288599E+03  0.28083457539E+03  0.12508898140E+03 0.  0.
         23    2    1    2    0    0 -0.87279704277E+01 -0.12518656473E+03  0.19151915548E+03  0.24642830767E+03  0.91101429445E+02 0.  0.
          5    1    3    3  502    0  0.55105747653E+02  0.10190675491E+03  0.18782408714E+03  0.22071925659E+03  0.41800000000E+01 0.  1.
         -5    1    3    3    0  502 -0.46377777225E+02  0.23279809816E+02  0.30058798857E+02  0.60115318798E+02  0.41800000000E+01 0.  1.
        -11    1    4    4    0    0 -0.89204656526E+01 -0.58569535070E+02  0.20169009715E+02  0.62583976373E+02  0.00000000000E+00 0.  1.
         11    1    4    4    0    0  0.19249522492E+00 -0.66617029659E+02  0.17135014576E+03  0.18384433129E+03  0.00000000000E+00 0. -1.
</event>
<event>
 8    1  0.6627806E-009  0.8692953E+02  0.7561462E-02  0.1310462E+00
         -1   -1    0    0    0  501 -0.00000000000E+00  0.00000000000E+00  0.62789168379E+02  0.62789168379E+02  0.00000000000E+00 0.  1.
          1   -1    0    0  501    0  0.00000000000E+00 -0.00000000000E+00 -0.20888937721E+03  0.20888937721E+03  0.00000000000E+00 0. -1.
         25    2    1    2    0    0  0.14260431158E+02  0.24386625596E+02 -0.47050542411E+02  0.13660027896E+03  0.12509122777E+03 0.  0.
         23    2    1    2    0    0 -0.14260431158E+02 -0.24386625596E+02 -0.99049666417E+02  0.13507826663E+03  0.87391271261E+02 0.  0.
          5    1    3    3  502    0  0.96019727125E+01  0.58251816710E+02 -0.72637190712E+02  0.93696883110E+02  0.41800000000E+01 0. -1.
         -5    1    3    3    0  502  0.46584584455E+01 -0.33865191114E+02  0.25586648300E+02  0.42903395850E+02  0.41800000000E+01 0. -1.
        -11    1    4    4    0    0  0.30654501775E+02 -0.40169278251E+01 -0.86551353644E+01  0.32105226310E+02  0.00000000000E+00 0.  1.
         11    1    4    4    0    0 -0.44914932933E+02 -0.20369697771E+02 -0.90394531052E+02  0.10297304032E+03  0.00000000000E+00 0. -1.
</event>
<event>
 8    1  0.6627806E-009  0.8940987E+02  0.7561462E-02  0.1304287E+00
          1   -1    0    0  501    0  0.00000000000E+00  0.00000000000E+00  0.59508631012E+03  0.59508631012E+03  0.00000000000E+00 0. -1.
         -1   -1    0    0    0  501 -0.00000000000E+00 -0.00000000000E+00 -0.79019850014E+02  0.79019850014E+02  0.00000000000E+00 0.  1.
         25    2    1    2    0    0 -0.21721256999E+00 -0.26010400974E+02  0.55599810413E+03  0.57048958296E+03  0.12509150383E+03 0.  0.
         23    2    1    2    0    0  0.21721256999E+00  0.26010400974E+02 -0.39931644025E+02  0.10361657717E+03  0.92006905884E+02 0.  0.
          5    1    3    3  502    0  0.22500773072E+02 -0.63135191701E+02  0.46156771392E+03  0.46642744790E+03  0.41800000000E+01 0.  1.
         -5    1    3    3    0  502 -0.22717985642E+02  0.37124790727E+02  0.94430390206E+02  0.10406213506E+03  0.41800000000E+01 0.  1.
        -11    1    4    4    0    0 -0.21010718252E+02  0.38101230829E+02 -0.58517265998E+02  0.72920672597E+02  0.00000000000E+00 0.  1.
         11    1    4    4    0    0  0.21227930822E+02 -0.12090829855E+02  0.18585621973E+02  0.30695904575E+02  0.00000000000E+00 0. -1.
</event>
<event>
 8    1  0.6627806E-009  0.5896174E+02  0.7561462E-02  0.1402241E+00
         -1   -1    0    0    0  501 -0.00000000000E+00  0.00000000000E+00  0.20082241447E+03  0.20082241447E+03  0.00000000000E+00 0.  1.
          1   -1    0    0  501    0  0.00000000000E+00 -0.00000000000E+00 -0.11040646301E+03  0.11040646301E+03  0.00000000000E+00 0. -1.
         25    2    1    2    0    0 -0.59106642958E+01  0.51694417895E+02 -0.42242092470E+02  0.14191225286E+03  0.12508974515E+03 0.  0.
         23    2    1    2    0    0  0.59106642958E+01 -0.51694417895E+02  0.13265804393E+03  0.16931662463E+03  0.91447875648E+02 0.  0.
          5    1    3    3  502    0  0.13709608158E+01  0.16056137983E+02 -0.84427721942E+02  0.86053423714E+02  0.41800000000E+01 0.  1.
         -5    1    3    3    0  502 -0.72816251116E+01  0.35638279912E+02  0.42185629473E+02  0.55858829144E+02  0.41800000000E+01 0.  1.
        -11    1    4    4    0    0 -0.15238187268E+02 -0.33346022831E+02  0.31290482638E+01  0.36796066813E+02  0.00000000000E+00 0. -1.
         11    1    4    4    0    0  0.21148851564E+02 -0.18348395064E+02  0.12952899567E+03  0.13252055781E+03  0.00000000000E+00 0.  1.
</event>
<event>
 8    1  0.6627806E-009  0.3372552E+03  0.7561462E-02  0.1067971E+00
         -2   -1    0    0    0  501 -0.00000000000E+00  0.00000000000E+00  0.28270645329E+03  0.28270645329E+03  0.00000000000E+00 0.  1.
          2   -1    0    0  501    0  0.00000000000E+00 -0.00000000000E+00 -0.43560973969E+03  0.43560973969E+03  0.00000000000E+00 0. -1.
         25    2    1    2    0    0 -0.30341046711E+03  0.13334372863E+03 -0.11538836573E+03  0.37255924143E+03  0.12508977543E+03 0.  0.
         23    2    1    2    0    0  0.30341046711E+03 -0.13334372863E+03 -0.37514920668E+02  0.34575695154E+03  0.91115524199E+02 0.  0.
          5    1    3    3  502    0 -0.25010146659E+03  0.10065185113E+03 -0.36935800541E+02  0.27214566777E+03  0.41800000000E+01 0. -1.
         -5    1    3    3    0  502 -0.53309000521E+02  0.32691877504E+02 -0.78452565190E+02  0.10041357366E+03  0.41800000000E+01 0. -1.
        -11    1    4    4    0    0  0.31954583795E+02 -0.47979865586E+02  0.57187977929E+01  0.57929850469E+02  0.00000000000E+00 0.  1.
         11    1    4    4    0    0  0.27145588331E+03 -0.85363863043E+02 -0.43233718461E+02  0.28782710107E+03  0.00000000000E+00 0. -1.
</event>
<event>
 8    1  0.6627806E-009  0.1041957E+03  0.7561462E-02  0.1271712E+00
          3   -1    0    0  501    0  0.00000000000E+00  0.00000000000E+00  0.53895837061E+03  0.53895837061E+03  0.00000000000E+00 0. -1.
         -3   -1    0    0    0  501 -0.00000000000E+00 -0.00000000000E+00 -0.29115803873E+02  0.29115803873E+02  0.00000000000E+00 0.  1.
         25    2    1    2    0    0 -0.19719702726E+02 -0.58750036027E+02  0.32998856793E+03  0.35830220778E+03  0.12509030229E+03 0.  0.
         23    2    1    2    0    0  0.19719702726E+02  0.58750036027E+02  0.17985399880E+03  0.20977196670E+03  0.88410314553E+02 0.  0.
          5    1    3    3  502    0  0.45931275462E+02 -0.52586021510E+02  0.20975953663E+03  0.22111424045E+03  0.41800000000E+01 0.  1.
         -5    1    3    3    0  502 -0.65650978188E+02 -0.61640145168E+01  0.12022903131E+03  0.13718796733E+03  0.41800000000E+01 0.  1.
        -11    1    4    4    0    0 -0.88418025113E+01  0.32149665399E+02  0.16447600427E+03  0.16782173411E+03  0.00000000000E+00 0. -1.
         11    1    4    4    0    0  0.28561505238E+02  0.26600370628E+02  0.15377994531E+02  0.41950232595E+02  0.00000000000E+00 0.  1.
</event>
<event>
 8    1  0.6627806E-009  0.8471484E+02  0.7561462E-02  0.1316180E+00
          2   -1    0    0  501    0  0.00000000000E+00  0.00000000000E+00  0.26201496991E+03  0.26201496991E+03  0.00000000000E+00 0.  1.
         -2   -1    0    0    0  501 -0.00000000000E+00 -0.00000000000E+00 -0.63075572924E+02  0.63075572924E+02  0.00000000000E+00 0. -1.
         25    2    1    2    0    0  0.45542069515E+02  0.49686342380E+02  0.10349921159E+03  0.17579156209E+03  0.12509106198E+03 0.  0.
         23    2    1    2    0    0 -0.45542069515E+02 -0.49686342380E+02  0.95440185397E+02  0.14929898074E+03  0.92943767663E+02 0.  0.
          5    1    3    3  502    0  0.34224285252E+02 -0.11650145561E+02 -0.16903935529E+02  0.40127833595E+02  0.41800000000E+01 0.  1.
         -5    1    3    3    0  502  0.11317784262E+02  0.61336487941E+02  0.12040314712E+03  0.13566372849E+03  0.41800000000E+01 0.  1.
        -11    1    4    4    0    0 -0.28817847489E+02 -0.44496373217E+02  0.76569922220E+00  0.53018693483E+02  0.00000000000E+00 0. -1.
         11    1    4    4    0    0 -0.16724222026E+02 -0.51899691628E+01  0.94674486175E+02  0.96280287260E+02  0.00000000000E+00 0.  1.
</event>
<event>
 8    1  0.6627806E-009  0.1187302E+03  0.7561462E-02  0.1245207E+00
          1   -1    0    0  501    0  0.00000000000E+00  0.00000000000E+00  0.43089873407E+03  0.43089873407E+03  0.00000000000E+00 0. -1.
         -1   -1    0    0    0  501 -0.00000000000E+00 -0.00000000000E+00 -0.44588124546E+02  0.44588124546E+02  0.00000000000E+00 0.  1.
         25    2    1    2    0    0  0.65285705443E+01 -0.85757815020E+02  0.18654708493E+03  0.24050865216E+03  0.12509025461E+03 0.  0.
         23    2    1    2    0    0 -0.65285705443E+01  0.85757815020E+02  0.19976352460E+03  0.23497820646E+03  0.88950922879E+02 0.  0.
          5    1    3    3  502    0 -0.40456360319E+02 -0.22956863309E+02  0.14357200735E+03  0.15097724450E+03  0.41800000000E+01 0.  1.
         -5    1    3    3    0  502  0.46984930863E+02 -0.62800951710E+02  0.42975077581E+02  0.89531407657E+02  0.41800000000E+01 0.  1.
        -11    1    4    4    0    0 -0.25527132171E+02  0.89309601413E+02  0.11393345469E+03  0.14699888258E+03  0.00000000000E+00 0.  1.
         11    1    4    4    0    0  0.18998561627E+02 -0.35517863933E+01  0.85830069904E+02  0.87979323879E+02  0.00000000000E+00 0. -1.
</event>
<event>
 8    1  0.6627806E-009  0.1545434E+03  0.7561462E-02  0.1194999E+00
          1   -1    0    0  501    0  0.00000000000E+00  0.00000000000E+00  0.21171524895E+02  0.21171524895E+02  0.00000000000E+00 0. -1.
         -1   -1    0    0    0  501 -0.00000000000E+00 -0.00000000000E+00 -0.13096813657E+04  0.13096813657E+04  0.00000000000E+00 0.  1.
         25    2    1    2    0    0 -0.78957332092E+02  0.76592407982E+02 -0.44510913439E+03  0.47525917046E+03  0.12509388611E+03 0.  0.
         23    2    1    2    0    0  0.78957332092E+02 -0.76592407982E+02 -0.84340070645E+03  0.85559372016E+03  0.92818129114E+02 0.  0.
          5    1    3    3  502    0  0.25249617641E+02 -0.12067820868E+02 -0.55376123785E+02  0.62186517646E+02  0.41800000000E+01 0. -1.
         -5    1    3    3    0  502 -0.10420694973E+03  0.88660228850E+02 -0.38973301060E+03  0.41307265282E+03  0.41800000000E+01 0. -1.
        -11    1    4    4    0    0 -0.94535294351E+00 -0.62818939607E+02 -0.36065552238E+03  0.36608676388E+03  0.00000000000E+00 0. -1.
         11    1    4    4    0    0  0.79902685035E+02 -0.13773468375E+02 -0.48274518407E+03  0.48950695629E+03  0.00000000000E+00 0.  1.
</event>
<event>
 8    1  0.6627806E-009  0.8154422E+02  0.7561462E-02  0.1324725E+00
          2   -1    0    0  501    0  0.00000000000E+00  0.00000000000E+00  0.46989226649E+03  0.46989226649E+03  0.00000000000E+00 0. -1.
         -2   -1    0    0    0  501 -0.00000000000E+00 -0.00000000000E+00 -0.36542958798E+02  0.36542958798E+02  0.00000000000E+00 0.  1.
         25    2    1    2    0    0  0.41747733860E+02  0.46315296070E+02  0.16756748558E+03  0.21821228766E+03  0.12509900212E+03 0.  0.
         23    2    1    2    0    0 -0.41747733860E+02 -0.46315296070E+02  0.26578182211E+03  0.28822293762E+03  0.92436491035E+02 0.  0.
          5    1    3    3  502    0 -0.68474166078E+00  0.49483659262E+02  0.16827502648E+03  0.17545101408E+03  0.41800000000E+01 0.  1.
         -5    1    3    3    0  502  0.42432475521E+02 -0.31683631921E+01 -0.70754090257E+00  0.42761273581E+02  0.41800000000E+01 0.  1.
        -11    1    4    4    0    0 -0.29420965980E+01 -0.27293189242E+02  0.10630952742E+02  0.29437922270E+02  0.00000000000E+00 0.  1.
         11    1    4    4    0    0 -0.38805637262E+02 -0.19022106829E+02  0.25515086937E+03  0.25878501535E+03  0.00000000000E+00 0. -1.
</event>
<event>
 8    1  0.6627806E-009  0.2642292E+03  0.7561462E-02  0.1104629E+00
          2   -1    0    0  501    0  0.00000000000E+00  0.00000000000E+00  0.26795902637E+03  0.26795902637E+03  0.00000000000E+00 0. -1.
         -2   -1    0    0    0  501 -0.00000000000E+00 -0.00000000000E+00 -0.27588904058E+03  0.27588904058E+03  0.00000000000E+00 0.  1.
         25    2    1    2    0    0 -0.12269667273E+03 -0.21110372578E+03 -0.53613731816E+02  0.27953938608E+03  0.12509428282E+03 0.  0.
         23    2    1    2    0    0  0.12269667273E+03  0.21110372578E+03  0.45683717611E+02  0.26430868087E+03  0.90292968657E+02 0.  0.
          5    1    3    3  502    0 -0.85162336504E+02 -0.36206899534E+02 -0.37327490954E+02  0.99871803396E+02  0.41800000000E+01 0.  1.
         -5    1    3    3    0  502 -0.37534336229E+02 -0.17489682625E+03 -0.16286240862E+02  0.17966758269E+03  0.41800000000E+01 0.  1.
        -11    1    4    4    0    0  0.18818006347E+01  0.74533331826E+02 -0.59651343931E+01  0.74795331104E+02  0.00000000000E+00 0.  1.
         11    1    4    4    0    0  0.12081487210E+03  0.13657039396E+03  0.51648852004E+02  0.18951334976E+03  0.00000000000E+00 0. -1.
</event>
<event>
 8    1  0.6627806E-009  0.1082597E+03  0.7561462E-02  0.1263827E+00
         -2   -1    0    0    0  501 -0.00000000000E+00  0.00000000000E+00  0.19418104050E+02  0.19418104050E+02  0.00000000000E+00 0.  1.
          2   -1    0    0  501    0  0.00000000000E+00 -0.00000000000E+00 -0.64548068190E+03  0.64548068190E+03  0.00000000000E+00 0. -1.
         25    2    1    2    0    0 -0.72975668457E+01 -0.26214917802E+02 -0.34881174980E+03  0.37155889298E+03  0.12508356309E+03 0.  0.
         23    2    1    2    0    0  0.72975668457E+01  0.26214917802E+02 -0.27725082805E+03  0.29333989297E+03  0.91868355580E+02 0.  0.
          5    1    3    3  502    0  0.55858506132E+02  0.38843236247E+01 -0.12504563796E+03  0.13707350091E+03  0.41800000000E+01 0.  1.
         -5    1    3    3    0  502 -0.63156072978E+02 -0.30099241427E+02 -0.22376611184E+03  0.23448539207E+03  0.41800000000E+01 0.  1.
        -11    1    4    4    0    0  0.23321046298E+02  0.53656991436E+02 -0.12790598678E+03  0.14065164551E+03  0.00000000000E+00 0.  1.
         11    1    4    4    0    0 -0.16023479453E+02 -0.27442073633E+02 -0.14934484127E+03  0.15268824746E+03  0.00000000000E+00 0. -1.
</event>
<event>
 8    1  0.6627806E-009  0.2224505E+03  0.7561462E-02  0.1132069E+00
         -1   -1    0    0    0  501 -0.00000000000E+00  0.00000000000E+00  0.10781352481E+03  0.10781352481E+03  0.00000000000E+00 0.  1.
          1   -1    0    0  501    0  0.00000000000E+00 -0.00000000000E+00 -0.58444780896E+03  0.58444780896E+03  0.00000000000E+00 0. -1.
         25    2    1    2    0    0  0.37474229599E+02 -0.19047934981E+03 -0.40404322541E+03  0.46539262048E+03  0.12511060149E+03 0.  0.
         23    2    1    2    0    0 -0.37474229599E+02  0.19047934981E+03 -0.72591058735E+02  0.22686871329E+03  0.92267278457E+02 0.  0.
          5    1    3    3  502    0 -0.94958979865E+01 -0.18262847313E+03 -0.32843348266E+03  0.37593796856E+03  0.41800000000E+01 0.  1.
         -5    1    3    3    0  502  0.46970127586E+02 -0.78508766858E+01 -0.75609742749E+02  0.89454651912E+02  0.41800000000E+01 0.  1.
        -11    1    4    4    0    0  0.25540213657E+02  0.20057928095E+02 -0.18084938393E+02  0.37171063877E+02  0.00000000000E+00 0.  1.
         11    1    4    4    0    0 -0.63014443256E+02  0.17042142172E+03 -0.54506120343E+02  0.18969764942E+03  0.00000000000E+00 0. -1.
</event>
<event>
 8    1  0.6627806E-009  0.9463645E+02  0.7561462E-02  0.1291997E+00
          1   -1    0    0  501    0  0.00000000000E+00  0.00000000000E+00  0.28752091496E+03  0.28752091496E+03  0.00000000000E+00 0. -1.
         -1   -1    0    0    0  501 -0.00000000000E+00 -0.00000000000E+00 -0.73409466654E+02  0.73409466654E+02  0.00000000000E+00 0.  1.
         25    2    1    2    0    0  0.35811052938E+01 -0.44224776436E+02  0.10602680057E+02  0.13315189371E+03  0.12509338435E+03 0.  0.
         23    2    1    2    0    0 -0.35811052938E+01  0.44224776436E+02  0.20350876824E+03  0.22777848790E+03  0.92187665298E+02 0.  0.
          5    1    3    3  502    0  0.32523334399E+02  0.33710375462E+02 -0.83936276673E+01  0.47771142750E+02  0.41800000000E+01 0. -1.
         -5    1    3    3    0  502 -0.28942229105E+02 -0.77935151898E+02  0.18996307725E+02  0.85380750958E+02  0.41800000000E+01 0. -1.
        -11    1    4    4    0    0  0.10871917799E+02 -0.15683511763E+01 -0.62195486136E+01  0.12623038739E+02  0.00000000000E+00 0.  1.
         11    1    4    4    0    0 -0.14453023093E+02  0.45793127612E+02  0.20972831686E+03  0.21515544916E+03  0.00000000000E+00 0. -1.
</event>
<event>
 8    1  0.6627806E-009  0.1209621E+03  0.7561462E-02  0.1241518E+00
          1   -1    0    0  501    0  0.00000000000E+00  0.00000000000E+00  0.19534236560E+04  0.19534236560E+04  0.00000000000E+00 0. -1.
         -1   -1    0    0    0  501 -0.00000000000E+00 -0.00000000000E+00 -0.92870381199E+01  0.92870381199E+01  0.00000000000E+00 0.  1.
         25    2    1    2    0    0 -0.47180373385E+02 -0.39315931504E+02  0.14604333772E+04  0.14670667519E+04  0.12508986734E+03 0.  0.
         23    2    1    2    0    0  0.47180373385E+02  0.39315931504E+02  0.48370324067E+03  0.49564394230E+03  0.89007653634E+02 0.  0.
          5    1    3    3  502    0 -0.83288876352E+02 -0.53033916192E+02  0.93846352747E+03  0.94365295421E+03  0.41800000000E+01 0.  1.
         -5    1    3    3    0  502  0.36108502967E+02  0.13717984688E+02  0.52196984977E+03  0.52341379764E+03  0.41800000000E+01 0.  1.
        -11    1    4    4    0    0  0.58032455979E+02 -0.53497201217E+01  0.33388784964E+03  0.33893580748E+03  0.00000000000E+00 0. -1.
         11    1    4    4    0    0 -0.10852082594E+02  0.44665651626E+02  0.14981539103E+03  0.15670813483E+03  0.00000000000E+00 0.  1.
</event>
<event>
 8    1  0.6627806E-009  0.2230273E+03  0.7561462E-02  0.1131646E+00
         -1   -1    0    0    0  501 -0.00000000000E+00  0.00000000000E+00  0.13703020024E+03  0.13703020024E+03  0.00000000000E+00 0.  1.
          1   -1    0    0  501    0  0.00000000000E+00 -0.00000000000E+00 -0.63643172123E+03  0.63643172123E+03  0.00000000000E+00 0. -1.
         25    2    1    2    0    0  0.31935200523E+01 -0.19883910461E+03 -0.49377777969E+03  0.54681921812E+03  0.12509026138E+03 0.  0.
         23    2    1    2    0    0 -0.31935200523E+01  0.19883910461E+03 -0.56237412900E+01  0.22664270335E+03  0.10857301886E+03 0.  0.
          5    1    3    3  502    0  0.51445304847E+02 -0.11827235527E+03 -0.19694060744E+03  0.23545285020E+03  0.41800000000E+01 0.  1.
         -5    1    3    3    0  502 -0.48251784795E+02 -0.80566749340E+02 -0.29683717226E+03  0.31136636791E+03  0.41800000000E+01 0.  1.
        -11    1    4    4    0    0  0.43916354068E+02  0.14481196270E+03  0.14964822577E+02  0.15206280483E+03  0.00000000000E+00 0.  1.
         11    1    4    4    0    0 -0.47109874120E+02  0.54027141905E+02 -0.20588563867E+02  0.74579898526E+02  0.00000000000E+00 0. -1.
</event>
<event>
 8    1  0.6627806E-009  0.9541486E+02  0.7561462E-02  0.1290244E+00
         -2   -1    0    0    0  501 -0.00000000000E+00  0.00000000000E+00  0.76328891121E+02  0.76328891121E+02  0.00000000000E+00 0. -1.
          2   -1    0    0  501    0  0.00000000000E+00 -0.00000000000E+00 -0.18581999095E+03  0.18581999095E+03  0.00000000000E+00 0.  1.
         25    2    1    2    0    0  0.10763133837E+02 -0.25477985039E+02 -0.10661645328E+03  0.16666221327E+03  0.12507698609E+03 0.  0.
         23    2    1    2    0    0 -0.10763133837E+02  0.25477985039E+02 -0.28746465425E+01  0.95486668798E+02  0.91348057198E+02 0.  0.
          5    1    3    3  502    0 -0.43079862194E+02  0.43073544445E+00 -0.96704351402E+02  0.10594934658E+03  0.41800000000E+01 0. -1.
         -5    1    3    3    0  502  0.53842996031E+02 -0.25908720484E+02 -0.99121018831E+01  0.60712866696E+02  0.41800000000E+01 0. -1.
        -11    1    4    4    0    0  0.29056670299E+02 -0.13397979225E+02  0.17199396861E+02  0.36326508070E+02  0.00000000000E+00 0.  1.
         11    1    4    4    0    0 -0.39819804136E+02  0.38875964264E+02 -0.20074043404E+02  0.59160160729E+02  0.00000000000E+00 0. -1.
</event>
<event>
 8    1  0.6627806E-009  0.9285701E+02  0.7561462E-02  0.1296077E+00
          2   -1    0    0  501    0  0.00000000000E+00  0.00000000000E+00  0.35389650412E+03  0.35389650412E+03  0.00000000000E+00 0. -1.
         -2   -1    0    0    0  501 -0.00000000000E+00 -0.00000000000E+00 -0.37038264416E+02  0.37038264416E+02  0.00000000000E+00 0.  1.
         25    2    1    2    0    0  0.13723093856E+02  0.34744829154E+02  0.16983467458E+03  0.21421287366E+03  0.12509121510E+03 0.  0.
         23    2    1    2    0    0 -0.13723093856E+02 -0.34744829154E+02  0.14702356513E+03  0.17672189488E+03  0.90659654575E+02 0.  0.
          5    1    3    3  502    0 -0.33303145996E+02  0.11513704223E+02  0.15575227819E+03  0.15974326114E+03  0.41800000000E+01 0.  1.
         -5    1    3    3    0  502  0.47026239852E+02  0.23231124932E+02  0.14082396387E+02  0.54469612521E+02  0.41800000000E+01 0.  1.
        -11    1    4    4    0    0  0.35352313918E+02  0.33153549920E+01  0.45590164884E+02  0.57786164540E+02  0.00000000000E+00 0. -1.
         11    1    4    4    0    0 -0.49075407774E+02 -0.38060184146E+02  0.10143340025E+03  0.11893573034E+03  0.00000000000E+00 0.  1.
</event>
<event>
 8    1  0.6627806E-009  0.2413229E+03  0.7561462E-02  0.1118915E+00
          3   -1    0    0  501    0  0.00000000000E+00  0.00000000000E+00  0.95421533749E+02  0.95421533749E+02  0.00000000000E+00 0. -1.
         -3   -1    0    0    0  501 -0.00000000000E+00 -0.00000000000E+00 -0.76676063102E+03  0.76676063102E+03  0.00000000000E+00 0.  1.
         25    2    1    2    0    0  0.33689239801E+02  0.21684488571E+03 -0.15413127443E+03  0.29590593034E+03  0.12508877053E+03 0.  0.
         23    2    1    2    0    0 -0.33689239801E+02 -0.21684488571E+03 -0.51720782284E+03  0.56627623443E+03  0.70768441699E+02 0.  0.
          5    1    3    3  502    0  0.70097759904E+02  0.63412795565E+02 -0.51718911227E+02  0.10782948003E+03  0.41800000000E+01 0. -1.
         -5    1    3    3    0  502 -0.36408520103E+02  0.15343209014E+03 -0.10241236321E+03  0.18807645031E+03  0.41800000000E+01 0. -1.
        -11    1    4    4    0    0  0.21351075569E+02 -0.44432243088E+02 -0.99360175679E+02  0.11091680290E+03  0.00000000000E+00 0.  1.
         11    1    4    4    0    0 -0.55040315370E+02 -0.17241264262E+03 -0.41784764716E+03  0.45535943154E+03  0.00000000000E+00 0. -1.
</event>
<event>
 8    1  0.6627806E-009  0.1056170E+03  0.7561462E-02  0.1268909E+00
          1   -1    0    0  501    0  0.00000000000E+00  0.00000000000E+00  0.25182307522E+02  0.25182307522E+02  0.00000000000E+00 0. -1.
         -1   -1    0    0    0  501 -0.00000000000E+00 -0.00000000000E+00 -0.58409986801E+03  0.58409986801E+03  0.00000000000E+00 0.  1.
         25    2    1    2    0    0  0.11638463394E+02  0.14136681989E+02 -0.17577424363E+03  0.21651734070E+03  0.12509146452E+03 0.  0.
         23    2    1    2    0    0 -0.11638463394E+02 -0.14136681989E+02 -0.38314331686E+03  0.39276483482E+03  0.84440006005E+02 0.  0.
          5    1    3    3  502    0  0.66936712568E+02 -0.56677833255E+01 -0.10027356632E+03  0.12076799145E+03  0.41800000000E+01 0.  1.
         -5    1    3    3    0  502 -0.55298249174E+02  0.19804465314E+02 -0.75500677310E+02  0.95749349253E+02  0.41800000000E+01 0.  1.
        -11    1    4    4    0    0  0.31698868599E+02 -0.24991369531E+02 -0.21683996622E+03  0.22056508738E+03  0.00000000000E+00 0.  1.
         11    1    4    4    0    0 -0.43337331993E+02  0.10854687542E+02 -0.16630335064E+03  0.17219974744E+03  0.00000000000E+00 0. -1.
</event>
<event>
 8    1  0.6627806E-009  0.2317716E+03  0.7561462E-02  0.1125399E+00
          2   -1    0    0  501    0  0.00000000000E+00  0.00000000000E+00  0.15452869006E+04  0.15452869006E+04  0.00000000000E+00 0. -1.
         -2   -1    0    0    0  501 -0.00000000000E+00 -0.00000000000E+00 -0.44130750770E+02  0.44130750770E+02  0.00000000000E+00 0.  1.
         25    2    1    2    0    0 -0.28466973462E+02 -0.20310110346E+03  0.40870288672E+03  0.47407231854E+03  0.12508431873E+03 0.  0.
         23    2    1    2    0    0  0.28466973462E+02  0.20310110346E+03  0.10924532631E+04  0.11153453328E+04  0.92090458642E+02 0.  0.
          5    1    3    3  502    0 -0.45416319066E+02 -0.21455000187E+03  0.37276105257E+03  0.43250736415E+03  0.41800000000E+01 0. -1.
         -5    1    3    3    0  502  0.16949345604E+02  0.11448898403E+02  0.35941834154E+02  0.41564954390E+02  0.41800000000E+01 0. -1.
        -11    1    4    4    0    0  0.60630054331E+02  0.12863430057E+03  0.63197020208E+03  0.64777243156E+03  0.00000000000E+00 0.  1.
         11    1    4    4    0    0 -0.32163080869E+02  0.74466802893E+02  0.46048306104E+03  0.46757290127E+03  0.00000000000E+00 0. -1.
</event>
<event>
 8    1  0.6627806E-009  0.1187022E+03  0.7561462E-02  0.1245254E+00
          3   -1    0    0  501    0  0.00000000000E+00  0.00000000000E+00  0.43848530254E+02  0.43848530254E+02  0.00000000000E+00 0. -1.
         -3   -1    0    0    0  501 -0.00000000000E+00 -0.00000000000E+00 -0.42589757622E+03  0.42589757622E+03  0.00000000000E+00 0.  1.
         25    2    1    2    0    0  0.27326518274E+02 -0.71547318741E+02 -0.26433208728E+03  0.30229941751E+03  0.12509087914E+03 0.  0.
         23    2    1    2    0    0 -0.27326518274E+02  0.71547318741E+02 -0.11771695869E+03  0.16744668896E+03  0.91188562121E+02 0.  0.
          5    1    3    3  502    0  0.61855942103E+02 -0.42362228303E+02 -0.69733429018E+02  0.10247409176E+03  0.41800000000E+01 0.  1.
         -5    1    3    3    0  502 -0.34529423829E+02 -0.29185090438E+02 -0.19459865826E+03  0.19982532575E+03  0.41800000000E+01 0.  1.
        -11    1    4    4    0    0 -0.44843584761E+02  0.16717556327E+01 -0.30180075889E+02  0.54079375383E+02  0.00000000000E+00 0.  1.
         11    1    4    4    0    0  0.17517066487E+02  0.69875563109E+02 -0.87536882802E+02  0.11336731358E+03  0.00000000000E+00 0. -1.
</event>
<event>
 7    1  0.6627806E-009  0.1355859E+03  0.7561462E-02  0.1219395E+00
          2   -1    0    0  501    0  0.00000000000E+00  0.00000000000E+00  0.57456157708E+03  0.57456157708E+03  0.00000000000E+00 0. -1.
         -2   -1    0    0    0  501 -0.00000000000E+00 -0.00000000000E+00 -0.34456113509E+02  0.34456113509E+02  0.00000000000E+00 0.  1.
         23    2    1    2    0    0  0.31137755504E+02  0.77575688213E+02  0.16823146488E+03  0.20792206847E+03  0.89119097638E+02 0.  0.
          5    1    1    2  502    0  0.30399374222E+02 -0.81822214057E+02  0.24097650737E+03  0.25633210133E+03  0.41800000000E+01 0.  1.
         -5    1    1    2    0  502 -0.61537129726E+02  0.42465258442E+01  0.13089749132E+03  0.14476352078E+03  0.41800000000E+01 0.  1.
        -11    1    3    3    0    0  0.13253735190E+01 -0.19942567917E+02  0.23079369124E+02  0.30530638861E+02  0.00000000000E+00 0. -1.
         11    1    3    3    0    0  0.29812381985E+02  0.97518256130E+02  0.14515209576E+03  0.17739142961E+03  0.00000000000E+00 0.  1.
</event>
<event>
 8    1  0.6627806E-009  0.1579903E+03  0.7561462E-02  0.1190985E+00
          1   -1    0    0  501    0  0.00000000000E+00  0.00000000000E+00  0.80087546294E+03  0.80087546294E+03  0.00000000000E+00 0. -1.
         -1   -1    0    0    0  501 -0.00000000000E+00 -0.00000000000E+00 -0.48486341035E+02  0.48486341035E+02  0.00000000000E+00 0.  1.
         25    2    1    2    0    0  0.89634106559E+02  0.81765230386E+02  0.63399715369E+03  0.65751227643E+03  0.12510066671E+03 0.  0.
         23    2    1    2    0    0 -0.89634106559E+02 -0.81765230386E+02  0.11839196821E+03  0.19184952754E+03  0.89831826889E+02 0.  0.
          5    1    3    3  502    0 -0.31180831384E+02  0.27026198598E+02  0.14201827711E+03  0.14795040754E+03  0.41800000000E+01 0.  1.
         -5    1    3    3    0  502  0.12081493794E+03  0.54739031789E+02  0.49197887657E+03  0.50956186889E+03  0.41800000000E+01 0.  1.
        -11    1    4    4    0    0  0.68077201109E+01  0.76836419397E+01 -0.50681038086E+01  0.11448540640E+02  0.00000000000E+00 0. -1.
         11    1    4    4    0    0 -0.96441826670E+02 -0.89448872326E+02  0.12346007202E+03  0.18040098690E+03  0.00000000000E+00 0.  1.
</event>
<event>
 8    1  0.6627806E-009  0.1390077E+03  0.7561462E-02  0.1214670E+00
          1   -1    0    0  501    0  0.00000000000E+00  0.00000000000E+00  0.42800106860E+03  0.42800106860E+03  0.00000000000E+00 0. -1.
         -1   -1    0    0    0  501 -0.00000000000E+00 -0.00000000000E+00 -0.51919683347E+02  0.51919683347E+02  0.00000000000E+00 0.  1.
         25    2    1    2    0    0  0.81347231822E+02  0.48242130191E+02  0.26308530161E+03  0.30627900440E+03  0.12509307480E+03 0.  0.
         23    2    1    2    0    0 -0.81347231822E+02 -0.48242130191E+02  0.11299608364E+03  0.17364174754E+03  0.91862213788E+02 0.  0.
          5    1    3    3  502    0  0.95238325510E+02  0.78076590388E+02  0.19764951193E+03  0.23291435031E+03  0.41800000000E+01 0.  1.
         -5    1    3    3    0  502 -0.13891093688E+02 -0.29834460197E+02  0.65435789681E+02  0.73364654094E+02  0.41800000000E+01 0.  1.
        -11    1    4    4    0    0  0.96002627456E+01 -0.26391364656E+02  0.59730108101E+02  0.66002689240E+02  0.00000000000E+00 0. -1.
         11    1    4    4    0    0 -0.90947494567E+02 -0.21850765535E+02  0.53265975538E+02  0.10763905830E+03  0.00000000000E+00 0.  1.
</event>
<event>
 8    1  0.6627806E-009  0.1017882E+03  0.7561462E-02  0.1276580E+00
         -2   -1    0    0    0  501 -0.00000000000E+00  0.00000000000E+00  0.19649455515E+02  0.19649455515E+02  0.00000000000E+00 0. -1.
          2   -1    0    0  501    0  0.00000000000E+00 -0.00000000000E+00 -0.92952025047E+03  0.92952025047E+03  0.00000000000E+00 0.  1.
         25    2    1    2    0    0  0.51566086062E+01  0.60495400118E+01 -0.78035487325E+03  0.79035714403E+03  0.12508996510E+03 0.  0.
         23    2    1    2    0    0 -0.51566086062E+01 -0.60495400118E+01 -0.12951592171E+03  0.15881256196E+03  0.91563466037E+02 0.  0.
          5    1    3    3  502    0 -0.23808040873E+02 -0.47198953340E+02 -0.20292669347E+03  0.20974098152E+03  0.41800000000E+01 0.  1.
         -5    1    3    3    0  502  0.28964649479E+02  0.53248493352E+02 -0.57742817978E+03  0.58061616251E+03  0.41800000000E+01 0.  1.
        -11    1    4    4    0    0  0.36039000122E+02 -0.25582170883E+02 -0.46840210755E+02  0.64399241769E+02  0.00000000000E+00 0.  1.
         11    1    4    4    0    0 -0.41195608729E+02  0.19532630871E+02 -0.82675710953E+02  0.94413320187E+02  0.00000000000E+00 0. -1.
</event>
<event>
 8    1  0.6627806E-009  0.1440514E+03  0.7561462E-02  0.1207979E+00
          1   -1    0    0  501    0  0.00000000000E+00  0.00000000000E+00  0.70546556827E+03  0.70546556827E+03  0.00000000000E+00 0. -1.
         -1   -1    0    0    0  501 -0.00000000000E+00 -0.00000000000E+00 -0.33764799902E+02  0.33764799902E+02  0.00000000000E+00 0.  1.
         25    2    1    2    0    0  0.89461075183E+02  0.42734308172E+02  0.24992761397E+03  0.29654843570E+03  0.12509059686E+03 0.  0.
         23    2    1    2    0    0 -0.89461075183E+02 -0.42734308172E+02  0.42177315440E+03  0.44268193247E+03  0.90803053351E+02 0.  0.
          5    1    3    3  502    0  0.82644475680E+02 -0.24459349053E+02  0.17788905042E+03  0.19771281136E+03  0.41800000000E+01 0. -1.
         -5    1    3    3    0  502  0.68165995033E+01  0.67193657225E+02  0.72038563543E+02  0.98835624333E+02  0.41800000000E+01 0. -1.
        -11    1    4    4    0    0 -0.77146281108E+02  0.11972758785E+02  0.25980105790E+03  0.27127750612E+03  0.00000000000E+00 0. -1.
         11    1    4    4    0    0 -0.12314794075E+02 -0.54707066958E+02  0.16197209650E+03  0.17140442635E+03  0.00000000000E+00 0.  1.
</event>
<event>
 8    1  0.6627806E-009  0.7725774E+02  0.7561462E-02  0.1337019E+00
         -1   -1    0    0    0  501 -0.00000000000E+00  0.00000000000E+00  0.97636799717E+02  0.97636799717E+02  0.00000000000E+00 0.  1.
          1   -1    0    0  501    0  0.00000000000E+00 -0.00000000000E+00 -0.18448597847E+03  0.18448597847E+03  0.00000000000E+00 0. -1.
         25    2    1    2    0    0 -0.28401651249E+02  0.19302655544E+02  0.26401980568E+02  0.13237708693E+03  0.12508949700E+03 0.  0.
         23    2    1    2    0    0  0.28401651249E+02 -0.19302655544E+02 -0.11325115932E+03  0.14974569126E+03  0.91753477636E+02 0.  0.
          5    1    3    3  502    0 -0.46634969937E+00 -0.22235533829E+02  0.65129654426E+02  0.68949116981E+02  0.41800000000E+01 0.  1.
         -5    1    3    3    0  502 -0.27935301550E+02  0.41538189374E+02 -0.38727673858E+02  0.63427969947E+02  0.41800000000E+01 0.  1.
        -11    1    4    4    0    0  0.20388041252E+02  0.27464415293E+02 -0.92522098148E+01  0.35434019246E+02  0.00000000000E+00 0.  1.
         11    1    4    4    0    0  0.80136099976E+01 -0.46767070838E+02 -0.10399894951E+03  0.11431167201E+03  0.00000000000E+00 0. -1.
</event>
<event>
 8    1  0.6627806E-009  0.9940627E+02  0.7561462E-02  0.1281549E+00
          3   -1    0    0  501    0  0.00000000000E+00  0.00000000000E+00  0.88029413137E+02  0.88029413137E+02  0.00000000000E+00 0. -1.
         -3   -1    0    0    0  501 -0.00000000000E+00 -0.00000000000E+00 -0.18085567043E+03  0.18085567043E+03  0.00000000000E+00 0.  1.
         25    2    1    2    0    0  0.20897899638E+02 -0.19710539713E+02 -0.49384406702E+02  0.13753046410E+03  0.12510228353E+03 0.  0.
         23    2    1    2    0    0 -0.20897899638E+02  0.19710539713E+02 -0.43441850596E+02  0.13135461948E+03  0.12058861509E+03 0.  0.
          5    1    3    3  502    0 -0.36384825967E+02  0.32246846999E+02 -0.31379798952E+02  0.58016195018E+02  0.41800000000E+01 0. -1.
         -5    1    3    3    0  502  0.57282725605E+02 -0.51957386712E+02 -0.18004607750E+02  0.79514269078E+02  0.41800000000E+01 0. -1.
        -11    1    4    4    0    0 -0.31003846368E+02  0.39578145135E+02 -0.76465019521E+02  0.91512661814E+02  0.00000000000E+00 0.  1.
         11    1    4    4    0    0  0.10105946730E+02 -0.19867605422E+02  0.33023168925E+02  0.39841957662E+02  0.00000000000E+00 0. -1.
</event>
<event>
 8    1  0.6627806E-009  0.1130167E+03  0.7561462E-02  0.1255083E+00
          1   -1    0    0  501    0  0.00000000000E+00  0.00000000000E+00  0.30481767584E+03  0.30481767584E+03  0.00000000000E+00 0. -1.
         -1   -1    0    0    0  501 -0.00000000000E+00 -0.00000000000E+00 -0.82724057797E+02  0.82724057797E+02  0.00000000000E+00 0.  1.
         25    2    1    2    0    0  0.99979997246E+02 -0.29454275606E+01  0.21580569262E+03  0.26874497711E+03  0.12508833025E+03 0.  0.
         23    2    1    2    0    0 -0.99979997246E+02  0.29454275606E+01  0.62879254228E+01  0.11879675652E+03  0.63784449215E+02 0.  0.
          5    1    3    3  502    0  0.70356409728E+02 -0.25566034828E+02  0.21863432175E+03  0.23113218204E+03  0.41800000000E+01 0.  1.
         -5    1    3    3    0  502  0.29623587518E+02  0.22620607267E+02 -0.28286291311E+01  0.37612795075E+02  0.41800000000E+01 0.  1.
        -11    1    4    4    0    0 -0.20861122626E+02 -0.22268543921E+02  0.17225933589E+02  0.35040080959E+02  0.00000000000E+00 0. -1.
         11    1    4    4    0    0 -0.79118874620E+02  0.25213971482E+02 -0.10938008166E+02  0.83756675565E+02  0.00000000000E+00 0.  1.
</event>
<event>
 8    1  0.6627806E-009  0.1281108E+03  0.7561462E-02  0.1230286E+00
         -2   -1    0    0    0  501 -0.00000000000E+00  0.00000000000E+00  0.35916239129E+02  0.35916239129E+02  0.00000000000E+00 0.  1.
          2   -1    0    0  501    0  0.00000000000E+00 -0.00000000000E+00 -0.52315693522E+03  0.52315693522E+03  0.00000000000E+00 0. -1.
         25    2    1    2    0    0  0.76891187919E+02 -0.57696200751E+01 -0.20067884327E+03  0.24872803567E+03  0.12509234307E+03 0.  0.
         23    2    1    2    0    0 -0.76891187919E+02  0.57696200751E+01 -0.28656185282E+03  0.31034513868E+03  0.90834279414E+02 0.  0.
          5    1    3    3  502    0 -0.11376396496E+02  0.37051441148E+02 -0.21788130136E+02  0.44659004727E+02  0.41800000000E+01 0.  1.
         -5    1    3    3    0  502  0.88267584416E+02 -0.42821061224E+02 -0.17889071314E+03  0.20406903094E+03  0.41800000000E+01 0.  1.
        -11    1    4    4    0    0 -0.73879276118E+02 -0.32459462820E+02 -0.18805462645E+03  0.20463701203E+03  0.00000000000E+00 0.  1.
         11    1    4    4    0    0 -0.30119118014E+01  0.38229082895E+02 -0.98507226373E+02  0.10570812665E+03  0.00000000000E+00 0. -1.
</event>
<event>
 8    1  0.6627806E-009  0.9225631E+02  0.7561462E-02  0.1297478E+00
          1   -1    0    0  501    0  0.00000000000E+00  0.00000000000E+00  0.33693605276E+03  0.33693605276E+03  0.00000000000E+00 0. -1.
         -1   -1    0    0    0  501 -0.00000000000E+00 -0.00000000000E+00 -0.39172555610E+02  0.39172555610E+02  0.00000000000E+00 0.  1.
         25    2    1    2    0    0 -0.23769325634E+02 -0.12384991104E+02  0.22359487554E+03  0.25760464855E+03  0.12508843967E+03 0.  0.
         23    2    1    2    0    0  0.23769325634E+02  0.12384991104E+02  0.74168621612E+02  0.11850395983E+03  0.88452446077E+02 0.  0.
          5    1    3    3  502    0 -0.20953773895E+02 -0.66025388356E+02  0.90693937998E+02  0.11419840339E+03  0.41800000000E+01 0. -1.
         -5    1    3    3    0  502 -0.28155517384E+01  0.53640397252E+02  0.13290093754E+03  0.14340624515E+03  0.41800000000E+01 0. -1.
        -11    1    4    4    0    0 -0.21863611728E+01  0.29865991786E+02 -0.76478318375E+01  0.30907069941E+02  0.00000000000E+00 0.  1.
         11    1    4    4    0    0  0.25955686807E+02 -0.17481000682E+02  0.81816453450E+02  0.87596889885E+02  0.00000000000E+00 0. -1.
</event>
<event>
 8    1  0.6627806E-009  0.7033216E+02  0.7561462E-02  0.1358967E+00
          1   -1    0    0  501    0  0.00000000000E+00  0.00000000000E+00  0.17394428381E+03  0.17394428381E+03  0.00000000000E+00 0. -1.
         -1   -1    0    0    0  501 -0.00000000000E+00 -0.00000000000E+00 -0.89711856212E+02  0.89711856212E+02  0.00000000000E+00 0.  1.
         25    2    1    2    0    0  0.80006412929E+01  0.61329651882E+02  0.38274964928E+02  0.14471345361E+03  0.12510665152E+03 0.  0.
         23    2    1    2    0    0 -0.80006412929E+01 -0.61329651882E+02  0.45957462676E+02  0.11894268642E+03  0.90608707176E+02 0.  0.
          5    1    3    3  502    0  0.13876734571E+02  0.26092104003E+02  0.82485837277E+02  0.87719709330E+02  0.41800000000E+01 0. -1.
         -5    1    3    3    0  502 -0.58760932782E+01  0.35237547879E+02 -0.44210872350E+02  0.56993744276E+02  0.41800000000E+01 0. -1.
        -11    1    4    4    0    0 -0.25450465869E+02 -0.37101688611E+02 -0.17921835155E+02  0.48429884225E+02  0.00000000000E+00 0.  1.
         11    1    4    4    0    0  0.17449824576E+02 -0.24227963270E+02  0.63879297831E+02  0.70512802194E+02  0.00000000000E+00 0. -1.
</event>
<event>
 8    1  0.6627806E-009  0.2227385E+03  0.7561462E-02  0.1131858E+00
         -2   -1    0    0    0  501 -0.00000000000E+00  0.00000000000E+00  0.47519084229E+02  0.47519084229E+02  0.00000000000E+00 0. -1.
          2   -1    0    0  501    0  0.00000000000E+00 -0.00000000000E+00 -0.14051544214E+04  0.14051544214E+04  0.00000000000E+00 0.  1.
         25    2    1    2    0    0  0.13001810134E+03  0.17603766724E+03 -0.92983069757E+03  0.96339308809E+03  0.12508856490E+03 0.  0.
         23    2    1    2    0    0 -0.13001810134E+03 -0.17603766724E+03 -0.42780463965E+03  0.48928041759E+03  0.92111619067E+02 0.  0.
          5    1    3    3  502    0  0.10746609013E+03  0.15303407321E+03 -0.90019302589E+03  0.91942011309E+03  0.41800000000E+01 0.  1.
         -5    1    3    3    0  502  0.22552011204E+02  0.23003594031E+02 -0.29637671682E+02  0.43972975001E+02  0.41800000000E+01 0.  1.
        -11    1    4    4    0    0 -0.33045823659E+02 -0.91554324572E+02 -0.26162850452E+03  0.27914815992E+03  0.00000000000E+00 0.  1.
         11    1    4    4    0    0 -0.96972277677E+02 -0.84483342670E+02 -0.16617613513E+03  0.21013225767E+03  0.00000000000E+00 0. -1.
</event>
<event>
 8    1  0.6627806E-009  0.9936092E+02  0.7561462E-02  0.1281646E+00
          3   -1    0    0  501    0  0.00000000000E+00  0.00000000000E+00  0.13775162607E+03  0.13775162607E+03  0.00000000000E+00 0. -1.
         -3   -1    0    0    0  501 -0.00000000000E+00 -0.00000000000E+00 -0.96376171130E+02  0.96376171130E+02  0.00000000000E+00 0.  1.
         25    2    1    2    0    0 -0.30645028833E+02 -0.91969875107E+01 -0.10635635173E+01  0.12912233554E+03  0.12509094290E+03 0.  0.
         23    2    1    2    0    0  0.30645028833E+02  0.91969875107E+01  0.42439018454E+02  0.10500546166E+03  0.90561439468E+02 0.  0.
          5    1    3    3  502    0 -0.28256546494E+02  0.52302043941E+02  0.21623623879E+02  0.63395502441E+02  0.41800000000E+01 0.  1.
         -5    1    3    3    0  502 -0.23884823389E+01 -0.61499031451E+02 -0.22687187396E+02  0.65726833100E+02  0.41800000000E+01 0.  1.
        -11    1    4    4    0    0  0.53703296609E+02  0.43532653435E+01 -0.28492946081E+01  0.53954735340E+02  0.00000000000E+00 0.  1.
         11    1    4    4    0    0 -0.23058267776E+02  0.48437221672E+01  0.45288313062E+02  0.51050726315E+02  0.00000000000E+00 0. -1.
</event>
<event>
 8    1  0.6627806E-009  0.4927879E+03  0.7561462E-02  0.1015679E+00
         -1   -1    0    0    0  501 -0.00000000000E+00  0.00000000000E+00  0.27975457301E+03  0.27975457301E+03  0.00000000000E+00 0.  1.
          1   -1    0    0  501    0  0.00000000000E+00 -0.00000000000E+00 -0.11729659434E+04  0.11729659434E+04  0.00000000000E+00 0. -1.
         25    2    1    2    0    0  0.32620708072E+03 -0.36011319627E+03 -0.90304709414E+02  0.50979884214E+03  0.12508934913E+03 0.  0.
         23    2    1    2    0    0 -0.32620708072E+03  0.36011319627E+03 -0.80290666096E+03  0.94292167426E+03  0.91376167161E+02 0.  0.
          5    1    3    3  502    0  0.20386612062E+03 -0.30144991131E+03 -0.86133111182E+02  0.37399175045E+03  0.41800000000E+01 0.  1.
         -5    1    3    3    0  502  0.12234096010E+03 -0.58663284962E+02 -0.41715982327E+01  0.13580709169E+03  0.41800000000E+01 0.  1.
        -11    1    4    4    0    0 -0.25910125083E+03  0.28667078321E+03 -0.55946541502E+03  0.67993760503E+03  0.00000000000E+00 0.  1.
         11    1    4    4    0    0 -0.67105829887E+02  0.73442413059E+02 -0.24344124595E+03  0.26298406923E+03  0.00000000000E+00 0. -1.
</event>
<event>
 8    1  0.6627806E-009  0.1139891E+03  0.7561462E-02  0.1253356E+00
         -4   -1    0    0    0  501 -0.00000000000E+00  0.00000000000E+00  0.26668303855E+02  0.26668303855E+02  0.00000000000E+00 0. -1.
          4   -1    0    0  501    0  0.00000000000E+00 -0.00000000000E+00 -0.58795100666E+03  0.58795100666E+03  0.00000000000E+00 0.  1.
         25    2    1    2    0    0  0.48156009240E+02  0.37318086408E+02 -0.28198467930E+03  0.31444352812E+03  0.12509089581E+03 0.  0.
         23    2    1    2    0    0 -0.48156009240E+02 -0.37318086408E+02 -0.27929802350E+03  0.30017578240E+03  0.91577691642E+02 0.  0.
          5    1    3    3  502    0 -0.10777726532E+02  0.62185924746E+02 -0.20352601243E+03  0.21312803373E+03  0.41800000000E+01 0.  1.
         -5    1    3    3    0  502  0.58933735772E+02 -0.24867838338E+02 -0.78458666871E+02  0.10131549439E+03  0.41800000000E+01 0.  1.
        -11    1    4    4    0    0 -0.52567720977E+02  0.96533445456E+01 -0.86421595262E+02  0.10161321015E+03  0.00000000000E+00 0. -1.
         11    1    4    4    0    0  0.44117117363E+01 -0.46971430954E+02 -0.19287642824E+03  0.19856257225E+03  0.00000000000E+00 0.  1.
</event>
<event>
 8    1  0.6627806E-009  0.1312527E+03  0.7561462E-02  0.1225609E+00
         -1   -1    0    0    0  501 -0.00000000000E+00  0.00000000000E+00  0.22632002351E+03  0.22632002351E+03  0.00000000000E+00 0.  1.
          1   -1    0    0  501    0  0.00000000000E+00 -0.00000000000E+00 -0.99667542356E+02  0.99667542356E+02  0.00000000000E+00 0. -1.
         25    2    1    2    0    0 -0.60641415698E+02 -0.53785900595E+02  0.14180524131E+03  0.20573416678E+03  0.12509003364E+03 0.  0.
         23    2    1    2    0    0  0.60641415698E+02  0.53785900595E+02 -0.15152760151E+02  0.12025339909E+03  0.87526964146E+02 0.  0.
          5    1    3    3  502    0  0.12931716044E+02 -0.71723823054E+02  0.75045784559E+02  0.10469421308E+03  0.41800000000E+01 0.  1.
         -5    1    3    3    0  502 -0.73573131742E+02  0.17937922459E+02  0.66759456749E+02  0.10103995369E+03  0.41800000000E+01 0.  1.
        -11    1    4    4    0    0  0.44820338837E+02  0.74895004835E+02 -0.26961213736E+02  0.91351144321E+02  0.00000000000E+00 0. -1.
         11    1    4    4    0    0  0.15821076861E+02 -0.21109104240E+02  0.11808453585E+02  0.28902254772E+02  0.00000000000E+00 0.  1.
</event>
<event>
 8    1  0.6627806E-009  0.1266285E+03  0.7561462E-02  0.1232546E+00
         -2   -1    0    0    0  501 -0.00000000000E+00  0.00000000000E+00  0.19714923539E+02  0.19714923539E+02  0.00000000000E+00 0.  1.
          2   -1    0    0  501    0  0.00000000000E+00 -0.00000000000E+00 -0.89864307669E+03  0.89864307669E+03  0.00000000000E+00 0. -1.
         25    2    1    2    0    0  0.46982024842E+02 -0.55724181634E+02 -0.54542594977E+03  0.56431320778E+03  0.12508970667E+03 0.  0.
         23    2    1    2    0    0 -0.46982024842E+02  0.55724181634E+02 -0.33350220338E+03  0.35404479245E+03  0.93869592109E+02 0.  0.
          5    1    3    3  502    0 -0.39040473965E+02 -0.56889203807E+01 -0.23422242435E+03  0.23755870620E+03  0.41800000000E+01 0. -1.
         -5    1    3    3    0  502  0.86022498807E+02 -0.50035261254E+02 -0.31120352542E+03  0.32675450158E+03  0.41800000000E+01 0. -1.
        -11    1    4    4    0    0  0.14666622870E+02 -0.14438339624E+02 -0.29145028965E+02  0.35679240335E+02  0.00000000000E+00 0.  1.
         11    1    4    4    0    0 -0.61648647712E+02  0.70162521259E+02 -0.30435717442E+03  0.31836555211E+03  0.00000000000E+00 0. -1.
</event>
<event>
 8    1  0.6627806E-009  0.8761100E+02  0.7561462E-02  0.1308742E+00
         -2   -1    0    0    0  501 -0.00000000000E+00  0.00000000000E+00  0.16653981916E+02  0.16653981916E+02  0.00000000000E+00 0.  1.
          2   -1    0    0  501    0  0.00000000000E+00 -0.00000000000E+00 -0.10500158795E+04  0.10500158795E+04  0.00000000000E+00 0. -1.
         25    2    1    2    0    0  0.58043426738E+01 -0.11408167295E+02 -0.87198749973E+03  0.88100724423E+03  0.12509087909E+03 0.  0.
         23    2    1    2    0    0 -0.58043426738E+01  0.11408167295E+02 -0.16137439786E+03  0.18566261719E+03  0.90912454933E+02 0.  0.
          5    1    3    3  502    0  0.86372251387E+01  0.45038120398E+02 -0.65906875635E+03  0.66067551184E+03  0.41800000000E+01 0. -1.
         -5    1    3    3    0  502 -0.28328824649E+01 -0.56446287693E+02 -0.21291874337E+03  0.22033173239E+03  0.41800000000E+01 0. -1.
        -11    1    4    4    0    0  0.58359962926E+01  0.40629695554E+02 -0.14398446026E+03  0.14972092643E+03  0.00000000000E+00 0. -1.
         11    1    4    4    0    0 -0.11640338966E+02 -0.29221528259E+02 -0.17389937596E+02  0.35941690759E+02  0.00000000000E+00 0.  1.
</event>
<event>
 8    1  0.6627806E-009  0.9284254E+02  0.7561462E-02  0.1296110E+00
         -1   -1    0    0    0  501 -0.00000000000E+00  0.00000000000E+00  0.22009092662E+03  0.22009092662E+03  0.00000000000E+00 0.  1.
          1   -1    0    0  501    0  0.00000000000E+00 -0.00000000000E+00 -0.69167876320E+02  0.69167876320E+02  0.00000000000E+00 0. -1.
         25    2    1    2    0    0  0.92531744297E+01 -0.42504202354E+02  0.41862288247E+02  0.13889502487E+03  0.12508856183E+03 0.  0.
         23    2    1    2    0    0 -0.92531744297E+01  0.42504202354E+02  0.10906076205E+03  0.15036377807E+03  0.93929694357E+02 0.  0.
          5    1    3    3  502    0 -0.43828540725E+02 -0.36559129209E+02  0.59437214595E+02  0.82509186091E+02  0.41800000000E+01 0.  1.
         -5    1    3    3    0  502  0.53081715154E+02 -0.59450731446E+01 -0.17574926348E+02  0.56385838777E+02  0.41800000000E+01 0.  1.
        -11    1    4    4    0    0 -0.33520509125E+02  0.11349078534E+02  0.10483506086E+03  0.11064725980E+03  0.00000000000E+00 0.  1.
         11    1    4    4    0    0  0.24267334695E+02  0.31155123820E+02  0.42257011971E+01  0.39716518278E+02  0.00000000000E+00 0. -1.
</event>
<event>
 8    1  0.6627806E-009  0.1095711E+03  0.7561462E-02  0.1261366E+00
         -2   -1    0    0    0  501 -0.00000000000E+00  0.00000000000E+00  0.86683063806E+02  0.86683063806E+02  0.00000000000E+00 0. -1.
          2   -1    0    0  501    0  0.00000000000E+00 -0.00000000000E+00 -0.43461716360E+03  0.43461716360E+03  0.00000000000E+00 0.  1.
         25    2    1    2    0    0 -0.10225356351E+02  0.55169672717E+02  0.19205426594E+02  0.13843453655E+03  0.12508805618E+03 0.  0.
         23    2    1    2    0    0  0.10225356351E+02 -0.55169672717E+02 -0.36713952639E+03  0.38286569086E+03  0.92986314572E+02 0.  0.
          5    1    3    3  502    0  0.31019822908E+02 -0.18685176358E+02  0.36945565632E+02  0.51901950335E+02  0.41800000000E+01 0.  1.
         -5    1    3    3    0  502 -0.41245179259E+02  0.73854849074E+02 -0.17740139038E+02  0.86532586215E+02  0.41800000000E+01 0.  1.
        -11    1    4    4    0    0  0.40334605342E+02 -0.66318815021E+01 -0.24039305603E+03  0.24384356385E+03  0.00000000000E+00 0.  1.
         11    1    4    4    0    0 -0.30109248991E+02 -0.48537791215E+02 -0.12674647036E+03  0.13902212701E+03  0.00000000000E+00 0. -1.
</event>
<event>
 8    1  0.6627806E-009  0.1413032E+03  0.7561462E-02  0.1211586E+00
          3   -1    0    0  501    0  0.00000000000E+00  0.00000000000E+00  0.82644977921E+02  0.82644977921E+02  0.00000000000E+00 0. -1.
         -3   -1    0    0    0  501 -0.00000000000E+00 -0.00000000000E+00 -0.34922255347E+03  0.34922255347E+03  0.00000000000E+00 0.  1.
         25    2    1    2    0    0 -0.11575899667E+03  0.15052098654E+02 -0.21592016487E+03  0.27549244619E+03  0.12509140389E+03 0.  0.
         23    2    1    2    0    0  0.11575899667E+03 -0.15052098654E+02 -0.50657410684E+02  0.15637508520E+03  0.90886099213E+02 0.  0.
          5    1    3    3  502    0 -0.91375545061E+02 -0.22592135940E+02 -0.20986069419E+03  0.23004103592E+03  0.41800000000E+01 0. -1.
         -5    1    3    3    0  502 -0.24383451614E+02  0.37644234595E+02 -0.60594706789E+01  0.45451410272E+02  0.41800000000E+01 0. -1.
        -11    1    4    4    0    0  0.91779737171E+02 -0.47223365708E+02 -0.18292991216E+02  0.10482461520E+03  0.00000000000E+00 0.  1.
         11    1    4    4    0    0  0.23979259503E+02  0.32171267054E+02 -0.32364419468E+02  0.51550470004E+02  0.00000000000E+00 0. -1.
</event>
<event>
 8    1  0.6627806E-009  0.1191046E+03  0.7561462E-02  0.1244582E+00
         -2   -1    0    0    0  501 -0.00000000000E+00  0.00000000000E+00  0.16051428816E+03  0.16051428816E+03  0.00000000000E+00 0.  1.
          2   -1    0    0  501    0  0.00000000000E+00 -0.00000000000E+00 -0.11959670432E+03  0.11959670432E+03  0.00000000000E+00 0. -1.
         25    2    1    2    0    0  0.71684047497E+02  0.24184013464E+02 -0.20915437106E+02  0.14767708103E+03  0.12509034966E+03 0.  0.
         23    2    1    2    0    0 -0.71684047497E+02 -0.24184013464E+02  0.61833020944E+02  0.13243391146E+03  0.89397702728E+02 0.  0.
          5    1    3    3  502    0  0.97601991223E+02 -0.12527856024E+02 -0.13888307350E+01  0.98501254398E+02  0.41800000000E+01 0.  1.
         -5    1    3    3    0  502 -0.25917943726E+02  0.36711869487E+02 -0.19526606371E+02  0.49175826629E+02  0.41800000000E+01 0.  1.
        -11    1    4    4    0    0 -0.66201244383E+02  0.35671843413E+01  0.20875739425E+01  0.66330140411E+02  0.00000000000E+00 0.  1.
         11    1    4    4    0    0 -0.54828031141E+01 -0.27751197805E+02  0.59745447002E+02  0.66103771050E+02  0.00000000000E+00 0. -1.
</event>
<event>
 8    1  0.6627806E-009  0.1135432E+03  0.7561462E-02  0.1254146E+00
          1   -1    0    0  501    0  0.00000000000E+00  0.00000000000E+00  0.56966679820E+02  0.56966679820E+02  0.00000000000E+00 0. -1.
         -1   -1    0    0    0  501 -0.00000000000E+00 -0.00000000000E+00 -0.44142070400E+03  0.44142070400E+03  0.00000000000E+00 0.  1.
         25    2    1    2    0    0  0.10350642837E+02 -0.97018019507E+02 -0.30055484580E+03  0.33985342531E+03  0.12508998140E+03 0.  0.
         23    2    1    2    0    0 -0.10350642837E+02  0.97018019507E+02 -0.83899178381E+02  0.15853395851E+03  0.92597580697E+02 0.  0.
          5    1    3    3  502    0  0.75399092272E+01  0.88508781902E+01  0.72404094994E+01  0.14320761349E+02  0.41800000000E+01 0. -1.
         -5    1    3    3    0  502  0.28107336093E+01 -0.10586889770E+03 -0.30779525530E+03  0.32553266396E+03  0.41800000000E+01 0. -1.
        -11    1    4    4    0    0 -0.28840742940E+02  0.72559289503E+02 -0.97567388747E+02  0.12496413203E+03  0.00000000000E+00 0.  1.
         11    1    4    4    0    0  0.18490100103E+02  0.24458730004E+02  0.13668210367E+02  0.33569826480E+02  0.00000000000E+00 0. -1.
</event>
<event>
 8    1  0.6627806E-009  0.7555316E+02  0.7561462E-02  0.1342167E+00
          2   -1    0    0  501    0  0.00000000000E+00  0.00000000000E+00  0.20826870427E+03  0.20826870427E+03  0.00000000000E+00 0. -1.
         -2   -1    0    0    0  501 -0.00000000000E+00 -0.00000000000E+00 -0.62096331451E+02  0.62096331451E+02  0.00000000000E+00 0.  1.
         25    2    1    2    0    0 -0.47129782021E+01 -0.34376243760E+02  0.95174977920E+02  0.16096258859E+03  0.12508693059E+03 0.  0.
         23    2    1    2    0    0  0.47129782021E+01  0.34376243760E+02  0.50997394900E+02  0.10940244714E+03  0.90356089192E+02 0.  0.
          5    1    3    3  502    0  0.27398812598E+02  0.20233426691E+02 -0.12034222026E+02  0.36364562244E+02  0.41800000000E+01 0.  1.
         -5    1    3    3    0  502 -0.32111790800E+02 -0.54609670452E+02  0.10720919995E+03  0.12459802634E+03  0.41800000000E+01 0.  1.
        -11    1    4    4    0    0 -0.17618009247E+02  0.10062455359E+02  0.68915885165E+02  0.71840423758E+02  0.00000000000E+00 0. -1.
         11    1    4    4    0    0  0.22330987449E+02  0.24313788401E+02 -0.17918490264E+02  0.37562023377E+02  0.00000000000E+00 0.  1.
</event>
<event>
 8    1  0.6627806E-009  0.7308059E+02  0.7561462E-02  0.1349920E+00
          2   -1    0    0  501    0  0.00000000000E+00  0.00000000000E+00  0.41887289726E+03  0.41887289726E+03  0.00000000000E+00 0. -1.
         -2   -1    0    0    0  501 -0.00000000000E+00 -0.00000000000E+00 -0.42036689369E+02  0.42036689369E+02  0.00000000000E+00 0.  1.
         25    2    1    2    0    0  0.82140183249E+01  0.10502428509E+02  0.33836957732E+03  0.36099690843E+03  0.12508807274E+03 0.  0.
         23    2    1    2    0    0 -0.82140183249E+01 -0.10502428509E+02  0.38466630577E+02  0.99912678200E+02  0.91241933866E+02 0.  0.
          5    1    3    3  502    0  0.14271726790E+02 -0.29140035924E+02  0.16553576767E+02  0.36664931243E+02  0.41800000000E+01 0.  1.
         -5    1    3    3    0  502 -0.60577084651E+01  0.39642464434E+02  0.32181600055E+03  0.32433197719E+03  0.41800000000E+01 0.  1.
        -11    1    4    4    0    0 -0.39066606474E+02  0.35425432996E+01 -0.10267196517E+02  0.40548300566E+02  0.00000000000E+00 0.  1.
         11    1    4    4    0    0  0.30852588150E+02 -0.14044971809E+02  0.48733827094E+02  0.59364377634E+02  0.00000000000E+00 0. -1.
</event>
<event>
 8    1  0.6627806E-009  0.9637854E+02  0.7561462E-02  0.1288101E+00
         -3   -1    0    0    0  501 -0.00000000000E+00  0.00000000000E+00  0.11992983245E+03  0.11992983245E+03  0.00000000000E+00 0.  1.
          3   -1    0    0  501    0  0.00000000000E+00 -0.00000000000E+00 -0.13623121476E+03  0.13623121476E+03  0.00000000000E+00 0. -1.
         25    2    1    2    0    0  0.60360460824E+02  0.13869136156E+01  0.19087025639E+02  0.14020374279E+03  0.12508983246E+03 0.  0.
         23    2    1    2    0    0 -0.60360460824E+02 -0.13869136156E+01 -0.35388407953E+02  0.11595730442E+03  0.92457818875E+02 0.  0.
          5    1    3    3  502    0  0.72354340283E+02  0.75369674033E+01 -0.37454011374E+02  0.81928211280E+02  0.41800000000E+01 0.  1.
         -5    1    3    3    0  502 -0.11993879460E+02 -0.61500537877E+01  0.56541037013E+02  0.58275531508E+02  0.41800000000E+01 0.  1.
        -11    1    4    4    0    0 -0.73499943370E+02 -0.25930415015E+02 -0.10554848148E+02  0.78651337672E+02  0.00000000000E+00 0.  1.
         11    1    4    4    0    0  0.13139482546E+02  0.24543501399E+02 -0.24833559805E+02  0.37305966750E+02  0.00000000000E+00 0. -1.
</event>
<event>
 8    1  0.6627806E-009  0.7845009E+02  0.7561462E-02  0.1333508E+00
         -2   -1    0    0    0  501 -0.00000000000E+00  0.00000000000E+00  0.48906984655E+02  0.48906984655E+02  0.00000000000E+00 0.  1.
          2   -1    0    0  501    0  0.00000000000E+00 -0.00000000000E+00 -0.40683718804E+03  0.40683718804E+03  0.00000000000E+00 0. -1.
         25    2    1    2    0    0  0.49262064021E+02 -0.40434008279E+02 -0.30639944543E+03  0.33703143755E+03  0.12509160548E+03 0.  0.
         23    2    1    2    0    0 -0.49262064021E+02  0.40434008279E+02 -0.51530757951E+02  0.11871273514E+03  0.85881514264E+02 0.  0.
          5    1    3    3  502    0  0.61860782064E+02 -0.16715169679E+02 -0.30289344167E+03  0.30962568153E+03  0.41800000000E+01 0. -1.
         -5    1    3    3    0  502 -0.12598718043E+02 -0.23718838600E+02 -0.35060037616E+01  0.27405756024E+02  0.41800000000E+01 0. -1.
        -11    1    4    4    0    0 -0.20968728198E+02  0.26992771341E+02 -0.73089560282E+02  0.80686932579E+02  0.00000000000E+00 0. -1.
         11    1    4    4    0    0 -0.28293335823E+02  0.13441236938E+02  0.21558802331E+02  0.38025802560E+02  0.00000000000E+00 0.  1.
</event>
<event>
 8    1  0.6627806E-009  0.1067644E+03  0.7561462E-02  0.1266682E+00
         -1   -1    0    0    0  501 -0.00000000000E+00  0.00000000000E+00  0.11894999967E+03  0.11894999967E+03  0.00000000000E+00 0.  1.
          1   -1    0    0  501    0  0.00000000000E+00 -0.00000000000E+00 -0.31910002776E+03  0.31910002776E+03  0.00000000000E+00 0. -1.
         25    2    1    2    0    0  0.20202591458E+02 -0.84484521438E+02 -0.26383285464E+03  0.30463242837E+03  0.12508941667E+03 0.  0.
         23    2    1    2    0    0 -0.20202591458E+02  0.84484521438E+02  0.63682826542E+02  0.13341759907E+03  0.78733565143E+02 0.  0.
          5    1    3    3  502    0 -0.22013652015E+02 -0.20591247982E+02 -0.20687463058E+03  0.20910089800E+03  0.41800000000E+01 0. -1.
         -5    1    3    3    0  502  0.42216243472E+02 -0.63893273456E+02 -0.56958224061E+02  0.95531530366E+02  0.41800000000E+01 0. -1.
        -11    1    4    4    0    0  0.22227711029E+02  0.30473485397E+02  0.51223420999E+02  0.63612446177E+02  0.00000000000E+00 0.  1.
         11    1    4    4    0    0 -0.42430302487E+02  0.54011036041E+02  0.12459405542E+02  0.69805152889E+02  0.00000000000E+00 0. -1.
</event>
<event>
 8    1  0.6627806E-009  0.9468366E+02  0.7561462E-02  0.1291890E+00
         -2   -1    0    0    0  501 -0.00000000000E+00  0.00000000000E+00  0.20755930098E+02  0.20755930098E+02  0.00000000000E+00 0.  1.
          2   -1    0    0  501    0  0.00000000000E+00 -0.00000000000E+00 -0.67173641345E+03  0.67173641345E+03  0.00000000000E+00 0. -1.
         25    2    1    2    0    0 -0.51457316310E+01 -0.37067045689E+02 -0.45731988779E+03  0.47559442688E+03  0.12509250452E+03 0.  0.
         23    2    1    2    0    0  0.51457316310E+01  0.37067045689E+02 -0.19366059557E+03  0.21689791667E+03  0.90221037174E+02 0.  0.
          5    1    3    3  502    0  0.38380139981E+02  0.72215685380E+00 -0.45226035236E+02  0.59467834320E+02  0.41800000000E+01 0.  1.
         -5    1    3    3    0  502 -0.43525871612E+02 -0.37789202543E+02 -0.41209385255E+03  0.41612659256E+03  0.41800000000E+01 0.  1.
        -11    1    4    4    0    0  0.23280645970E+02  0.59629832553E+02 -0.98851402864E+02  0.11776801457E+03  0.00000000000E+00 0.  1.
         11    1    4    4    0    0 -0.18134914339E+02 -0.22562786863E+02 -0.94809192702E+02  0.99129902098E+02  0.00000000000E+00 0. -1.
</event>
<event>
 7    1  0.6627806E-009  0.7811891E+02  0.7561462E-02  0.1334476E+00
          2   -1    0    0  501    0  0.00000000000E+00  0.00000000000E+00  0.54044067547E+03  0.54044067547E+03  0.00000000000E+00 0. -1.
         -2   -1    0    0    0  501 -0.00000000000E+00 -0.00000000000E+00 -0.25251984625E+02  0.25251984625E+02  0.00000000000E+00 0.  1.
         23    2    1    2    0    0 -0.64650399836E+01 -0.38177846938E+02  0.27555852725E+03  0.29270696875E+03  0.90804861508E+02 0.  0.
          5    1    1    2  502    0 -0.19108657141E+02  0.45136128800E+02  0.22309174669E+02  0.54014651487E+02  0.41800000000E+01 0.  1.
         -5    1    1    2    0  502  0.25573697125E+02 -0.69582818620E+01  0.21732098893E+03  0.21897103987E+03  0.41800000000E+01 0.  1.
        -11    1    3    3    0    0 -0.23270008626E+02 -0.52951389892E+02  0.25760720465E+03  0.26402048194E+03  0.00000000000E+00 0. -1.
         11    1    3    3    0    0  0.16804968642E+02  0.14773542953E+02  0.17951322596E+02  0.28686486808E+02  0.00000000000E+00 0.  1.
</event>
<event>
 8    1  0.6627806E-009  0.1258389E+03  0.7561462E-02  0.1233764E+00
          1   -1    0    0  501    0  0.00000000000E+00  0.00000000000E+00  0.48442801259E+03  0.48442801259E+03  0.00000000000E+00 0. -1.
         -1   -1    0    0    0  501 -0.00000000000E+00 -0.00000000000E+00 -0.49563756305E+02  0.49563756305E+02  0.00000000000E+00 0.  1.
         25    2    1    2    0    0 -0.45623041674E+02 -0.81063974278E+02  0.33755456884E+03  0.37180404903E+03  0.12506931706E+03 0.  0.
         23    2    1    2    0    0  0.45623041674E+02  0.81063974278E+02  0.97309687446E+02  0.16218771987E+03  0.90459114235E+02 0.  0.
          5    1    3    3  502    0 -0.13652847122E+02 -0.10403169437E+03  0.17148076201E+03  0.20107739258E+03  0.41800000000E+01 0.  1.
         -5    1    3    3    0  502 -0.31970194552E+02  0.22967720092E+02  0.16607380683E+03  0.17072665645E+03  0.41800000000E+01 0.  1.
        -11    1    4    4    0    0  0.15943968301E+02 -0.44608889919E+01  0.63385342513E+02  0.65511917246E+02  0.00000000000E+00 0. -1.
         11    1    4    4    0    0  0.29679073374E+02  0.85524863270E+02  0.33924344933E+02  0.96675802623E+02  0.00000000000E+00 0.  1.
</event>
<event>
 8    1  0.6627806E-009  0.1166356E+03  0.7561462E-02  0.1248753E+00
          1   -1    0    0  501    0  0.00000000000E+00  0.00000000000E+00  0.11306943558E+03  0.11306943558E+03  0.00000000000E+00 0. -1.
         -1   -1    0    0    0  501 -0.00000000000E+00 -0.00000000000E+00 -0.20956785676E+03  0.20956785676E+03  0.00000000000E+00 0.  1.
         25    2    1    2    0    0 -0.92943592211E+02 -0.14670722730E+02  0.59743418762E+01  0.15664256898E+03  0.12508980861E+03 0.  0.
         23    2    1    2    0    0  0.92943592211E+02  0.14670722730E+02 -0.10247276306E+03  0.16599472336E+03  0.90552965584E+02 0.  0.
          5    1    3    3  502    0 -0.90505215936E+01 -0.36151137467E+02 -0.43009036979E+02  0.57061951799E+02  0.41800000000E+01 0. -1.
         -5    1    3    3    0  502 -0.83893070617E+02  0.21480414737E+02  0.48983378855E+02  0.99580617185E+02  0.41800000000E+01 0. -1.
        -11    1    4    4    0    0  0.57377197406E+02  0.35868578642E+02 -0.10455178589E+03  0.12453824171E+03  0.00000000000E+00 0.  1.
         11    1    4    4    0    0  0.35566394805E+02 -0.21197855912E+02  0.20790228312E+01  0.41456481648E+02  0.00000000000E+00 0. -1.
</event>
<event>
 8    1  0.6627806E-009  0.1830357E+03  0.7561462E-02  0.1164897E+00
          2   -1    0    0  501    0  0.00000000000E+00  0.00000000000E+00  0.46161681374E+03  0.46161681374E+03  0.00000000000E+00 0. -1.
         -2   -1    0    0    0  501 -0.00000000000E+00 -0.00000000000E+00 -0.77356363182E+02  0.77356363182E+02  0.00000000000E+00 0.  1.
         25    2    1    2    0    0 -0.14364414441E+03  0.55137622613E+02  0.21419374129E+03  0.29189054969E+03  0.12508931425E+03 0.  0.
         23    2    1    2    0    0  0.14364414441E+03 -0.55137622613E+02  0.17006670926E+03  0.24708262723E+03  0.91942054718E+02 0.  0.
          5    1    3    3  502    0  0.66664451338E+01  0.34134779773E+02  0.87129868722E+02  0.93907992761E+02  0.41800000000E+01 0.  1.
         -5    1    3    3    0  502 -0.15031058955E+03  0.21002842840E+02  0.12706387257E+03  0.19798255693E+03  0.41800000000E+01 0.  1.
        -11    1    4    4    0    0  0.42855726847E+02 -0.65093210792E+02  0.71820958536E+02  0.10598108086E+03  0.00000000000E+00 0. -1.
         11    1    4    4    0    0  0.10078841757E+03  0.99555881791E+01  0.98245750726E+02  0.14110154637E+03  0.00000000000E+00 0.  1.
</event>
<event>
 8    1  0.6627806E-009  0.1675809E+03  0.7561462E-02  0.1180394E+00
         -1   -1    0    0    0  501 -0.00000000000E+00  0.00000000000E+00  0.15902527211E+03  0.15902527211E+03  0.00000000000E+00 0.  1.
          1   -1    0    0  501    0  0.00000000000E+00 -0.00000000000E+00 -0.21167020646E+03  0.21167020646E+03  0.00000000000E+00 0. -1.
         25    2    1    2    0    0  0.75435437751E+02  0.12575816473E+03  0.19472100737E+02  0.19373327904E+03  0.12509116450E+03 0.  0.
         23    2    1    2    0    0 -0.75435437751E+02 -0.12575816473E+03 -0.72117035091E+02  0.17696219953E+03  0.67890588803E+02 0.  0.
          5    1    3    3  502    0  0.10166870623E+03  0.85883854566E+02 -0.16009471997E+02  0.13411315333E+03  0.41800000000E+01 0. -1.
         -5    1    3    3    0  502 -0.26233268484E+02  0.39874310160E+02  0.35481572734E+02  0.59620125710E+02  0.41800000000E+01 0. -1.
        -11    1    4    4    0    0 -0.46968395579E+02 -0.33893298124E+02 -0.53814054176E+02  0.79061610582E+02  0.00000000000E+00 0. -1.
         11    1    4    4    0    0 -0.28467042172E+02 -0.91864866602E+02 -0.18302980915E+02  0.97900588947E+02  0.00000000000E+00 0.  1.
</event>
<event>
 8    1  0.6627806E-009  0.1436846E+03  0.7561462E-02  0.1208455E+00
          1   -1    0    0  501    0  0.00000000000E+00  0.00000000000E+00  0.51520632932E+03  0.51520632932E+03  0.00000000000E+00 0. -1.
         -1   -1    0    0    0  501 -0.00000000000E+00 -0.00000000000E+00 -0.60501787607E+02  0.60501787607E+02  0.00000000000E+00 0.  1.
         25    2    1    2    0    0  0.72815378317E+02  0.10887161545E+03  0.16531498984E+03  0.24521853943E+03  0.12509187920E+03 0.  0.
         23    2    1    2    0    0 -0.72815378317E+02 -0.10887161545E+03  0.28938955187E+03  0.33048957749E+03  0.91224668435E+02 0.  0.
          5    1    3    3  502    0  0.44456172651E+02  0.91186054271E+01  0.12641352164E+03  0.13437764362E+03  0.41800000000E+01 0.  1.
         -5    1    3    3    0  502  0.28359205667E+02  0.99753010027E+02  0.38901468204E+02  0.11084089581E+03  0.41800000000E+01 0.  1.
        -11    1    4    4    0    0 -0.23699547832E+02 -0.74178062739E+02  0.76086888876E+02  0.10887271567E+03  0.00000000000E+00 0. -1.
         11    1    4    4    0    0 -0.49115830485E+02 -0.34693552715E+02  0.21330266299E+03  0.22161686182E+03  0.00000000000E+00 0.  1.
</event>
<event>
 8    1  0.6627806E-009  0.1664240E+03  0.7561462E-02  0.1181629E+00
         -2   -1    0    0    0  501 -0.00000000000E+00  0.00000000000E+00  0.25004920742E+03  0.25004920742E+03  0.00000000000E+00 0.  1.
          2   -1    0    0  501    0  0.00000000000E+00 -0.00000000000E+00 -0.16418456159E+03  0.16418456159E+03  0.00000000000E+00 0. -1.
         25    2    1    2    0    0  0.12926891306E+03 -0.51151444066E+02 -0.56514478484E+02  0.19536681671E+03  0.12508950667E+03 0.  0.
         23    2    1    2    0    0 -0.12926891306E+03  0.51151444066E+02  0.14237912432E+03  0.21886695230E+03  0.91126317024E+02 0.  0.
          5    1    3    3  502    0 -0.14990586696E+02  0.20573553849E+02 -0.94746153295E+01  0.27481439975E+02  0.41800000000E+01 0.  1.
         -5    1    3    3    0  502  0.14425949976E+03 -0.71724997915E+02 -0.47039863154E+02  0.16788537674E+03  0.41800000000E+01 0.  1.
        -11    1    4    4    0    0 -0.46726728463E+02 -0.35610773357E+01  0.17829274075E+01  0.46896132620E+02  0.00000000000E+00 0. -1.
         11    1    4    4    0    0 -0.82542184600E+02  0.54712521402E+02  0.14059619691E+03  0.17197081968E+03  0.00000000000E+00 0.  1.
</event>
<event>
 7    1  0.6627806E-009  0.2614859E+03  0.7561462E-02  0.1106254E+00
          1   -1    0    0  501    0  0.00000000000E+00  0.00000000000E+00  0.15723787717E+04  0.15723787717E+04  0.00000000000E+00 0. -1.
         -1   -1    0    0    0  501 -0.00000000000E+00 -0.00000000000E+00 -0.53303193745E+02  0.53303193745E+02  0.00000000000E+00 0.  1.
         23    2    1    2    0    0 -0.61457965476E+02  0.24585420812E+03  0.49343190125E+03  0.56172458109E+03  0.88532991899E+02 0.  0.
          5    1    1    2  502    0  0.52541667852E+02 -0.56181616501E+02  0.15813337463E+03  0.17589950957E+03  0.41800000000E+01 0.  1.
         -5    1    1    2    0  502  0.89162976238E+01 -0.18967259162E+03  0.86751030204E+03  0.88805787476E+03  0.41800000000E+01 0.  1.
        -11    1    3    3    0    0 -0.53852143445E+02  0.14188311494E+03  0.37150467700E+03  0.40130611345E+03  0.00000000000E+00 0. -1.
         11    1    3    3    0    0 -0.76058220309E+01  0.10397109318E+03  0.12192722425E+03  0.16041846764E+03  0.00000000000E+00 0.  1.
</event>
<event>
 8    1  0.6627806E-009  0.8501035E+02  0.7561462E-02  0.1315405E+00
         -1   -1    0    0    0  501 -0.00000000000E+00  0.00000000000E+00  0.48717742757E+02  0.48717742757E+02  0.00000000000E+00 0.  1.
          1   -1    0    0  501    0  0.00000000000E+00 -0.00000000000E+00 -0.47862125363E+03  0.47862125363E+03  0.00000000000E+00 0. -1.
         25    2    1    2    0    0  0.20294702398E+02  0.73349811774E+02 -0.36296969811E+03  0.39139024807E+03  0.12508898713E+03 0.  0.
         23    2    1    2    0    0 -0.20294702398E+02 -0.73349811774E+02 -0.66933812762E+02  0.13594874832E+03  0.90608261471E+02 0.  0.
          5    1    3    3  502    0  0.10368882502E+02 -0.22733983822E+01  0.71542560887E+01  0.13466174094E+02  0.41800000000E+01 0. -1.
         -5    1    3    3    0  502  0.99258198961E+01  0.75623210156E+02 -0.37012395420E+03  0.37792407397E+03  0.41800000000E+01 0. -1.
        -11    1    4    4    0    0 -0.26320517414E+02 -0.37156195462E+02 -0.83949654961E+02  0.95503387722E+02  0.00000000000E+00 0. -1.
         11    1    4    4    0    0  0.60258150160E+01 -0.36193616312E+02  0.17015842199E+02  0.40445360600E+02  0.00000000000E+00 0.  1.
</event>
<event>
 8    1  0.6627806E-009  0.1065616E+03  0.7561462E-02  0.1267073E+00
          1   -1    0    0  501    0  0.00000000000E+00  0.00000000000E+00  0.10455899980E+03  0.10455899980E+03  0.00000000000E+00 0. -1.
         -1   -1    0    0    0  501 -0.00000000000E+00 -0.00000000000E+00 -0.18824117152E+03  0.18824117152E+03  0.00000000000E+00 0.  1.
         25    2    1    2    0    0  0.31850466004E+02 -0.62380868786E+02  0.11629590936E+02  0.14383156806E+03  0.12508576102E+03 0.  0.
         23    2    1    2    0    0 -0.31850466004E+02  0.62380868786E+02 -0.95311762653E+02  0.14896860325E+03  0.90562065348E+02 0.  0.
          5    1    3    3  502    0  0.79090327582E+02 -0.27687540435E+02 -0.15893185234E+00  0.83900998038E+02  0.41800000000E+01 0.  1.
         -5    1    3    3    0  502 -0.47239861578E+02 -0.34693328352E+02  0.11788522788E+02  0.59930570025E+02  0.41800000000E+01 0.  1.
        -11    1    4    4    0    0 -0.11140859640E+02  0.14426379220E+02 -0.94999594120E+02  0.96732425039E+02  0.00000000000E+00 0.  1.
         11    1    4    4    0    0 -0.20709606365E+02  0.47954489566E+02 -0.31216853335E+00  0.52236178215E+02  0.00000000000E+00 0. -1.
</event>
<event>
 8    1  0.6627806E-009  0.3175448E+03  0.7561462E-02  0.1076785E+00
         -1   -1    0    0    0  501 -0.00000000000E+00  0.00000000000E+00  0.87671673058E+02  0.87671673058E+02  0.00000000000E+00 0.  1.
          1   -1    0    0  501    0  0.00000000000E+00 -0.00000000000E+00 -0.13400839773E+04  0.13400839773E+04  0.00000000000E+00 0. -1.
         25    2    1    2    0    0  0.39985238309E+01 -0.31516513602E+03 -0.80016328627E+03  0.86905740770E+03  0.12511771272E+03 0.  0.
         23    2    1    2    0    0 -0.39985238309E+01  0.31516513602E+03 -0.45224901797E+03  0.55869824266E+03  0.90936796380E+02 0.  0.
          5    1    3    3  502    0  0.21967914669E+02 -0.17735918003E+03 -0.29341884168E+03  0.34358544362E+03  0.41800000000E+01 0.  1.
         -5    1    3    3    0  502 -0.17969390838E+02 -0.13780595599E+03 -0.50674444459E+03  0.52547196408E+03  0.41800000000E+01 0.  1.
        -11    1    4    4    0    0 -0.20145915238E+02  0.15214485526E+03 -0.14831719637E+03  0.21342892405E+03  0.00000000000E+00 0.  1.
         11    1    4    4    0    0  0.16147391408E+02  0.16302028076E+03 -0.30393182160E+03  0.34526931861E+03  0.00000000000E+00 0. -1.
</event>
<event>
 8    1  0.6627806E-009  0.1235918E+03  0.7561462E-02  0.1237287E+00
         -2   -1    0    0    0  501 -0.00000000000E+00  0.00000000000E+00  0.12542765946E+04  0.12542765946E+04  0.00000000000E+00 0.  1.
          2   -1    0    0  501    0  0.00000000000E+00 -0.00000000000E+00 -0.14523451030E+02  0.14523451030E+02  0.00000000000E+00 0. -1.
         25    2    1    2    0    0  0.48636919634E+02  0.45496843780E+02  0.88460995723E+03  0.89588943544E+03  0.12509033277E+03 0.  0.
         23    2    1    2    0    0 -0.48636919634E+02 -0.45496843780E+02  0.35514318638E+03  0.37291061023E+03  0.92196136833E+02 0.  0.
          5    1    3    3  502    0  0.52832286471E+02  0.84840091348E+02  0.56173078430E+03  0.57056817123E+03  0.41800000000E+01 0. -1.
         -5    1    3    3    0  502 -0.41953668370E+01 -0.39343247567E+02  0.32287917293E+03  0.32532126420E+03  0.41800000000E+01 0. -1.
        -11    1    4    4    0    0 -0.53764969183E+02  0.73537616237E+01  0.24081477461E+03  0.24685320616E+03  0.00000000000E+00 0.  1.
         11    1    4    4    0    0  0.51280495496E+01 -0.52850605404E+02  0.11432841177E+03  0.12605740408E+03  0.00000000000E+00 0. -1.
</event>
<event>
 8    1  0.6627806E-009  0.8069495E+02  0.7561462E-02  0.1327091E+00
          2   -1    0    0  501    0  0.00000000000E+00  0.00000000000E+00  0.87161783609E+03  0.87161783609E+03  0.00000000000E+00 0. -1.
         -2   -1    0    0    0  501 -0.00000000000E+00 -0.00000000000E+00 -0.16219359609E+02  0.16219359609E+02  0.00000000000E+00 0.  1.
         25    2    1    2    0    0  0.25230994187E+02  0.30024274237E+02  0.56159406871E+03  0.57669173918E+03  0.12508958353E+03 0.  0.
         23    2    1    2    0    0 -0.25230994187E+02 -0.30024274237E+02  0.29380440776E+03  0.31114545652E+03  0.94617149500E+02 0.  0.
          5    1    3    3  502    0 -0.20034840029E+02 -0.21473189021E+01  0.11087546235E+02  0.23375454540E+02  0.41800000000E+01 0.  1.
         -5    1    3    3    0  502  0.45265834215E+02  0.32171593140E+02  0.55050652248E+03  0.55331628464E+03  0.41800000000E+01 0.  1.
        -11    1    4    4    0    0 -0.39972615880E+02  0.11057443350E+02  0.57806624516E+02  0.71145505211E+02  0.00000000000E+00 0.  1.
         11    1    4    4    0    0  0.14741621693E+02 -0.41081717587E+02  0.23599778325E+03  0.23999995131E+03  0.00000000000E+00 0. -1.
</event>
<event>
 8    1  0.6627806E-009  0.2975255E+03  0.7561462E-02  0.1086484E+00
         -1   -1    0    0    0  501 -0.00000000000E+00  0.00000000000E+00  0.15325736023E+03  0.15325736023E+03  0.00000000000E+00 0.  1.
          1   -1    0    0  501    0  0.00000000000E+00 -0.00000000000E+00 -0.84499493112E+03  0.84499493112E+03  0.00000000000E+00 0. -1.
         25    2    1    2    0    0  0.17961664872E+03 -0.21008787320E+03 -0.76642952289E+02  0.31292228974E+03  0.12508861786E+03 0.  0.
         23    2    1    2    0    0 -0.17961664872E+03  0.21008787320E+03 -0.61509461859E+03  0.68533000161E+03  0.12221606410E+03 0.  0.
          5    1    3    3  502    0  0.18750992530E+03 -0.21743625370E+03 -0.84035530332E+02  0.29919548671E+03  0.41800000000E+01 0. -1.
         -5    1    3    3    0  502 -0.78932765841E+01  0.73483805026E+01  0.73925780425E+01  0.13726803028E+02  0.41800000000E+01 0. -1.
        -11    1    4    4    0    0  0.14618826898E+02  0.17546296602E+02 -0.95030761278E+02  0.97736524459E+02  0.00000000000E+00 0. -1.
         11    1    4    4    0    0 -0.19423547562E+03  0.19254157659E+03 -0.52006385731E+03  0.58759347715E+03  0.00000000000E+00 0.  1.
</event>
<event>
 8    1  0.6627806E-009  0.8384471E+02  0.7561462E-02  0.1318482E+00
          4   -1    0    0  501    0  0.00000000000E+00  0.00000000000E+00  0.21767487203E+03  0.21767487203E+03  0.00000000000E+00 0. -1.
         -4   -1    0    0    0  501 -0.00000000000E+00 -0.00000000000E+00 -0.10429697682E+03  0.10429697682E+03  0.00000000000E+00 0.  1.
         25    2    1    2    0    0 -0.70042126517E+01 -0.46055048582E+02  0.15791337114E+03  0.20677275609E+03  0.12509281906E+03 0.  0.
         23    2    1    2    0    0  0.70042126517E+01  0.46055048582E+02 -0.44535475927E+02  0.11519909276E+03  0.95484532062E+02 0.  0.
          5    1    3    3  502    0 -0.31048400639E+02 -0.15802073819E+02 -0.83153678979E+01  0.36060039691E+02  0.41800000000E+01 0.  1.
         -5    1    3    3    0  502  0.24044187988E+02 -0.30252974764E+02  0.16622873904E+03  0.17071271640E+03  0.41800000000E+01 0.  1.
        -11    1    4    4    0    0 -0.36540814894E+02  0.30147788381E+02 -0.49571065126E+02  0.68566834513E+02  0.00000000000E+00 0.  1.
         11    1    4    4    0    0  0.43545027546E+02  0.15907260202E+02  0.50355891998E+01  0.46632258252E+02  0.00000000000E+00 0. -1.
</event>
<event>
 8    1  0.6627806E-009  0.1306684E+03  0.7561462E-02  0.1226467E+00
         -2   -1    0    0    0  501 -0.00000000000E+00  0.00000000000E+00  0.27967266485E+02  0.27967266485E+02  0.00000000000E+00 0.  1.
          2   -1    0    0  501    0  0.00000000000E+00 -0.00000000000E+00 -0.10034861357E+04  0.10034861357E+04  0.00000000000E+00 0. -1.
         25    2    1    2    0    0 -0.98814924386E+02 -0.74773598999E+02 -0.60873397805E+03  0.63368348101E+03  0.12506885176E+03 0.  0.
         23    2    1    2    0    0  0.98814924386E+02  0.74773598999E+02 -0.36678489114E+03  0.39776992116E+03  0.91292241817E+02 0.  0.
          5    1    3    3  502    0 -0.35118877199E+01  0.72618537171E+01 -0.30215463626E+03  0.30229119155E+03  0.41800000000E+01 0.  1.
         -5    1    3    3    0  502 -0.95303036666E+02 -0.82035452716E+02 -0.30657934179E+03  0.33139228946E+03  0.41800000000E+01 0.  1.
        -11    1    4    4    0    0  0.55003341359E+02  0.25892540761E+02 -0.65285244067E+02  0.89207366964E+02  0.00000000000E+00 0.  1.
         11    1    4    4    0    0  0.43811583026E+02  0.48881058238E+02 -0.30149964708E+03  0.30856255419E+03  0.00000000000E+00 0. -1.
</event>
<event>
 8    1  0.6627806E-009  0.7524802E+02  0.7561462E-02  0.1343105E+00
          2   -1    0    0  501    0  0.00000000000E+00  0.00000000000E+00  0.10753590092E+04  0.10753590092E+04  0.00000000000E+00 0. -1.
         -2   -1    0    0    0  501 -0.00000000000E+00 -0.00000000000E+00 -0.12705388191E+02  0.12705388191E+02  0.00000000000E+00 0.  1.
         25    2    1    2    0    0  0.29508824603E+02 -0.20460662085E+02  0.73636224350E+03  0.74777408491E+03  0.12508924409E+03 0.  0.
         23    2    1    2    0    0 -0.29508824603E+02  0.20460662085E+02  0.32629137754E+03  0.34029031251E+03  0.89677334432E+02 0.  0.
          5    1    3    3  502    0  0.37494609359E+02  0.86094463899E+01  0.64463204248E+02  0.75186071849E+02  0.41800000000E+01 0. -1.
         -5    1    3    3    0  502 -0.79857847561E+01 -0.29070108475E+02  0.67189903925E+03  0.67258801306E+03  0.41800000000E+01 0. -1.
        -11    1    4    4    0    0 -0.53713183249E+02  0.19490378709E+02  0.29619568898E+03  0.30165686978E+03  0.00000000000E+00 0. -1.
         11    1    4    4    0    0  0.24204358646E+02  0.97028337568E+00  0.30095688560E+02  0.38633442730E+02  0.00000000000E+00 0.  1.
</event>
<event>
 8    1  0.6627806E-009  0.1582545E+03  0.7561462E-02  0.1190682E+00
          2   -1    0    0  501    0  0.00000000000E+00  0.00000000000E+00  0.20284061162E+04  0.20284061162E+04  0.00000000000E+00 0. -1.
         -2   -1    0    0    0  501 -0.00000000000E+00 -0.00000000000E+00 -0.20263289947E+02  0.20263289947E+02  0.00000000000E+00 0.  1.
         25    2    1    2    0    0  0.11429855151E+03  0.95229676283E+02  0.14681526477E+04  0.14809624506E+04  0.12507890665E+03 0.  0.
         23    2    1    2    0    0 -0.11429855151E+03 -0.95229676283E+02  0.53999017851E+03  0.56770695555E+03  0.92568592760E+02 0.  0.
          5    1    3    3  502    0  0.42016895433E+02  0.38213766971E+02  0.10992059328E+04  0.11006801836E+04  0.41800000000E+01 0.  1.
         -5    1    3    3    0  502  0.72281656079E+02  0.57015909312E+02  0.36894671495E+03  0.38028226700E+03  0.41800000000E+01 0.  1.
        -11    1    4    4    0    0 -0.25645271866E+02  0.11964243583E+02  0.41928892387E+02  0.50585127364E+02  0.00000000000E+00 0.  1.
         11    1    4    4    0    0 -0.88653279646E+02 -0.10719391987E+03  0.49806128612E+03  0.51712182818E+03  0.00000000000E+00 0. -1.
</event>
<event>
 8    1  0.6627806E-009  0.9842917E+02  0.7561462E-02  0.1283634E+00
         -1   -1    0    0    0  501 -0.00000000000E+00  0.00000000000E+00  0.48142340400E+03  0.48142340400E+03  0.00000000000E+00 0.  1.
          1   -1    0    0  501    0  0.00000000000E+00 -0.00000000000E+00 -0.25872685706E+02  0.25872685706E+02  0.00000000000E+00 0. -1.
         25    2    1    2    0    0  0.16857210039E+02 -0.13559451695E+02  0.22045892650E+03  0.25439545426E+03  0.12508750783E+03 0.  0.
         23    2    1    2    0    0 -0.16857210039E+02  0.13559451695E+02  0.23509179180E+03  0.25290063545E+03  0.90678313720E+02 0.  0.
          5    1    3    3  502    0 -0.17249224700E+02 -0.54267197949E+02  0.17593469706E+03  0.18496744188E+03  0.41800000000E+01 0. -1.
         -5    1    3    3    0  502  0.34106434739E+02  0.40707746254E+02  0.44524229435E+02  0.69428012376E+02  0.41800000000E+01 0. -1.
        -11    1    4    4    0    0 -0.19037657383E+02 -0.33954370962E+02  0.15442030170E+03  0.15925125206E+03  0.00000000000E+00 0. -1.
         11    1    4    4    0    0  0.21804473434E+01  0.47513822657E+02  0.80671490093E+02  0.93649383383E+02  0.00000000000E+00 0.  1.
</event>
<event>
 8    1  0.6627806E-009  0.1464485E+03  0.7561462E-02  0.1204906E+00
          1   -1    0    0  501    0  0.00000000000E+00  0.00000000000E+00  0.37088953682E+02  0.37088953682E+02  0.00000000000E+00 0. -1.
         -1   -1    0    0    0  501 -0.00000000000E+00 -0.00000000000E+00 -0.74169386033E+03  0.74169386033E+03  0.00000000000E+00 0.  1.
         25    2    1    2    0    0 -0.11231719742E+03 -0.16993172274E+01 -0.50566255734E+03  0.53287941686E+03  0.12509120873E+03 0.  0.
         23    2    1    2    0    0  0.11231719742E+03  0.16993172274E+01 -0.19894234932E+03  0.24590339716E+03  0.90952635298E+02 0.  0.
          5    1    3    3  502    0  0.77643179380E+01 -0.28252653755E+02 -0.32409831999E+02  0.43890394022E+02  0.41800000000E+01 0.  1.
         -5    1    3    3    0  502 -0.12008151536E+03  0.26553336528E+02 -0.47325272534E+03  0.48898902283E+03  0.41800000000E+01 0.  1.
        -11    1    4    4    0    0  0.64518655487E+02  0.42619894936E+02 -0.79509360034E+02  0.11090920017E+03  0.00000000000E+00 0. -1.
         11    1    4    4    0    0  0.47798541935E+02 -0.40920577708E+02 -0.11943298928E+03  0.13499419699E+03  0.00000000000E+00 0.  1.
</event>
<event>
 8    1  0.6627806E-009  0.9703666E+02  0.7561462E-02  0.1286654E+00
         -2   -1    0    0    0  501 -0.00000000000E+00  0.00000000000E+00  0.13823874673E+02  0.13823874673E+02  0.00000000000E+00 0.  1.
          2   -1    0    0  501    0  0.00000000000E+00 -0.00000000000E+00 -0.86363544171E+03  0.86363544171E+03  0.00000000000E+00 0. -1.
         25    2    1    2    0    0  0.13496931980E+00  0.10507238531E+02 -0.51941168132E+03  0.53436584630E+03  0.12509173722E+03 0.  0.
         23    2    1    2    0    0 -0.13496931980E+00 -0.10507238531E+02 -0.33039988572E+03  0.34309347009E+03  0.91861985902E+02 0.  0.
          5    1    3    3  502    0  0.29172876085E+02 -0.40981277990E+02 -0.37325043611E+03  0.37664822089E+03  0.41800000000E+01 0.  1.
         -5    1    3    3    0  502 -0.29037906765E+02  0.51488516521E+02 -0.14616124520E+03  0.15771762540E+03  0.41800000000E+01 0.  1.
        -11    1    4    4    0    0  0.94080696870E+01  0.35820463980E+02 -0.21835680437E+03  0.22147530660E+03  0.00000000000E+00 0. -1.
         11    1    4    4    0    0 -0.95430390068E+01 -0.46327702512E+02 -0.11204308135E+03  0.12161816349E+03  0.00000000000E+00 0.  1.
</event>
<event>
 8    1  0.6627806E-009  0.1456494E+03  0.7561462E-02  0.1205923E+00
         -2   -1    0    0    0  501 -0.00000000000E+00  0.00000000000E+00  0.81090907563E+02  0.81090907563E+02  0.00000000000E+00 0. -1.
          2   -1    0    0  501    0  0.00000000000E+00 -0.00000000000E+00 -0.56084845086E+03  0.56084845086E+03  0.00000000000E+00 0.  1.
         25    2    1    2    0    0 -0.12003620716E+03 -0.17772910286E+02 -0.45527388887E+03  0.48749131447E+03  0.12509556515E+03 0.  0.
         23    2    1    2    0    0  0.12003620716E+03  0.17772910286E+02 -0.24483654424E+02  0.15444804396E+03  0.92358982127E+02 0.  0.
          5    1    3    3  502    0 -0.20237035405E+02  0.36742263025E+02 -0.24310106054E+03  0.24672885832E+03  0.41800000000E+01 0.  1.
         -5    1    3    3    0  502 -0.99799171754E+02 -0.54515173311E+02 -0.21217282834E+03  0.24076245614E+03  0.41800000000E+01 0.  1.
        -11    1    4    4    0    0  0.43282060520E+02  0.36187785732E+02 -0.45823335822E+02  0.72681983358E+02  0.00000000000E+00 0.  1.
         11    1    4    4    0    0  0.76754146639E+02 -0.18414875446E+02  0.21339681398E+02  0.81766060601E+02  0.00000000000E+00 0. -1.
</event>
<event>
 8    1  0.6627806E-009  0.1815677E+03  0.7561462E-02  0.1166294E+00
          1   -1    0    0  501    0  0.00000000000E+00  0.00000000000E+00  0.97722773601E+02  0.97722773601E+02  0.00000000000E+00 0. -1.
         -1   -1    0    0    0  501 -0.00000000000E+00 -0.00000000000E+00 -0.53119780057E+03  0.53119780057E+03  0.00000000000E+00 0.  1.
         25    2    1    2    0    0 -0.12723411951E+03 -0.12624892768E+03 -0.10179049380E+03  0.24111455798E+03  0.12509041744E+03 0.  0.
         23    2    1    2    0    0  0.12723411951E+03  0.12624892768E+03 -0.33168453317E+03  0.38780601619E+03  0.90838118320E+02 0.  0.
          5    1    3    3  502    0 -0.57013220759E+02 -0.53268898317E+02  0.21945229717E+02  0.81161249230E+02  0.41800000000E+01 0. -1.
         -5    1    3    3    0  502 -0.70220898749E+02 -0.72980029364E+02 -0.12373572351E+03  0.15995330875E+03  0.41800000000E+01 0. -1.
        -11    1    4    4    0    0  0.11030762000E+03  0.12492567785E+03 -0.33126309186E+03  0.37082264231E+03  0.00000000000E+00 0.  1.
         11    1    4    4    0    0  0.16926499503E+02  0.13232498347E+01 -0.42144130478E+00  0.16983373880E+02  0.00000000000E+00 0. -1.
</event>
<event>
 8    1  0.6627806E-009  0.1118794E+03  0.7561462E-02  0.1257129E+00
          1   -1    0    0  501    0  0.00000000000E+00  0.00000000000E+00  0.18950157387E+03  0.18950157387E+03  0.00000000000E+00 0. -1.
         -1   -1    0    0    0  501 -0.00000000000E+00 -0.00000000000E+00 -0.97364515623E+02  0.97364515623E+02  0.00000000000E+00 0.  1.
         25    2    1    2    0    0 -0.37183888191E+02  0.69430580928E+02  0.29922139759E+02  0.15080835432E+03  0.12507828819E+03 0.  0.
         23    2    1    2    0    0  0.37183888191E+02 -0.69430580928E+02  0.62214918491E+02  0.13605773518E+03  0.91857302971E+02 0.  0.
          5    1    3    3  502    0 -0.17061118507E+02  0.86979016011E+02  0.62458295973E+02  0.10851240541E+03  0.41800000000E+01 0.  1.
         -5    1    3    3    0  502 -0.20122769683E+02 -0.17548435083E+02 -0.32536156214E+02  0.42295948917E+02  0.41800000000E+01 0.  1.
        -11    1    4    4    0    0  0.37481651961E+02  0.10706909931E+01 -0.59799019084E+01  0.37970776128E+02  0.00000000000E+00 0.  1.
         11    1    4    4    0    0 -0.29776377007E+00 -0.70501271922E+02  0.68194820400E+02  0.98086959047E+02  0.00000000000E+00 0. -1.
</event>
<event>
 8    1  0.6627806E-009  0.3104711E+03  0.7561462E-02  0.1080120E+00
         -2   -1    0    0    0  501 -0.00000000000E+00  0.00000000000E+00  0.28876622710E+03  0.28876622710E+03  0.00000000000E+00 0.  1.
          2   -1    0    0  501    0  0.00000000000E+00 -0.00000000000E+00 -0.49025353724E+03  0.49025353724E+03  0.00000000000E+00 0. -1.
         25    2    1    2    0    0 -0.40991476889E+01  0.29962251384E+03 -0.30927141584E+03  0.44842719345E+03  0.12509070852E+03 0.  0.
         23    2    1    2    0    0  0.40991476889E+01 -0.29962251384E+03  0.10778410570E+03  0.33059257090E+03  0.88789530251E+02 0.  0.
          5    1    3    3  502    0  0.48473143024E+02  0.78394385036E+02 -0.12697297354E+03  0.15695519618E+03  0.41800000000E+01 0. -1.
         -5    1    3    3    0  502 -0.52572290713E+02  0.22122812880E+03 -0.18229844230E+03  0.29147199726E+03  0.41800000000E+01 0. -1.
        -11    1    4    4    0    0  0.17675295499E+02 -0.16405558583E+03  0.10249088018E+03  0.19424477299E+03  0.00000000000E+00 0.  1.
         11    1    4    4    0    0 -0.13576147810E+02 -0.13556692800E+03  0.52932255159E+01  0.13634779790E+03  0.00000000000E+00 0. -1.
</event>
<event>
 8    1  0.6627806E-009  0.7430540E+02  0.7561462E-02  0.1346036E+00
         -1   -1    0    0    0  501 -0.00000000000E+00  0.00000000000E+00  0.22016193637E+03  0.22016193637E+03  0.00000000000E+00 0.  1.
          1   -1    0    0  501    0  0.00000000000E+00 -0.00000000000E+00 -0.70437980385E+02  0.70437980385E+02  0.00000000000E+00 0. -1.
         25    2    1    2    0    0  0.15911679888E+02  0.53006103552E+02  0.53749733151E+02  0.14696197966E+03  0.12508381623E+03 0.  0.
         23    2    1    2    0    0 -0.15911679888E+02 -0.53006103552E+02  0.95974222833E+02  0.14363793709E+03  0.91421971935E+02 0.  0.
          5    1    3    3  502    0  0.31494185657E+02  0.17909537723E+02 -0.34765242464E+02  0.50385809066E+02  0.41800000000E+01 0. -1.
         -5    1    3    3    0  502 -0.15582505769E+02  0.35096565829E+02  0.88514975615E+02  0.96576170597E+02  0.41800000000E+01 0. -1.
        -11    1    4    4    0    0 -0.20402780227E+02 -0.86266975759E-01  0.87510759713E+02  0.89857742841E+02  0.00000000000E+00 0.  1.
         11    1    4    4    0    0  0.44911003384E+01 -0.52919836576E+02  0.84634631203E+01  0.53780194249E+02  0.00000000000E+00 0. -1.
</event>
<event>
 8    1  0.6627806E-009  0.8974273E+02  0.7561462E-02  0.1303476E+00
          2   -1    0    0  501    0  0.00000000000E+00  0.00000000000E+00  0.19555355767E+03  0.19555355767E+03  0.00000000000E+00 0.  1.
         -2   -1    0    0    0  501 -0.00000000000E+00 -0.00000000000E+00 -0.95004164475E+02  0.95004164475E+02  0.00000000000E+00 0. -1.
         25    2    1    2    0    0 -0.16188179928E+02  0.56802720382E+02 -0.25658558125E+01  0.13834398071E+03  0.12507544591E+03 0.  0.
         23    2    1    2    0    0  0.16188179928E+02 -0.56802720382E+02  0.10311524900E+03  0.15221374143E+03  0.95119200436E+02 0.  0.
          5    1    3    3  502    0  0.26621187723E+02  0.22944774285E+02  0.50788163159E+02  0.61903636564E+02  0.41800000000E+01 0. -1.
         -5    1    3    3    0  502 -0.42809367651E+02  0.33857946097E+02 -0.53354018971E+02  0.76440344145E+02  0.41800000000E+01 0. -1.
        -11    1    4    4    0    0 -0.14416881930E+02 -0.56951106215E+02  0.17509300755E+02  0.61301309910E+02  0.00000000000E+00 0. -1.
         11    1    4    4    0    0  0.30605061858E+02  0.14838583326E+00  0.85605948250E+02  0.90912431524E+02  0.00000000000E+00 0.  1.
</event>
<event>
 8    1  0.6627806E-009  0.1005204E+03  0.7561462E-02  0.1279205E+00
         -2   -1    0    0    0  501 -0.00000000000E+00  0.00000000000E+00  0.15461856899E+03  0.15461856899E+03  0.00000000000E+00 0.  1.
          2   -1    0    0  501    0  0.00000000000E+00 -0.00000000000E+00 -0.14284930130E+03  0.14284930130E+03  0.00000000000E+00 0. -1.
         25    2    1    2    0    0  0.47551255301E+02 -0.37154341025E+02  0.88950853319E+02  0.16492296773E+03  0.12508302858E+03 0.  0.
         23    2    1    2    0    0 -0.47551255301E+02  0.37154341025E+02 -0.77181585629E+02  0.13254490257E+03  0.89272543925E+02 0.  0.
          5    1    3    3  502    0  0.81256494864E+02 -0.11009329226E+02  0.21276368370E+02  0.84817330415E+02  0.41800000000E+01 0.  1.
         -5    1    3    3    0  502 -0.33705239563E+02 -0.26145011799E+02  0.67674484949E+02  0.80105637311E+02  0.41800000000E+01 0.  1.
        -11    1    4    4    0    0 -0.55889411384E+02  0.24741462418E+02 -0.78545672053E+01  0.61623538468E+02  0.00000000000E+00 0.  1.
         11    1    4    4    0    0  0.83381560827E+01  0.12412878607E+02 -0.69327018424E+02  0.70921364099E+02  0.00000000000E+00 0. -1.
</event>
<event>
 8    1  0.6627806E-009  0.1735598E+03  0.7561462E-02  0.1174186E+00
          2   -1    0    0  501    0  0.00000000000E+00  0.00000000000E+00  0.87540344378E+03  0.87540344378E+03  0.00000000000E+00 0.  1.
         -2   -1    0    0    0  501 -0.00000000000E+00 -0.00000000000E+00 -0.35524442143E+02  0.35524442143E+02  0.00000000000E+00 0. -1.
         25    2    1    2    0    0 -0.10281020668E+03  0.92882400611E+02  0.43369897786E+03  0.47216342953E+03  0.12508565805E+03 0.  0.
         23    2    1    2    0    0  0.10281020668E+03 -0.92882400611E+02  0.40618002378E+03  0.43876445639E+03  0.91295988615E+02 0.  0.
          5    1    3    3  502    0 -0.83432314171E+02  0.12097935566E+03  0.38838331634E+03  0.41527825413E+03  0.41800000000E+01 0. -1.
         -5    1    3    3    0  502 -0.19377892505E+02 -0.28096955052E+02  0.45315661517E+02  0.56885175396E+02  0.41800000000E+01 0. -1.
        -11    1    4    4    0    0  0.10586199182E+03 -0.40657597581E+02  0.28809090879E+03  0.30960648133E+03  0.00000000000E+00 0. -1.
         11    1    4    4    0    0 -0.30517851434E+01 -0.52224803030E+02  0.11808911499E+03  0.12915797507E+03  0.00000000000E+00 0.  1.
</event>
<event>
 8    1  0.6627806E-009  0.9145230E+02  0.7561462E-02  0.1299372E+00
          4   -1    0    0  501    0  0.00000000000E+00  0.00000000000E+00  0.62010303114E+02  0.62010303114E+02  0.00000000000E+00 0. -1.
         -4   -1    0    0    0  501 -0.00000000000E+00 -0.00000000000E+00 -0.24003310987E+03  0.24003310987E+03  0.00000000000E+00 0.  1.
         25    2    1    2    0    0  0.52401216748E+02 -0.16845910880E+02 -0.11576309101E+03  0.17909900598E+03  0.12508272652E+03 0.  0.
         23    2    1    2    0    0 -0.52401216748E+02  0.16845910880E+02 -0.62259715741E+02  0.12294440700E+03  0.90605644293E+02 0.  0.
          5    1    3    3  502    0  0.65375615123E+02 -0.98503116594E+01 -0.13742953316E+03  0.15256260576E+03  0.41800000000E+01 0.  1.
         -5    1    3    3    0  502 -0.12974398375E+02 -0.69955992202E+01  0.21666442144E+02  0.26536400224E+02  0.41800000000E+01 0.  1.
        -11    1    4    4    0    0 -0.28071204338E+02  0.51701418937E+02 -0.17870094719E+02  0.61484709631E+02  0.00000000000E+00 0. -1.
         11    1    4    4    0    0 -0.24330012410E+02 -0.34855508058E+02 -0.44389621023E+02  0.61459697366E+02  0.00000000000E+00 0.  1.
</event>
<event>
 8    1  0.6627806E-009  0.1066006E+03  0.7561462E-02  0.1266998E+00
         -1   -1    0    0    0  501 -0.00000000000E+00  0.00000000000E+00  0.84675740277E+03  0.84675740277E+03  0.00000000000E+00 0.  1.
          1   -1    0    0  501    0  0.00000000000E+00 -0.00000000000E+00 -0.14467450683E+02  0.14467450683E+02  0.00000000000E+00 0. -1.
         25    2    1    2    0    0 -0.91665391196E+01 -0.24591299255E+02  0.49587202651E+03  0.51207848667E+03  0.12508617987E+03 0.  0.
         23    2    1    2    0    0  0.91665391196E+01  0.24591299255E+02  0.33641792558E+03  0.34914636678E+03  0.89651588669E+02 0.  0.
          5    1    3    3  502    0 -0.47691985308E+02  0.27420265091E+02  0.31798576197E+03  0.32273644606E+03  0.41800000000E+01 0. -1.
         -5    1    3    3    0  502  0.38525446188E+02 -0.52011564346E+02  0.17788626454E+03  0.18934204061E+03  0.41800000000E+01 0. -1.
        -11    1    4    4    0    0  0.22542051192E+01 -0.34048829945E+02  0.11128482886E+03  0.11639895788E+03  0.00000000000E+00 0.  1.
         11    1    4    4    0    0  0.69123340004E+01  0.58640129201E+02  0.22513309671E+03  0.23274740890E+03  0.00000000000E+00 0. -1.
</event>
<event>
 8    1  0.6627806E-009  0.1151265E+03  0.7561462E-02  0.1251360E+00
          1   -1    0    0  501    0  0.00000000000E+00  0.00000000000E+00  0.56232005635E+03  0.56232005635E+03  0.00000000000E+00 0. -1.
         -1   -1    0    0    0  501 -0.00000000000E+00 -0.00000000000E+00 -0.34972174435E+02  0.34972174435E+02  0.00000000000E+00 0.  1.
         25    2    1    2    0    0 -0.40805185711E+02 -0.75108318640E+02  0.24214441177E+03  0.28563554852E+03  0.12508967871E+03 0.  0.
         23    2    1    2    0    0  0.40805185711E+02  0.75108318640E+02  0.28520347015E+03  0.31165668227E+03  0.92100735633E+02 0.  0.
          5    1    3    3  502    0 -0.16177667401E+02  0.78265065171E+01  0.17519068732E+03  0.17615964479E+03  0.41800000000E+01 0.  1.
         -5    1    3    3    0  502 -0.24627518310E+02 -0.82934825157E+02  0.66953724445E+02  0.10947590374E+03  0.41800000000E+01 0.  1.
        -11    1    4    4    0    0  0.66333819199E+02  0.74359826104E+02  0.23723151356E+03  0.25730983334E+03  0.00000000000E+00 0. -1.
         11    1    4    4    0    0 -0.25528633488E+02  0.74849253664E+00  0.47971956595E+02  0.54346848928E+02  0.00000000000E+00 0.  1.
</event>
<event>
 8    1  0.6627806E-009  0.9451620E+02  0.7561462E-02  0.1292269E+00
         -1   -1    0    0    0  501 -0.00000000000E+00  0.00000000000E+00  0.27901423096E+02  0.27901423096E+02  0.00000000000E+00 0.  1.
          1   -1    0    0  501    0  0.00000000000E+00 -0.00000000000E+00 -0.42918355491E+03  0.42918355491E+03  0.00000000000E+00 0. -1.
         25    2    1    2    0    0  0.96152401988E+01 -0.11260921802E+02 -0.23908921686E+03  0.27024137803E+03  0.12508991797E+03 0.  0.
         23    2    1    2    0    0 -0.96152401988E+01  0.11260921802E+02 -0.16219291496E+03  0.18684359998E+03  0.91568160330E+02 0.  0.
          5    1    3    3  502    0  0.65265592153E+02 -0.21774457679E+02 -0.12265006934E+03  0.14069199137E+03  0.41800000000E+01 0.  1.
         -5    1    3    3    0  502 -0.55650351955E+02  0.10513535877E+02 -0.11643914751E+03  0.12954938665E+03  0.41800000000E+01 0.  1.
        -11    1    4    4    0    0  0.45104087631E+01  0.35216697198E+02 -0.15372630644E+03  0.15777305486E+03  0.00000000000E+00 0. -1.
         11    1    4    4    0    0 -0.14125648962E+02 -0.23955775395E+02 -0.84666085133E+01  0.29070545112E+02  0.00000000000E+00 0.  1.
</event>
<event>
 8    1  0.6627806E-009  0.1961056E+03  0.7561462E-02  0.1153067E+00
         -1   -1    0    0    0  501 -0.00000000000E+00  0.00000000000E+00  0.18844887474E+03  0.18844887474E+03  0.00000000000E+00 0.  1.
          1   -1    0    0  501    0  0.00000000000E+00 -0.00000000000E+00 -0.31200732364E+03  0.31200732364E+03  0.00000000000E+00 0. -1.
         25    2    1    2    0    0  0.16944513257E+03 -0.61890024923E+02  0.59887058728E+02  0.22754316553E+03  0.12508958485E+03 0.  0.
         23    2    1    2    0    0 -0.16944513257E+03  0.61890024923E+02 -0.18344550763E+03  0.27291303286E+03  0.91034285289E+02 0.  0.
          5    1    3    3  502    0  0.16108062188E+03 -0.72800739121E+02  0.86845866668E+02  0.19699388650E+03  0.41800000000E+01 0. -1.
         -5    1    3    3    0  502  0.83645106906E+01  0.10910714198E+02 -0.26958807940E+02  0.30549279025E+02  0.41800000000E+01 0. -1.
        -11    1    4    4    0    0 -0.92199762024E+02 -0.13386173834E+02 -0.71310517476E+02  0.11732508542E+03  0.00000000000E+00 0.  1.
         11    1    4    4    0    0 -0.77245370546E+02  0.75276198757E+02 -0.11213499015E+03  0.15558794743E+03  0.00000000000E+00 0. -1.
</event>
<event>
 8    1  0.6627806E-009  0.9655332E+02  0.7561462E-02  0.1287715E+00
          2   -1    0    0  501    0  0.00000000000E+00  0.00000000000E+00  0.32307042272E+03  0.32307042272E+03  0.00000000000E+00 0. -1.
         -2   -1    0    0    0  501 -0.00000000000E+00 -0.00000000000E+00 -0.52181578904E+02  0.52181578904E+02  0.00000000000E+00 0.  1.
         25    2    1    2    0    0  0.10184179263E+02 -0.64662263453E+02  0.18851493911E+03  0.23552089239E+03  0.12508909890E+03 0.  0.
         23    2    1    2    0    0 -0.10184179263E+02  0.64662263453E+02  0.82373904714E+02  0.13973110924E+03  0.91947794367E+02 0.  0.
          5    1    3    3  502    0 -0.34976903677E+02 -0.72920341828E+02  0.65514169077E+02  0.10416495953E+03  0.41800000000E+01 0.  1.
         -5    1    3    3    0  502  0.45161082940E+02  0.82580783753E+01  0.12300077003E+03  0.13135593286E+03  0.41800000000E+01 0.  1.
        -11    1    4    4    0    0 -0.10132892004E+02  0.37022895815E+02 -0.12927218919E+02  0.40502880192E+02  0.00000000000E+00 0.  1.
         11    1    4    4    0    0 -0.51287258961E-01  0.27639367638E+02  0.95301123633E+02  0.99228229045E+02  0.00000000000E+00 0. -1.
</event>
<event>
 8    1  0.6627806E-009  0.1120074E+03  0.7561462E-02  0.1256897E+00
          1   -1    0    0  501    0  0.00000000000E+00  0.00000000000E+00  0.45602320071E+03  0.45602320071E+03  0.00000000000E+00 0. -1.
         -1   -1    0    0    0  501 -0.00000000000E+00 -0.00000000000E+00 -0.28654223621E+02  0.28654223621E+02  0.00000000000E+00 0.  1.
         25    2    1    2    0    0 -0.34493916846E+02  0.58335451220E+00  0.22770947839E+03  0.26208442901E+03  0.12508585362E+03 0.  0.
         23    2    1    2    0    0  0.34493916846E+02 -0.58335451220E+00  0.19965949870E+03  0.22259299533E+03  0.92160487984E+02 0.  0.
          5    1    3    3  502    0 -0.38167746578E+02 -0.58599445671E+02  0.13131898890E+03  0.14883823823E+03  0.41800000000E+01 0.  1.
         -5    1    3    3    0  502  0.36738297325E+01  0.59182800183E+02  0.96390489492E+02  0.11324619078E+03  0.41800000000E+01 0.  1.
        -11    1    4    4    0    0 -0.26837144405E+02 -0.16038436380E+02  0.97979160899E+02  0.10284638901E+03  0.00000000000E+00 0. -1.
         11    1    4    4    0    0  0.61331061250E+02  0.15455081868E+02  0.10168033780E+03  0.11974660632E+03  0.00000000000E+00 0.  1.
</event>
<event>
 8    1  0.6627806E-009  0.1037096E+03  0.7561462E-02  0.1272683E+00
         -2   -1    0    0    0  501 -0.00000000000E+00  0.00000000000E+00  0.22239305184E+02  0.22239305184E+02  0.00000000000E+00 0.  1.
          2   -1    0    0  501    0  0.00000000000E+00 -0.00000000000E+00 -0.22978370191E+04  0.22978370191E+04  0.00000000000E+00 0. -1.
         25    2    1    2    0    0  0.11022552498E+02  0.35581666567E+02 -0.21790252079E+04  0.21829302786E+04  0.12508474299E+03 0.  0.
         23    2    1    2    0    0 -0.11022552498E+02 -0.35581666567E+02 -0.96572506006E+02  0.13714604567E+03  0.89973536483E+02 0.  0.
          5    1    3    3  502    0  0.59605356884E+02  0.33806160088E+02 -0.17091649357E+04  0.17105431607E+04  0.41800000000E+01 0. -1.
         -5    1    3    3    0  502 -0.48582804386E+02  0.17755064786E+01 -0.46986027221E+03  0.47238711785E+03  0.41800000000E+01 0. -1.
        -11    1    4    4    0    0 -0.46761071869E+02 -0.22736191471E+02 -0.28749383312E+02  0.59414302030E+02  0.00000000000E+00 0.  1.
         11    1    4    4    0    0  0.35738519371E+02 -0.12845475096E+02 -0.67823122694E+02  0.77731743639E+02  0.00000000000E+00 0. -1.
</event>
<event>
 8    1  0.6627806E-009  0.1515619E+03  0.7561462E-02  0.1198567E+00
          2   -1    0    0  501    0  0.00000000000E+00  0.00000000000E+00  0.78870214219E+03  0.78870214219E+03  0.00000000000E+00 0. -1.
         -2   -1    0    0    0  501 -0.00000000000E+00 -0.00000000000E+00 -0.67000292594E+02  0.67000292594E+02  0.00000000000E+00 0.  1.
         25    2    1    2    0    0 -0.22681628348E+02  0.10923022945E+03  0.68776515093E+03  0.70789434155E+03  0.12509115344E+03 0.  0.
         23    2    1    2    0    0  0.22681628348E+02 -0.10923022945E+03  0.33936698668E+02  0.14780809324E+03  0.90828594725E+02 0.  0.
          5    1    3    3  502    0  0.58209354340E+00 -0.25641381004E+02  0.18502305019E+03  0.18683902364E+03  0.41800000000E+01 0. -1.
         -5    1    3    3    0  502 -0.23263721891E+02  0.13487161046E+03  0.50274210074E+03  0.52105531791E+03  0.41800000000E+01 0. -1.
        -11    1    4    4    0    0 -0.30788341663E+02 -0.60420487430E+02 -0.90211644424E-01  0.67812723156E+02  0.00000000000E+00 0.  1.
         11    1    4    4    0    0  0.53469970011E+02 -0.48809742022E+02  0.34026910313E+02  0.79995370083E+02  0.00000000000E+00 0. -1.
</event>
<event>
 7    1  0.6627806E-009  0.7228645E+02  0.7561462E-02  0.1352486E+00
          2   -1    0    0  501    0  0.00000000000E+00  0.00000000000E+00  0.18176159649E+03  0.18176159649E+03  0.00000000000E+00 0. -1.
         -2   -1    0    0    0  501 -0.00000000000E+00 -0.00000000000E+00 -0.74509366048E+02  0.74509366048E+02  0.00000000000E+00 0.  1.
         23    2    1    2    0    0 -0.10773882776E+02 -0.16534398281E+02  0.51654637783E+02  0.10624699045E+03  0.90723527813E+02 0.  0.
          5    1    1    2  502    0  0.22661396151E+02  0.54426213523E+02  0.82782918525E+02  0.10171644702E+03  0.41800000000E+01 0.  1.
         -5    1    1    2    0  502 -0.11887513375E+02 -0.37891815243E+02 -0.27185325862E+02  0.48307525075E+02  0.41800000000E+01 0.  1.
        -11    1    3    3    0    0  0.12674450356E+02 -0.18032458027E+02  0.71918176603E+02  0.75219913322E+02  0.00000000000E+00 0. -1.
         11    1    3    3    0    0 -0.23448333132E+02  0.14980597466E+01 -0.20263538820E+02  0.31027077129E+02  0.00000000000E+00 0.  1.
</event>
<event>
 8    1  0.6627806E-009  0.9965542E+02  0.7561462E-02  0.1281022E+00
          2   -1    0    0  501    0  0.00000000000E+00  0.00000000000E+00  0.17047946039E+03  0.17047946039E+03  0.00000000000E+00 0. -1.
         -2   -1    0    0    0  501 -0.00000000000E+00 -0.00000000000E+00 -0.74025156254E+02  0.74025156254E+02  0.00000000000E+00 0.  1.
         25    2    1    2    0    0 -0.27093896214E+02  0.11464192230E+02  0.54603762540E+02  0.13962386527E+03  0.12509095073E+03 0.  0.
         23    2    1    2    0    0  0.27093896214E+02 -0.11464192230E+02  0.41850541601E+02  0.10488075137E+03  0.91558709367E+02 0.  0.
          5    1    3    3  502    0  0.39631784020E+02  0.38676778362E+02  0.16135846589E+02  0.57830869216E+02  0.41800000000E+01 0. -1.
         -5    1    3    3    0  502 -0.66725680234E+02 -0.27212586132E+02  0.38467915951E+02  0.81792996059E+02  0.41800000000E+01 0. -1.
        -11    1    4    4    0    0 -0.13829602277E+02 -0.24932648988E+02  0.53173299777E+02  0.60334854718E+02  0.00000000000E+00 0. -1.
         11    1    4    4    0    0  0.40923498491E+02  0.13468456758E+02 -0.11322758176E+02  0.44545896656E+02  0.00000000000E+00 0.  1.
</event>
<event>
 8    1  0.6627806E-009  0.8482775E+02  0.7561462E-02  0.1315884E+00
         -2   -1    0    0    0  501 -0.00000000000E+00  0.00000000000E+00  0.16285739611E+03  0.16285739611E+03  0.00000000000E+00 0.  1.
          2   -1    0    0  501    0  0.00000000000E+00 -0.00000000000E+00 -0.10212109454E+03  0.10212109454E+03  0.00000000000E+00 0. -1.
         25    2    1    2    0    0 -0.63081252839E+00 -0.24420567320E+02  0.10165823433E+03  0.16303967271E+03  0.12510306247E+03 0.  0.
         23    2    1    2    0    0  0.63081252839E+00  0.24420567320E+02 -0.40921932765E+02  0.10193881793E+03  0.90111908135E+02 0.  0.
          5    1    3    3  502    0  0.51655477031E+02 -0.42023829121E+02  0.31762867526E+02  0.73896161435E+02  0.41800000000E+01 0. -1.
         -5    1    3    3    0  502 -0.52286289560E+02  0.17603261801E+02  0.69895366809E+02  0.89143511280E+02  0.41800000000E+01 0. -1.
        -11    1    4    4    0    0  0.19810605947E+02  0.19515950893E+02 -0.65040340481E+02  0.70735976258E+02  0.00000000000E+00 0. -1.
         11    1    4    4    0    0 -0.19179793418E+02  0.49046164272E+01  0.24118407716E+02  0.31202841676E+02  0.00000000000E+00 0.  1.
</event>
<event>
 8    1  0.6627806E-009  0.7669429E+02  0.7561462E-02  0.1338703E+00
         -3   -1    0    0    0  501 -0.00000000000E+00  0.00000000000E+00  0.13407157608E+03  0.13407157608E+03  0.00000000000E+00 0.  1.
          3   -1    0    0  501    0  0.00000000000E+00 -0.00000000000E+00 -0.86654484720E+02  0.86654484720E+02  0.00000000000E+00 0. -1.
         25    2    1    2    0    0  0.24472473608E+01 -0.11187273427E+02  0.27239911816E+02  0.12853558222E+03  0.12509292144E+03 0.  0.
         23    2    1    2    0    0 -0.24472473608E+01  0.11187273427E+02  0.20177179541E+02  0.92190478581E+02  0.89223436721E+02 0.  0.
          5    1    3    3  502    0 -0.21875770686E+02  0.39967257814E+02 -0.24329417432E+02  0.51820111857E+02  0.41800000000E+01 0. -1.
         -5    1    3    3    0  502  0.24323018047E+02 -0.51154531242E+02  0.51569329248E+02  0.76715470360E+02  0.41800000000E+01 0. -1.
        -11    1    4    4    0    0 -0.63133888290E+01 -0.19197190068E+02 -0.28343949772E+02  0.34810493729E+02  0.00000000000E+00 0. -1.
         11    1    4    4    0    0  0.38661414681E+01  0.30384463496E+02  0.48521129313E+02  0.57379984852E+02  0.00000000000E+00 0.  1.
</event>
<event>
 8    1  0.6627806E-009  0.1081714E+03  0.7561462E-02  0.1263994E+00
          2   -1    0    0  501    0  0.00000000000E+00  0.00000000000E+00  0.26110075610E+03  0.26110075610E+03  0.00000000000E+00 0. -1.
         -2   -1    0    0    0  501 -0.00000000000E+00 -0.00000000000E+00 -0.58988260079E+02  0.58988260079E+02  0.00000000000E+00 0.  1.
         25    2    1    2    0    0 -0.39295512554E+02  0.45349681461E+02  0.10380793902E+03  0.17327701749E+03  0.12509238854E+03 0.  0.
         23    2    1    2    0    0  0.39295512554E+02 -0.45349681461E+02  0.98304557003E+02  0.14681199870E+03  0.91045297067E+02 0.  0.
          5    1    3    3  502    0 -0.45103929030E+02  0.85485545222E+02  0.83176598452E+02  0.12758511585E+03  0.41800000000E+01 0. -1.
         -5    1    3    3    0  502  0.58084164756E+01 -0.40135863761E+02  0.20631340570E+02  0.45691901640E+02  0.41800000000E+01 0. -1.
        -11    1    4    4    0    0 -0.82303912843E+01 -0.26419297551E+02  0.91026456521E+02  0.95139552293E+02  0.00000000000E+00 0. -1.
         11    1    4    4    0    0  0.47525903839E+02 -0.18930383910E+02  0.72781004823E+01  0.51672446403E+02  0.00000000000E+00 0.  1.
</event>
<event>
 8    1  0.6627806E-009  0.8996696E+02  0.7561462E-02  0.1302932E+00
          1   -1    0    0  501    0  0.00000000000E+00  0.00000000000E+00  0.12819487587E+03  0.12819487587E+03  0.00000000000E+00 0. -1.
         -1   -1    0    0    0  501 -0.00000000000E+00 -0.00000000000E+00 -0.11294052273E+03  0.11294052273E+03  0.00000000000E+00 0.  1.
         25    2    1    2    0    0  0.38329967142E+02 -0.63029983252E+01 -0.24047598948E+01  0.13100615561E+03  0.12509162949E+03 0.  0.
         23    2    1    2    0    0 -0.38329967142E+02  0.63029983252E+01  0.17659113030E+02  0.11012924299E+03  0.10152680296E+03 0.  0.
          5    1    3    3  502    0 -0.81498617346E+01  0.31173127136E+02  0.44405351947E+02  0.55022647912E+02  0.41800000000E+01 0.  1.
         -5    1    3    3    0  502  0.46479828877E+02 -0.37476125461E+02 -0.46810111842E+02  0.75983507701E+02  0.41800000000E+01 0.  1.
        -11    1    4    4    0    0 -0.50517208348E+02  0.31547257619E+02 -0.20316265877E+02  0.62928280302E+02  0.00000000000E+00 0.  1.
         11    1    4    4    0    0  0.12187241206E+02 -0.25244259294E+02  0.37975378907E+02  0.47200962688E+02  0.00000000000E+00 0. -1.
</event>
<event>
 8    1  0.6627806E-009  0.1473513E+03  0.7561462E-02  0.1203766E+00
          1   -1    0    0  501    0  0.00000000000E+00  0.00000000000E+00  0.20610416737E+02  0.20610416737E+02  0.00000000000E+00 0. -1.
         -1   -1    0    0    0  501 -0.00000000000E+00 -0.00000000000E+00 -0.12379166950E+04  0.12379166950E+04  0.00000000000E+00 0.  1.
         25    2    1    2    0    0  0.14130967692E+02  0.11181204432E+03 -0.52774756762E+03  0.55395587428E+03  0.12509195824E+03 0.  0.
         23    2    1    2    0    0 -0.14130967692E+02 -0.11181204432E+03 -0.68955871069E+03  0.70457123751E+03  0.90707197777E+02 0.  0.
          5    1    3    3  502    0 -0.21451532367E+02  0.11597180384E+03 -0.28383925811E+03  0.30739522503E+03  0.41800000000E+01 0. -1.
         -5    1    3    3    0  502  0.35582500059E+02 -0.41597595225E+01 -0.24390830951E+03  0.24656064925E+03  0.41800000000E+01 0. -1.
        -11    1    4    4    0    0  0.31962199806E+02 -0.75355373687E+02 -0.47995469780E+03  0.48688451043E+03  0.00000000000E+00 0. -1.
         11    1    4    4    0    0 -0.46093167499E+02 -0.36456670631E+02 -0.20960401290E+03  0.21768672708E+03  0.00000000000E+00 0.  1.
</event>
<event>
 8    1  0.6627806E-009  0.1537824E+03  0.7561462E-02  0.1195901E+00
         -2   -1    0    0    0  501 -0.00000000000E+00  0.00000000000E+00  0.39633355230E+02  0.39633355230E+02  0.00000000000E+00 0.  1.
          2   -1    0    0  501    0  0.00000000000E+00 -0.00000000000E+00 -0.70992916096E+03  0.70992916096E+03  0.00000000000E+00 0. -1.
         25    2    1    2    0    0 -0.10153912954E+02  0.12705781132E+03 -0.33631406395E+03  0.38079046948E+03  0.12508973848E+03 0.  0.
         23    2    1    2    0    0  0.10153912954E+02 -0.12705781132E+03 -0.33398174178E+03  0.36877204670E+03  0.90566159373E+02 0.  0.
          5    1    3    3  502    0 -0.28650520800E+02  0.12913116840E+03 -0.33663363032E+03  0.36171174222E+03  0.41800000000E+01 0.  1.
         -5    1    3    3    0  502  0.18496607846E+02 -0.20733570754E+01  0.31956637498E+00  0.19078727264E+02  0.41800000000E+01 0.  1.
        -11    1    4    4    0    0  0.37677739987E+02 -0.14654658136E+02 -0.95067001732E+02  0.10330588519E+03  0.00000000000E+00 0. -1.
         11    1    4    4    0    0 -0.27523827033E+02 -0.11240315318E+03 -0.23891474005E+03  0.26546616152E+03  0.00000000000E+00 0.  1.
</event>
<event>
 8    1  0.6627806E-009  0.1587428E+03  0.7561462E-02  0.1190124E+00
          3   -1    0    0  501    0  0.00000000000E+00  0.00000000000E+00  0.36554050240E+03  0.36554050240E+03  0.00000000000E+00 0. -1.
         -3   -1    0    0    0  501 -0.00000000000E+00 -0.00000000000E+00 -0.14104707137E+03  0.14104707137E+03  0.00000000000E+00 0.  1.
         25    2    1    2    0    0  0.14898561177E+03 -0.33997317213E+02  0.25769459983E+03  0.32466243064E+03  0.12508659799E+03 0.  0.
         23    2    1    2    0    0 -0.14898561177E+03  0.33997317213E+02 -0.33201168801E+02  0.18192514313E+03  0.92961873908E+02 0.  0.
          5    1    3    3  502    0  0.12429287645E+03 -0.50242084217E+02  0.10852257925E+03  0.17253292083E+03  0.41800000000E+01 0.  1.
         -5    1    3    3    0  502  0.24692735318E+02  0.16244767004E+02  0.14917202057E+03  0.15212950981E+03  0.41800000000E+01 0.  1.
        -11    1    4    4    0    0 -0.99732369111E+02  0.29723483481E+02 -0.65413519184E+02  0.12291850719E+03  0.00000000000E+00 0.  1.
         11    1    4    4    0    0 -0.49253242661E+02  0.42738337313E+01  0.32212350382E+02  0.59006635937E+02  0.00000000000E+00 0. -1.
</event>
<event>
 8    1  0.6627806E-009  0.1177480E+03  0.7561462E-02  0.1246859E+00
          4   -1    0    0  501    0  0.00000000000E+00  0.00000000000E+00  0.41097212792E+02  0.41097212792E+02  0.00000000000E+00 0. -1.
         -4   -1    0    0    0  501 -0.00000000000E+00 -0.00000000000E+00 -0.42106792467E+03  0.42106792467E+03  0.00000000000E+00 0.  1.
         25    2    1    2    0    0  0.20388190827E+02  0.68343081040E+02 -0.18074408427E+03  0.23108931513E+03  0.12508953800E+03 0.  0.
         23    2    1    2    0    0 -0.20388190827E+02 -0.68343081040E+02 -0.19922662760E+03  0.23107582233E+03  0.92834968993E+02 0.  0.
          5    1    3    3  502    0  0.64263250064E+02  0.50003360290E+02 -0.15888936577E+03  0.17858724564E+03  0.41800000000E+01 0.  1.
         -5    1    3    3    0  502 -0.43875059238E+02  0.18339720750E+02 -0.21854718504E+02  0.52502069495E+02  0.41800000000E+01 0.  1.
        -11    1    4    4    0    0 -0.50665448279E+02 -0.37740367536E+02 -0.16298954800E+03  0.17480536533E+03  0.00000000000E+00 0. -1.
         11    1    4    4    0    0  0.30277257452E+02 -0.30602713504E+02 -0.36237079600E+02  0.56270456996E+02  0.00000000000E+00 0.  1.
</event>
<event>
 8    1  0.6627806E-009  0.1320483E+03  0.7561462E-02  0.1224448E+00
          3   -1    0    0  501    0  0.00000000000E+00  0.00000000000E+00  0.88473951871E+02  0.88473951871E+02  0.00000000000E+00 0. -1.
         -3   -1    0    0    0  501 -0.00000000000E+00 -0.00000000000E+00 -0.21191347345E+03  0.21191347345E+03  0.00000000000E+00 0.  1.
         25    2    1    2    0    0 -0.14750495212E+02 -0.81619729132E+02 -0.71513220016E+02  0.16625186549E+03  0.12508471069E+03 0.  0.
         23    2    1    2    0    0  0.14750495212E+02  0.81619729132E+02 -0.51926301567E+02  0.13413555984E+03  0.91742303905E+02 0.  0.
          5    1    3    3  502    0 -0.40995285573E+02  0.19454170453E+02 -0.22433646941E+02  0.50791919656E+02  0.41800000000E+01 0.  1.
         -5    1    3    3    0  502  0.26244790361E+02 -0.10107389958E+03 -0.49079573075E+02  0.11545994583E+03  0.41800000000E+01 0.  1.
        -11    1    4    4    0    0 -0.28767966476E+02  0.10468900934E+02  0.77512687957E+01  0.31579676216E+02  0.00000000000E+00 0. -1.
         11    1    4    4    0    0  0.43518461688E+02  0.71150828198E+02 -0.59677570363E+02  0.10255588362E+03  0.00000000000E+00 0.  1.
</event>
<event>
 8    1  0.6627806E-009  0.1586761E+03  0.7561462E-02  0.1190200E+00
         -2   -1    0    0    0  501 -0.00000000000E+00  0.00000000000E+00  0.23051252413E+02  0.23051252413E+02  0.00000000000E+00 0.  1.
          2   -1    0    0  501    0  0.00000000000E+00 -0.00000000000E+00 -0.12139206190E+04  0.12139206190E+04  0.00000000000E+00 0. -1.
         25    2    1    2    0    0 -0.52681083455E+01 -0.12627089793E+03 -0.69694096809E+03  0.71926830433E+03  0.12509231783E+03 0.  0.
         23    2    1    2    0    0  0.52681083455E+01  0.12627089793E+03 -0.49392839848E+03  0.51770356707E+03  0.89886750401E+02 0.  0.
          5    1    3    3  502    0 -0.35727775569E+02 -0.13843322210E+03 -0.60116857046E+03  0.61794931300E+03  0.41800000000E+01 0.  1.
         -5    1    3    3    0  502  0.30459667224E+02  0.12162324163E+02 -0.95772397622E+02  0.10131899132E+03  0.41800000000E+01 0.  1.
        -11    1    4    4    0    0  0.34279759801E+02  0.66214813582E+02 -0.36507981130E+03  0.37261611893E+03  0.00000000000E+00 0.  1.
         11    1    4    4    0    0 -0.29011651455E+02  0.60056084351E+02 -0.12884858719E+03  0.14508744814E+03  0.00000000000E+00 0. -1.
</event>
<event>
 8    1  0.6627806E-009  0.1576670E+03  0.7561462E-02  0.1191356E+00
         -1   -1    0    0    0  501 -0.00000000000E+00  0.00000000000E+00  0.90431598969E+02  0.90431598969E+02  0.00000000000E+00 0.  1.
          1   -1    0    0  501    0  0.00000000000E+00 -0.00000000000E+00 -0.42000164811E+03  0.42000164811E+03  0.00000000000E+00 0. -1.
         25    2    1    2    0    0  0.15330803859E+03  0.21332545654E+02 -0.23451662615E+03  0.30757708449E+03  0.12508869959E+03 0.  0.
         23    2    1    2    0    0 -0.15330803859E+03 -0.21332545654E+02 -0.95053422996E+02  0.20285616259E+03  0.90316317890E+02 0.  0.
          5    1    3    3  502    0  0.12982430154E+03  0.32814381832E+02 -0.24489298915E+03  0.27914365739E+03  0.41800000000E+01 0. -1.
         -5    1    3    3    0  502  0.23483737047E+02 -0.11481836178E+02  0.10376363003E+02  0.28433427104E+02  0.41800000000E+01 0. -1.
        -11    1    4    4    0    0 -0.67766116399E+02 -0.12277263019E+02 -0.94377541466E+02  0.11683363408E+03  0.00000000000E+00 0.  1.
         11    1    4    4    0    0 -0.85541922189E+02 -0.90552826350E+01 -0.67588153066E+00  0.86022528510E+02  0.00000000000E+00 0. -1.
</event>
<event>
 8    1  0.6627806E-009  0.1446000E+03  0.7561462E-02  0.1207270E+00
          2   -1    0    0  501    0  0.00000000000E+00  0.00000000000E+00  0.25963126908E+03  0.25963126908E+03  0.00000000000E+00 0. -1.
         -2   -1    0    0    0  501 -0.00000000000E+00 -0.00000000000E+00 -0.85702265136E+02  0.85702265136E+02  0.00000000000E+00 0.  1.
         25    2    1    2    0    0 -0.10229870853E+03 -0.26991061750E+01  0.91945837611E+02  0.18593735354E+03  0.12508537663E+03 0.  0.
         23    2    1    2    0    0  0.10229870853E+03  0.26991061750E+01  0.81983166335E+02  0.15939618068E+03  0.90628869094E+02 0.  0.
          5    1    3    3  502    0 -0.11312378962E+03  0.34467737290E+02  0.49301863065E+02  0.12819189831E+03  0.41800000000E+01 0.  1.
         -5    1    3    3    0  502  0.10825081092E+02 -0.37166843465E+02  0.42643974547E+02  0.57745455224E+02  0.41800000000E+01 0.  1.
        -11    1    4    4    0    0  0.96997943976E+02  0.32011617118E+02  0.44235952129E+02  0.11131111457E+03  0.00000000000E+00 0. -1.
         11    1    4    4    0    0  0.53007645499E+01 -0.29312510943E+02  0.37747214206E+02  0.48085066111E+02  0.00000000000E+00 0.  1.
</event>
<event>
 8    1  0.6627806E-009  0.1344205E+03  0.7561462E-02  0.1221040E+00
         -3   -1    0    0    0  501 -0.00000000000E+00  0.00000000000E+00  0.41759282614E+02  0.41759282614E+02  0.00000000000E+00 0.  1.
          3   -1    0    0  501    0  0.00000000000E+00 -0.00000000000E+00 -0.50594020408E+03  0.50594020408E+03  0.00000000000E+00 0. -1.
         25    2    1    2    0    0  0.59921083843E+02  0.72834457046E+02 -0.29794169392E+03  0.33662011659E+03  0.12509378679E+03 0.  0.
         23    2    1    2    0    0 -0.59921083843E+02 -0.72834457046E+02 -0.16623922755E+03  0.21107937011E+03  0.89574691113E+02 0.  0.
          5    1    3    3  502    0  0.43140089804E+02  0.10819694536E+03 -0.23628652968E+03  0.26347000368E+03  0.41800000000E+01 0. -1.
         -5    1    3    3    0  502  0.16780994040E+02 -0.35362488310E+02 -0.61655164244E+02  0.73150112907E+02  0.41800000000E+01 0. -1.
        -11    1    4    4    0    0 -0.23129435242E+01 -0.51403877887E+02 -0.12979384889E+03  0.13962145817E+03  0.00000000000E+00 0. -1.
         11    1    4    4    0    0 -0.57608140319E+02 -0.21430579159E+02 -0.36445378652E+02  0.71457911943E+02  0.00000000000E+00 0.  1.
</event>
<event>
 8    1  0.6627806E-009  0.1353673E+03  0.7561462E-02  0.1219702E+00
         -1   -1    0    0    0  501 -0.00000000000E+00  0.00000000000E+00  0.29028230473E+02  0.29028230473E+02  0.00000000000E+00 0.  1.
          1   -1    0    0  501    0  0.00000000000E+00 -0.00000000000E+00 -0.69470961290E+03  0.69470961290E+03  0.00000000000E+00 0. -1.
         25    2    1    2    0    0  0.53344884104E+02  0.74388889380E+02 -0.38825793083E+03  0.41805679319E+03  0.12509147836E+03 0.  0.
         23    2    1    2    0    0 -0.53344884104E+02 -0.74388889380E+02 -0.27742345160E+03  0.30568105018E+03  0.89987495910E+02 0.  0.
          5    1    3    3  502    0  0.89163853152E+02  0.62918317707E+02 -0.22023108927E+03  0.24582130195E+03  0.41800000000E+01 0. -1.
         -5    1    3    3    0  502 -0.35818969048E+02  0.11470571673E+02 -0.16802684156E+03  0.17223549124E+03  0.41800000000E+01 0. -1.
        -11    1    4    4    0    0  0.22311410041E+02 -0.10491028262E+02 -0.94598111141E+02  0.97758188012E+02  0.00000000000E+00 0.  1.
         11    1    4    4    0    0 -0.75656294145E+02 -0.63897861119E+02 -0.18282534046E+03  0.20792286217E+03  0.00000000000E+00 0. -1.
</event>
<event>
 8    1  0.6627806E-009  0.1009912E+03  0.7561462E-02  0.1278225E+00
         -1   -1    0    0    0  501 -0.00000000000E+00  0.00000000000E+00  0.30809264810E+02  0.30809264810E+02  0.00000000000E+00 0.  1.
          1   -1    0    0  501    0  0.00000000000E+00 -0.00000000000E+00 -0.52547189067E+03  0.52547189067E+03  0.00000000000E+00 0. -1.
         25    2    1    2    0    0  0.50260586790E+02 -0.39242260784E+02 -0.22067795361E+03  0.26155655753E+03  0.12508793691E+03 0.  0.
         23    2    1    2    0    0 -0.50260586790E+02  0.39242260784E+02 -0.27398467225E+03  0.29472459795E+03  0.87914199043E+02 0.  0.
          5    1    3    3  502    0 -0.11992835553E+02  0.89257652855E+01  0.95387148978E+01  0.18219683653E+02  0.41800000000E+01 0. -1.
         -5    1    3    3    0  502  0.62253422343E+02 -0.48168026070E+02 -0.23021666851E+03  0.24333687387E+03  0.41800000000E+01 0. -1.
        -11    1    4    4    0    0  0.22637712012E+02  0.24320938928E+02 -0.10368068530E+03  0.10887450840E+03  0.00000000000E+00 0. -1.
         11    1    4    4    0    0 -0.72898298802E+02  0.14921321857E+02 -0.17030398695E+03  0.18585008955E+03  0.00000000000E+00 0.  1.
</event>
<event>
 8    1  0.6627806E-009  0.8993690E+02  0.7561462E-02  0.1303005E+00
          2   -1    0    0  501    0  0.00000000000E+00  0.00000000000E+00  0.12725725662E+04  0.12725725662E+04  0.00000000000E+00 0. -1.
         -2   -1    0    0    0  501 -0.00000000000E+00 -0.00000000000E+00 -0.11834526175E+02  0.11834526175E+02  0.00000000000E+00 0.  1.
         25    2    1    2    0    0  0.27008355754E+02  0.33675990722E+02  0.92241381382E+03  0.93185707444E+03  0.12508732803E+03 0.  0.
         23    2    1    2    0    0 -0.27008355754E+02 -0.33675990722E+02  0.33832422623E+03  0.35255001795E+03  0.89245221017E+02 0.  0.
          5    1    3    3  502    0 -0.30396301848E+02 -0.36914707688E+01  0.65664536995E+03  0.65737217495E+03  0.41800000000E+01 0.  1.
         -5    1    3    3    0  502  0.57404657602E+02  0.37367461491E+02  0.26576844386E+03  0.27448489949E+03  0.41800000000E+01 0.  1.
        -11    1    4    4    0    0  0.22635737916E+02 -0.56164255885E+01  0.25443621223E+02  0.34515195615E+02  0.00000000000E+00 0.  1.
         11    1    4    4    0    0 -0.49644093669E+02 -0.28059565134E+02  0.31288060500E+03  0.31803482234E+03  0.00000000000E+00 0. -1.
</event>
<event>
 8    1  0.6627806E-009  0.1497545E+03  0.7561462E-02  0.1200775E+00
         -2   -1    0    0    0  501 -0.00000000000E+00  0.00000000000E+00  0.22780163188E+03  0.22780163188E+03  0.00000000000E+00 0.  1.
          2   -1    0    0  501    0  0.00000000000E+00 -0.00000000000E+00 -0.18275790275E+03  0.18275790275E+03  0.00000000000E+00 0. -1.
         25    2    1    2    0    0  0.12326463953E+03  0.71146748080E+02 -0.74985991701E+02  0.20377888983E+03  0.12508759277E+03 0.  0.
         23    2    1    2    0    0 -0.12326463953E+03 -0.71146748080E+02  0.12002972084E+03  0.20678064480E+03  0.89972607265E+02 0.  0.
          5    1    3    3  502    0  0.66507626825E+02  0.63536202049E+02 -0.10445365729E+03  0.13924134558E+03  0.41800000000E+01 0.  1.
         -5    1    3    3    0  502  0.56757012708E+02  0.76105460309E+01  0.29467665590E+02  0.64537544250E+02  0.41800000000E+01 0.  1.
        -11    1    4    4    0    0 -0.85382180906E+02 -0.22380661176E+02  0.22073330247E+02  0.90984848844E+02  0.00000000000E+00 0. -1.
         11    1    4    4    0    0 -0.37882458627E+02 -0.48766086904E+02  0.97956390593E+02  0.11579579596E+03  0.00000000000E+00 0.  1.
</event>
<event>
 8    1  0.6627806E-009  0.1038986E+03  0.7561462E-02  0.1272305E+00
         -1   -1    0    0    0  501 -0.00000000000E+00  0.00000000000E+00  0.50523831580E+02  0.50523831580E+02  0.00000000000E+00 0.  1.
          1   -1    0    0  501    0  0.00000000000E+00 -0.00000000000E+00 -0.26712149048E+03  0.26712149048E+03  0.00000000000E+00 0. -1.
         25    2    1    2    0    0  0.20161557300E+02  0.17251454129E+02 -0.77667301982E+02  0.14957900409E+03  0.12505026032E+03 0.  0.
         23    2    1    2    0    0 -0.20161557300E+02 -0.17251454129E+02 -0.13893035691E+03  0.16806631796E+03  0.90777431666E+02 0.  0.
          5    1    3    3  502    0  0.62364001845E+02 -0.17972213177E+02 -0.67100383685E+02  0.93446257621E+02  0.41800000000E+01 0.  1.
         -5    1    3    3    0  502 -0.42202444545E+02  0.35223667305E+02 -0.10566918297E+02  0.56132746470E+02  0.41800000000E+01 0.  1.
        -11    1    4    4    0    0 -0.26022970512E+02 -0.48927675299E+02 -0.11589694904E+03  0.12846484033E+03  0.00000000000E+00 0. -1.
         11    1    4    4    0    0  0.58614132111E+01  0.31676221170E+02 -0.23033407870E+02  0.39601477631E+02  0.00000000000E+00 0.  1.
</event>
<event>
 8    1  0.6627806E-009  0.1267543E+03  0.7561462E-02  0.1232353E+00
         -3   -1    0    0    0  501 -0.00000000000E+00  0.00000000000E+00  0.31051232899E+03  0.31051232899E+03  0.00000000000E+00 0.  1.
          3   -1    0    0  501    0  0.00000000000E+00 -0.00000000000E+00 -0.59095437055E+02  0.59095437055E+02  0.00000000000E+00 0. -1.
         25    2    1    2    0    0 -0.10732627337E+00 -0.76738300144E+02  0.10306644234E+03  0.17932835579E+03  0.12508872621E+03 0.  0.
         23    2    1    2    0    0  0.10732627337E+00  0.76738300144E+02  0.14835044959E+03  0.19027941026E+03  0.91157116269E+02 0.  0.
          5    1    3    3  502    0  0.57642364998E+02 -0.34872317537E+02  0.21385505202E+02  0.70806306257E+02  0.41800000000E+01 0. -1.
         -5    1    3    3    0  502 -0.57749691272E+02 -0.41865982607E+02  0.81680937143E+02  0.10852204953E+03  0.41800000000E+01 0. -1.
        -11    1    4    4    0    0  0.41662039704E+02  0.50267517286E+02  0.10970168098E+03  0.12765973389E+03  0.00000000000E+00 0.  1.
         11    1    4    4    0    0 -0.41554713431E+02  0.26470782858E+02  0.38648768606E+02  0.62619676367E+02  0.00000000000E+00 0. -1.
</event>
<event>
 8    1  0.6627806E-009  0.1643186E+03  0.7561462E-02  0.1183906E+00
          2   -1    0    0  501    0  0.00000000000E+00  0.00000000000E+00  0.59557398427E+03  0.59557398427E+03  0.00000000000E+00 0. -1.
         -2   -1    0    0    0  501 -0.00000000000E+00 -0.00000000000E+00 -0.52945778745E+02  0.52945778745E+02  0.00000000000E+00 0.  1.
         25    2    1    2    0    0  0.11863874191E+03 -0.73891277561E+02  0.26883657677E+03  0.32780262529E+03  0.12508550740E+03 0.  0.
         23    2    1    2    0    0 -0.11863874191E+03  0.73891277561E+02  0.27379162876E+03  0.32071713772E+03  0.91447003612E+02 0.  0.
          5    1    3    3  502    0  0.24687009875E+02  0.32017592086E+02  0.96636569743E+02  0.10483641386E+03  0.41800000000E+01 0.  1.
         -5    1    3    3    0  502  0.93951732032E+02 -0.10590886965E+03  0.17220000702E+03  0.22296621143E+03  0.41800000000E+01 0.  1.
        -11    1    4    4    0    0 -0.40971245350E+02  0.28052765956E+01  0.19441763782E+02  0.45436710942E+02  0.00000000000E+00 0. -1.
         11    1    4    4    0    0 -0.77667496557E+02  0.71086000965E+02  0.25434986498E+03  0.27528042678E+03  0.00000000000E+00 0.  1.
</event>
<event>
 8    1  0.6627806E-009  0.1292774E+03  0.7561462E-02  0.1228532E+00
          2   -1    0    0  501    0  0.00000000000E+00  0.00000000000E+00  0.75720726415E+03  0.75720726415E+03  0.00000000000E+00 0. -1.
         -2   -1    0    0    0  501 -0.00000000000E+00 -0.00000000000E+00 -0.25236185806E+02  0.25236185806E+02  0.00000000000E+00 0.  1.
         25    2    1    2    0    0  0.51392037109E+02  0.62501817657E+02  0.45715409777E+03  0.48081718491E+03  0.12509067713E+03 0.  0.
         23    2    1    2    0    0 -0.51392037109E+02 -0.62501817657E+02  0.27481698057E+03  0.30162626505E+03  0.94373790149E+02 0.  0.
          5    1    3    3  502    0 -0.41621610889E+02  0.23538135376E+02  0.14153455631E+03  0.14945201685E+03  0.41800000000E+01 0. -1.
         -5    1    3    3    0  502  0.93013647998E+02  0.38963682281E+02  0.31561954146E+03  0.33136516806E+03  0.41800000000E+01 0. -1.
        -11    1    4    4    0    0  0.17266790038E+02 -0.75318790996E+00  0.75564579994E+01  0.18862910373E+02  0.00000000000E+00 0.  1.
         11    1    4    4    0    0 -0.68658827147E+02 -0.61748629747E+02  0.26726052257E+03  0.28276335467E+03  0.00000000000E+00 0. -1.
</event>
<event>
 8    1  0.6627806E-009  0.7196599E+02  0.7561462E-02  0.1353532E+00
          1   -1    0    0  501    0  0.00000000000E+00  0.00000000000E+00  0.24865030423E+03  0.24865030423E+03  0.00000000000E+00 0. -1.
         -1   -1    0    0    0  501 -0.00000000000E+00 -0.00000000000E+00 -0.57578618727E+02  0.57578618727E+02  0.00000000000E+00 0.  1.
         25    2    1    2    0    0  0.50500866459E+02 -0.24906013875E+02  0.11970776745E+03  0.18204642332E+03  0.12506119948E+03 0.  0.
         23    2    1    2    0    0 -0.50500866459E+02  0.24906013875E+02  0.71363918047E+02  0.12418249963E+03  0.84604003306E+02 0.  0.
          5    1    3    3  502    0  0.21008525335E+02 -0.22457037987E+02 -0.21471498884E+02  0.37738234673E+02  0.41800000000E+01 0.  1.
         -5    1    3    3    0  502  0.29492341123E+02 -0.24489758882E+01  0.14117926634E+03  0.14430818865E+03  0.41800000000E+01 0.  1.
        -11    1    4    4    0    0 -0.46476068131E+02 -0.10275775842E+02  0.74740999818E+02  0.88610572349E+02  0.00000000000E+00 0. -1.
         11    1    4    4    0    0 -0.40247983272E+01  0.35181789717E+02 -0.33770817714E+01  0.35571927282E+02  0.00000000000E+00 0.  1.
</event>
<event>
 8    1  0.6627806E-009  0.9555345E+02  0.7561462E-02  0.1289934E+00
          2   -1    0    0  501    0  0.00000000000E+00  0.00000000000E+00  0.31127483834E+03  0.31127483834E+03  0.00000000000E+00 0. -1.
         -2   -1    0    0    0  501 -0.00000000000E+00 -0.00000000000E+00 -0.51588598835E+02  0.51588598835E+02  0.00000000000E+00 0.  1.
         25    2    1    2    0    0  0.59823787383E+02  0.15022314638E+02  0.11219136124E+03  0.17899292016E+03  0.12508800285E+03 0.  0.
         23    2    1    2    0    0 -0.59823787383E+02 -0.15022314638E+02  0.14749487826E+03  0.18387051702E+03  0.90824404428E+02 0.  0.
          5    1    3    3  502    0  0.46766921211E+02  0.34585171541E+02 -0.58036489659E+01  0.58604042108E+02  0.41800000000E+01 0.  1.
         -5    1    3    3    0  502  0.13056866171E+02 -0.19562856903E+02  0.11799501021E+03  0.12038887805E+03  0.41800000000E+01 0.  1.
        -11    1    4    4    0    0 -0.83817346456E+02 -0.13061093621E+02  0.12394018452E+03  0.15019024294E+03  0.00000000000E+00 0. -1.
         11    1    4    4    0    0  0.23993559073E+02 -0.19612210163E+01  0.23554693740E+02  0.33680274080E+02  0.00000000000E+00 0.  1.
</event>
<event>
 8    1  0.6627806E-009  0.1817401E+03  0.7561462E-02  0.1166130E+00
         -1   -1    0    0    0  501 -0.00000000000E+00  0.00000000000E+00  0.78109719638E+02  0.78109719638E+02  0.00000000000E+00 0.  1.
          1   -1    0    0  501    0  0.00000000000E+00 -0.00000000000E+00 -0.74862163641E+03  0.74862163641E+03  0.00000000000E+00 0. -1.
         25    2    1    2    0    0 -0.10857030467E+03  0.11937512557E+03 -0.10109239624E+03  0.22782706550E+03  0.12509023756E+03 0.  0.
         23    2    1    2    0    0  0.10857030467E+03 -0.11937512557E+03 -0.56941952053E+03  0.59890429055E+03  0.91705110092E+02 0.  0.
          5    1    3    3  502    0 -0.98672317665E+02  0.52237483747E+02 -0.11287901927E+03  0.15882105142E+03  0.41800000000E+01 0.  1.
         -5    1    3    3    0  502 -0.98979870076E+01  0.67137641826E+02  0.11786623029E+02  0.69006014080E+02  0.41800000000E+01 0.  1.
        -11    1    4    4    0    0  0.41887414928E+02  0.54528212553E+01 -0.98405187837E+02  0.10708814025E+03  0.00000000000E+00 0.  1.
         11    1    4    4    0    0  0.66682889745E+02 -0.12482794683E+03 -0.47101433269E+03  0.49181615030E+03  0.00000000000E+00 0. -1.
</event>
<event>
 8    1  0.6627806E-009  0.1111373E+03  0.7561462E-02  0.1258478E+00
         -1   -1    0    0    0  501 -0.00000000000E+00  0.00000000000E+00  0.12116336458E+03  0.12116336458E+03  0.00000000000E+00 0.  1.
          1   -1    0    0  501    0  0.00000000000E+00 -0.00000000000E+00 -0.11750840870E+03  0.11750840870E+03  0.00000000000E+00 0. -1.
         25    2    1    2    0    0 -0.29815401322E+02 -0.16256775121E+02  0.37534513513E+02  0.13494312186E+03  0.12509022959E+03 0.  0.
         23    2    1    2    0    0  0.29815401322E+02  0.16256775121E+02 -0.33879557627E+02  0.10372865143E+03  0.91970472481E+02 0.  0.
          5    1    3    3  502    0 -0.34582176990E+02  0.49477179919E+02  0.34022903901E+01  0.60605002087E+02  0.41800000000E+01 0. -1.
         -5    1    3    3    0  502  0.47667756675E+01 -0.65733955040E+02  0.34132223123E+02  0.74338119768E+02  0.41800000000E+01 0. -1.
        -11    1    4    4    0    0 -0.25236272386E+02  0.29783007362E+02 -0.29438266844E+01  0.39147964021E+02  0.00000000000E+00 0.  1.
         11    1    4    4    0    0  0.55051673708E+02 -0.13526232241E+02 -0.30935730943E+02  0.64580687405E+02  0.00000000000E+00 0. -1.
</event>
<event>
 8    1  0.6627806E-009  0.1089099E+03  0.7561462E-02  0.1262602E+00
          2   -1    0    0  501    0  0.00000000000E+00  0.00000000000E+00  0.26660954269E+02  0.26660954269E+02  0.00000000000E+00 0. -1.
         -2   -1    0    0    0  501 -0.00000000000E+00 -0.00000000000E+00 -0.68566340057E+03  0.68566340057E+03  0.00000000000E+00 0.  1.
         25    2    1    2    0    0 -0.63760649643E+02 -0.38220311755E+02 -0.44021744935E+03  0.46364139601E+03  0.12508288735E+03 0.  0.
         23    2    1    2    0    0  0.63760649643E+02  0.38220311755E+02 -0.21878499694E+03  0.24868295882E+03  0.91924569340E+02 0.  0.
          5    1    3    3  502    0  0.76529779881E+00 -0.67283218380E+02 -0.14313098995E+03  0.15821368411E+03  0.41800000000E+01 0. -1.
         -5    1    3    3    0  502 -0.64525947442E+02  0.29062906626E+02 -0.29708645941E+03  0.30542771190E+03  0.41800000000E+01 0. -1.
        -11    1    4    4    0    0  0.21309849076E+02  0.29137469721E+02 -0.19668407114E+03  0.19996931177E+03  0.00000000000E+00 0.  1.
         11    1    4    4    0    0  0.42450800566E+02  0.90828420334E+01 -0.22100925807E+02  0.48713647058E+02  0.00000000000E+00 0. -1.
</event>
<event>
 8    1  0.6627806E-009  0.1703533E+03  0.7561462E-02  0.1177480E+00
          1   -1    0    0  501    0  0.00000000000E+00  0.00000000000E+00  0.61939821255E+03  0.61939821255E+03  0.00000000000E+00 0.  1.
         -1   -1    0    0    0  501 -0.00000000000E+00 -0.00000000000E+00 -0.56544388743E+02  0.56544388743E+02  0.00000000000E+00 0. -1.
         25    2    1    2    0    0 -0.10694343598E+03  0.99328265239E+02  0.34152669276E+03  0.39190556450E+03  0.12508591784E+03 0.  0.
         23    2    1    2    0    0  0.10694343598E+03 -0.99328265239E+02  0.22132713105E+03  0.28403703680E+03  0.10192318952E+03 0.  0.
          5    1    3    3  502    0  0.19763566179E+02  0.23461032353E+02  0.16974406485E+02  0.35307526998E+02  0.41800000000E+01 0. -1.
         -5    1    3    3    0  502 -0.12670700216E+03  0.75867232886E+02  0.32455228628E+03  0.35659803750E+03  0.41800000000E+01 0. -1.
        -11    1    4    4    0    0  0.56058450764E+02 -0.68825185374E+01  0.13951233464E+03  0.15051116397E+03  0.00000000000E+00 0.  1.
         11    1    4    4    0    0  0.50884985212E+02 -0.92445746702E+02  0.81814796412E+02  0.13352587283E+03  0.00000000000E+00 0. -1.
</event>
<event>
 8    1  0.6627806E-009  0.1545861E+03  0.7561462E-02  0.1194948E+00
         -2   -1    0    0    0  501 -0.00000000000E+00  0.00000000000E+00  0.29116977856E+02  0.29116977856E+02  0.00000000000E+00 0.  1.
          2   -1    0    0  501    0  0.00000000000E+00 -0.00000000000E+00 -0.91761244511E+03  0.91761244511E+03  0.00000000000E+00 0. -1.
         25    2    1    2    0    0 -0.86919118059E+02  0.68770235945E+02 -0.62410146238E+03  0.64609217109E+03  0.12509268470E+03 0.  0.
         23    2    1    2    0    0  0.86919118059E+02 -0.68770235945E+02 -0.26439400488E+03  0.30063725188E+03  0.90522311973E+02 0.  0.
          5    1    3    3  502    0 -0.87039089399E+02  0.10167611741E+03 -0.50649167424E+03  0.52389419200E+03  0.41800000000E+01 0.  1.
         -5    1    3    3    0  502  0.11997133957E+00 -0.32905881467E+02 -0.11760978814E+03  0.12219797909E+03  0.41800000000E+01 0.  1.
        -11    1    4    4    0    0  0.91644418125E+02 -0.20908427862E+02 -0.19118613435E+03  0.21304459556E+03  0.00000000000E+00 0.  1.
         11    1    4    4    0    0 -0.47253000658E+01 -0.47861808083E+02 -0.73207870522E+02  0.87592656313E+02  0.00000000000E+00 0. -1.
</event>
<event>
 8    1  0.6627806E-009  0.2057031E+03  0.7561462E-02  0.1145015E+00
          2   -1    0    0  501    0  0.00000000000E+00  0.00000000000E+00  0.10620841679E+04  0.10620841679E+04  0.00000000000E+00 0. -1.
         -2   -1    0    0    0  501 -0.00000000000E+00 -0.00000000000E+00 -0.49286871666E+02  0.49286871666E+02  0.00000000000E+00 0.  1.
         25    2    1    2    0    0  0.12839273650E+03 -0.13563062418E+03  0.71248696701E+03  0.74710454256E+03  0.12508860205E+03 0.  0.
         23    2    1    2    0    0 -0.12839273650E+03  0.13563062418E+03  0.30031032918E+03  0.36426649696E+03  0.87312232766E+02 0.  0.
          5    1    3    3  502    0  0.17268628198E+02  0.24079754170E+02  0.83612028732E+02  0.88805877223E+02  0.41800000000E+01 0.  1.
         -5    1    3    3    0  502  0.11112410830E+03 -0.15971037835E+03  0.62887493828E+03  0.65829866534E+03  0.41800000000E+01 0.  1.
        -11    1    4    4    0    0 -0.10423031617E+03  0.10640584048E+03  0.28827581621E+03  0.32448283145E+03  0.00000000000E+00 0.  1.
         11    1    4    4    0    0 -0.24162420335E+02  0.29224783695E+02  0.12034512975E+02  0.39783665505E+02  0.00000000000E+00 0. -1.
</event>
<event>
 8    1  0.6627806E-009  0.9922733E+02  0.7561462E-02  0.1281929E+00
         -3   -1    0    0    0  501 -0.00000000000E+00  0.00000000000E+00  0.31221214850E+03  0.31221214850E+03  0.00000000000E+00 0.  1.
          3   -1    0    0  501    0  0.00000000000E+00 -0.00000000000E+00 -0.57407690825E+02  0.57407690825E+02  0.00000000000E+00 0. -1.
         25    2    1    2    0    0  0.68944270987E+02  0.12888985792E+02  0.19437625711E+03  0.24154796035E+03  0.12507537473E+03 0.  0.
         23    2    1    2    0    0 -0.68944270987E+02 -0.12888985792E+02  0.60428200567E+02  0.12807187898E+03  0.88495199330E+02 0.  0.
          5    1    3    3  502    0  0.67556014853E+02  0.30341355477E+02  0.36536033618E+02  0.82684745556E+02  0.41800000000E+01 0.  1.
         -5    1    3    3    0  502  0.13882561336E+01 -0.17452369685E+02  0.15784022349E+03  0.15886321479E+03  0.41800000000E+01 0.  1.
        -11    1    4    4    0    0 -0.81703907866E+02  0.76917793470E+01  0.63362157052E+02  0.10367957840E+03  0.00000000000E+00 0.  1.
         11    1    4    4    0    0  0.12759636879E+02 -0.20580765139E+02 -0.29339564853E+01  0.24392300581E+02  0.00000000000E+00 0. -1.
</event>
<event>
 8    1  0.6627806E-009  0.1008567E+03  0.7561462E-02  0.1278505E+00
          4   -1    0    0  501    0  0.00000000000E+00  0.00000000000E+00  0.43970893362E+03  0.43970893362E+03  0.00000000000E+00 0. -1.
         -4   -1    0    0    0  501 -0.00000000000E+00 -0.00000000000E+00 -0.32147153203E+02  0.32147153203E+02  0.00000000000E+00 0.  1.
         25    2    1    2    0    0 -0.16014970275E+02 -0.38676804900E+02  0.27876697627E+03  0.30840026020E+03  0.12508924382E+03 0.  0.
         23    2    1    2    0    0  0.16014970275E+02  0.38676804900E+02  0.12879480415E+03  0.16345582663E+03  0.91527761764E+02 0.  0.
          5    1    3    3  502    0 -0.15087567939E+02 -0.69389658720E+02  0.79268088862E+02  0.10650568884E+03  0.41800000000E+01 0. -1.
         -5    1    3    3    0  502 -0.92740233601E+00  0.30712853820E+02  0.19949888741E+03  0.20189457136E+03  0.41800000000E+01 0. -1.
        -11    1    4    4    0    0 -0.24146970737E+02  0.51936538367E+02  0.85670313177E+02  0.10305281545E+03  0.00000000000E+00 0.  1.
         11    1    4    4    0    0  0.40161941012E+02 -0.13259733467E+02  0.43124490968E+02  0.60403011172E+02  0.00000000000E+00 0. -1.
</event>
<event>
 8    1  0.6627806E-009  0.1133705E+03  0.7561462E-02  0.1254453E+00
          1   -1    0    0  501    0  0.00000000000E+00  0.00000000000E+00  0.22670708588E+03  0.22670708588E+03  0.00000000000E+00 0. -1.
         -1   -1    0    0    0  501 -0.00000000000E+00 -0.00000000000E+00 -0.69382887972E+02  0.69382887972E+02  0.00000000000E+00 0.  1.
         25    2    1    2    0    0  0.54259234376E+02  0.38950507687E+01  0.12423521120E+03  0.18450595556E+03  0.12509525969E+03 0.  0.
         23    2    1    2    0    0 -0.54259234376E+02 -0.38950507687E+01  0.33088986707E+02  0.11158401830E+03  0.91634470385E+02 0.  0.
          5    1    3    3  502    0  0.87705639797E+02  0.23495539077E+02  0.58550373345E+02  0.10812001770E+03  0.41800000000E+01 0. -1.
         -5    1    3    3    0  502 -0.33446405421E+02 -0.19600488308E+02  0.65684837860E+02  0.76385937857E+02  0.41800000000E+01 0. -1.
        -11    1    4    4    0    0 -0.36903476145E+02 -0.41441774566E+02 -0.45246447690E+01  0.55675485099E+02  0.00000000000E+00 0.  1.
         11    1    4    4    0    0 -0.17355758231E+02  0.37546723797E+02  0.37613631476E+02  0.55908533199E+02  0.00000000000E+00 0. -1.
</event>
<event>
 8    1  0.6627806E-009  0.1175289E+03  0.7561462E-02  0.1247230E+00
          2   -1    0    0  501    0  0.00000000000E+00  0.00000000000E+00  0.47267691853E+03  0.47267691853E+03  0.00000000000E+00 0.  1.
         -2   -1    0    0    0  501 -0.00000000000E+00 -0.00000000000E+00 -0.67980897865E+02  0.67980897865E+02  0.00000000000E+00 0. -1.
         25    2    1    2    0    0  0.71086936337E+02 -0.63477680564E+02  0.37277421263E+03  0.40458728926E+03  0.12508993796E+03 0.  0.
         23    2    1    2    0    0 -0.71086936337E+02  0.63477680564E+02  0.31921808034E+02  0.13607052713E+03  0.91724686312E+02 0.  0.
          5    1    3    3  502    0 -0.53196172387E+01  0.18198379253E+02  0.48433986982E+01  0.20010253520E+02  0.41800000000E+01 0.  1.
         -5    1    3    3    0  502  0.76406553576E+02 -0.81676059817E+02  0.36793081394E+03  0.38457703574E+03  0.41800000000E+01 0.  1.
        -11    1    4    4    0    0 -0.73794286761E+02  0.48053189691E+02  0.58146424124E+02  0.10552588515E+03  0.00000000000E+00 0.  1.
         11    1    4    4    0    0  0.27073504239E+01  0.15424490872E+02 -0.26224616090E+02  0.30544641986E+02  0.00000000000E+00 0. -1.
</event>
<event>
 8    1  0.6627806E-009  0.2388709E+03  0.7561462E-02  0.1120547E+00
         -1   -1    0    0    0  501 -0.00000000000E+00  0.00000000000E+00  0.28346210125E+03  0.28346210125E+03  0.00000000000E+00 0.  1.
          1   -1    0    0  501    0  0.00000000000E+00 -0.00000000000E+00 -0.30857457122E+03  0.30857457122E+03  0.00000000000E+00 0. -1.
         25    2    1    2    0    0 -0.61954644030E+02 -0.23039028398E+03 -0.14891085300E+03  0.30779856219E+03  0.12508977527E+03 0.  0.
         23    2    1    2    0    0  0.61954644030E+02  0.23039028398E+03  0.12379838303E+03  0.28423811028E+03  0.92451083424E+02 0.  0.
          5    1    3    3  502    0 -0.54103447882E+02 -0.18015693042E+03 -0.16906125750E+03  0.25294838177E+03  0.41800000000E+01 0.  1.
         -5    1    3    3    0  502 -0.78511961484E+01 -0.50233353560E+02  0.20150404501E+02  0.54850180422E+02  0.41800000000E+01 0.  1.
        -11    1    4    4    0    0  0.12853488324E+02  0.48005654306E+02 -0.12587061507E+02  0.51265867054E+02  0.00000000000E+00 0. -1.
         11    1    4    4    0    0  0.49101155706E+02  0.18238462967E+03  0.13638544453E+03  0.23297224322E+03  0.00000000000E+00 0.  1.
</event>
<event>
 8    1  0.6627806E-009  0.2216822E+03  0.7561462E-02  0.1132635E+00
         -1   -1    0    0    0  501 -0.00000000000E+00  0.00000000000E+00  0.17929635418E+03  0.17929635418E+03  0.00000000000E+00 0.  1.
          1   -1    0    0  501    0  0.00000000000E+00 -0.00000000000E+00 -0.32103349187E+03  0.32103349187E+03  0.00000000000E+00 0. -1.
         25    2    1    2    0    0 -0.18814618450E+03  0.84683337129E+02 -0.14530193508E+03  0.28165682908E+03  0.12509061795E+03 0.  0.
         23    2    1    2    0    0  0.18814618450E+03 -0.84683337129E+02  0.35647973920E+01  0.21867301697E+03  0.72352790117E+02 0.  0.
          5    1    3    3  502    0 -0.75901444450E+02 -0.24791848916E+02 -0.24327576049E+02  0.83576123376E+02  0.41800000000E+01 0. -1.
         -5    1    3    3    0  502 -0.11224474005E+03  0.10947518604E+03 -0.12097435903E+03  0.19808070570E+03  0.41800000000E+01 0. -1.
        -11    1    4    4    0    0  0.12766711937E+03 -0.62455513895E+02  0.35887168688E+02  0.14658606162E+03  0.00000000000E+00 0.  1.
         11    1    4    4    0    0  0.60479065131E+02 -0.22227823234E+02 -0.32322371296E+02  0.72086955346E+02  0.00000000000E+00 0. -1.
</event>
<event>
 8    1  0.6627806E-009  0.8861315E+02  0.7561462E-02  0.1306245E+00
         -2   -1    0    0    0  501 -0.00000000000E+00  0.00000000000E+00  0.61158195369E+02  0.61158195369E+02  0.00000000000E+00 0.  1.
          2   -1    0    0  501    0  0.00000000000E+00 -0.00000000000E+00 -0.22731089090E+03  0.22731089090E+03  0.00000000000E+00 0. -1.
         25    2    1    2    0    0  0.73688106428E+01 -0.22488927102E+02 -0.13839419816E+03  0.18804674339E+03  0.12509425407E+03 0.  0.
         23    2    1    2    0    0 -0.73688106428E+01  0.22488927102E+02 -0.27758497372E+02  0.10042234288E+03  0.93563142110E+02 0.  0.
          5    1    3    3  502    0 -0.10713570428E+02 -0.51392361790E+02 -0.80775285287E+01  0.53279210850E+02  0.41800000000E+01 0. -1.
         -5    1    3    3    0  502  0.18082381071E+02  0.28903434689E+02 -0.13031666963E+03  0.13476753253E+03  0.41800000000E+01 0. -1.
        -11    1    4    4    0    0  0.32118605510E+02 -0.15283520622E+02 -0.28801311809E+02  0.45767962424E+02  0.00000000000E+00 0.  1.
         11    1    4    4    0    0 -0.39487416153E+02  0.37772447724E+02  0.10428144372E+01  0.54654380460E+02  0.00000000000E+00 0. -1.
</event>
<event>
 8    1  0.6627806E-009  0.1074375E+03  0.7561462E-02  0.1265390E+00
         -2   -1    0    0    0  501 -0.00000000000E+00  0.00000000000E+00  0.74658206767E+02  0.74658206767E+02  0.00000000000E+00 0.  1.
          2   -1    0    0  501    0  0.00000000000E+00 -0.00000000000E+00 -0.22687975200E+03  0.22687975200E+03  0.00000000000E+00 0. -1.
         25    2    1    2    0    0  0.37287720291E+01 -0.55063080378E+02 -0.13762920300E+03  0.19399908155E+03  0.12509196441E+03 0.  0.
         23    2    1    2    0    0 -0.37287720291E+01  0.55063080378E+02 -0.14592342236E+02  0.10753887722E+03  0.91136310552E+02 0.  0.
          5    1    3    3  502    0  0.55281631789E+01 -0.82882315954E+02 -0.14288063286E+03  0.16532509347E+03  0.41800000000E+01 0. -1.
         -5    1    3    3    0  502 -0.17993911498E+01  0.27819235576E+02  0.52514298569E+01  0.28673988074E+02  0.41800000000E+01 0. -1.
        -11    1    4    4    0    0  0.40937154754E+02  0.37509571151E+02 -0.20496896133E+02  0.59185651288E+02  0.00000000000E+00 0. -1.
         11    1    4    4    0    0 -0.44665926783E+02  0.17553509227E+02  0.59045538976E+01  0.48353225935E+02  0.00000000000E+00 0.  1.
</event>
<event>
 8    1  0.6627806E-009  0.1125114E+03  0.7561462E-02  0.1255989E+00
         -1   -1    0    0    0  501 -0.00000000000E+00  0.00000000000E+00  0.42816752733E+02  0.42816752733E+02  0.00000000000E+00 0.  1.
          1   -1    0    0  501    0  0.00000000000E+00 -0.00000000000E+00 -0.40432197234E+03  0.40432197234E+03  0.00000000000E+00 0. -1.
         25    2    1    2    0    0  0.61621336492E+02  0.21850834251E+02 -0.13947126361E+03  0.19842938426E+03  0.12508932448E+03 0.  0.
         23    2    1    2    0    0 -0.61621336492E+02 -0.21850834251E+02 -0.22203395600E+03  0.24870934081E+03  0.91008848589E+02 0.  0.
          5    1    3    3  502    0  0.37873431697E+02  0.73209377126E+02 -0.66459048062E+02  0.10596361261E+03  0.41800000000E+01 0. -1.
         -5    1    3    3    0  502  0.23747904795E+02 -0.51358542876E+02 -0.73012215548E+02  0.92465771655E+02  0.41800000000E+01 0. -1.
        -11    1    4    4    0    0 -0.23837074158E+02 -0.37842845156E+02 -0.19382563474E+03  0.19891873647E+03  0.00000000000E+00 0. -1.
         11    1    4    4    0    0 -0.37784262334E+02  0.15992010906E+02 -0.28208321256E+02  0.49790604345E+02  0.00000000000E+00 0.  1.
</event>
<event>
 8    1  0.6627806E-009  0.1485160E+03  0.7561462E-02  0.1202309E+00
         -2   -1    0    0    0  501 -0.00000000000E+00  0.00000000000E+00  0.34035541845E+02  0.34035541845E+02  0.00000000000E+00 0.  1.
          2   -1    0    0  501    0  0.00000000000E+00 -0.00000000000E+00 -0.93228406648E+03  0.93228406648E+03  0.00000000000E+00 0. -1.
         25    2    1    2    0    0  0.98356819639E+02 -0.85242530866E+02 -0.60689573727E+03  0.63317466808E+03  0.12508945334E+03 0.  0.
         23    2    1    2    0    0 -0.98356819639E+02  0.85242530866E+02 -0.29135278736E+03  0.33314494025E+03  0.95701366093E+02 0.  0.
          5    1    3    3  502    0  0.47213397938E+02 -0.74908360584E+02 -0.54478015970E+03  0.55194498117E+03  0.41800000000E+01 0.  1.
         -5    1    3    3    0  502  0.51143421700E+02 -0.10334170282E+02 -0.62115577573E+02  0.81229686912E+02  0.41800000000E+01 0.  1.
        -11    1    4    4    0    0 -0.48526616632E+01  0.58623407897E+02 -0.15412698819E+03  0.16497084824E+03  0.00000000000E+00 0. -1.
         11    1    4    4    0    0 -0.93504157975E+02  0.26619122969E+02 -0.13722579917E+03  0.16817409201E+03  0.00000000000E+00 0.  1.
</event>
<event>
 8    1  0.6627806E-009  0.1145871E+03  0.7561462E-02  0.1252304E+00
          1   -1    0    0  501    0  0.00000000000E+00  0.00000000000E+00  0.90225631784E+03  0.90225631784E+03  0.00000000000E+00 0. -1.
         -1   -1    0    0    0  501 -0.00000000000E+00 -0.00000000000E+00 -0.15109238947E+02  0.15109238947E+02  0.00000000000E+00 0.  1.
         25    2    1    2    0    0 -0.32152349918E+02  0.21507217612E+02  0.41814359006E+03  0.43816368263E+03  0.12508803639E+03 0.  0.
         23    2    1    2    0    0  0.32152349918E+02 -0.21507217612E+02  0.46900348883E+03  0.47920187416E+03  0.90409234312E+02 0.  0.
          5    1    3    3  502    0  0.28889411795E+02 -0.36374271105E+02  0.14226802771E+03  0.14971756684E+03  0.41800000000E+01 0.  1.
         -5    1    3    3    0  502 -0.61041761713E+02  0.57881488717E+02  0.27587556235E+03  0.28844611579E+03  0.41800000000E+01 0.  1.
        -11    1    4    4    0    0  0.52900646544E+02 -0.43195620266E+02  0.32065439645E+03  0.32784688801E+03  0.00000000000E+00 0. -1.
         11    1    4    4    0    0 -0.20748296626E+02  0.21688402654E+02  0.14834909237E+03  0.15135498614E+03  0.00000000000E+00 0.  1.
</event>
<event>
 8    1  0.6627806E-009  0.1282486E+03  0.7561462E-02  0.1230078E+00
          2   -1    0    0  501    0  0.00000000000E+00  0.00000000000E+00  0.63765790305E+03  0.63765790305E+03  0.00000000000E+00 0. -1.
         -2   -1    0    0    0  501 -0.00000000000E+00 -0.00000000000E+00 -0.41580719754E+02  0.41580719754E+02  0.00000000000E+00 0.  1.
         25    2    1    2    0    0  0.94777335548E+02 -0.31662663564E+02  0.17469463082E+03  0.23696224408E+03  0.12509046120E+03 0.  0.
         23    2    1    2    0    0 -0.94777335548E+02  0.31662663564E+02  0.42138255248E+03  0.44227637873E+03  0.89776790163E+02 0.  0.
          5    1    3    3  502    0  0.12130731266E+03 -0.21740996069E+02  0.16648282524E+03  0.20717658776E+03  0.41800000000E+01 0.  1.
         -5    1    3    3    0  502 -0.26529977112E+02 -0.99216674950E+01  0.82118055795E+01  0.29785656319E+02  0.41800000000E+01 0.  1.
        -11    1    4    4    0    0 -0.90549760553E+02  0.20813329525E+02  0.42045202552E+03  0.43059535481E+03  0.00000000000E+00 0. -1.
         11    1    4    4    0    0 -0.42275749946E+01  0.10849334039E+02  0.93052696181E+00  0.11681023921E+02  0.00000000000E+00 0.  1.
</event>
<event>
 8    1  0.6627806E-009  0.1347799E+03  0.7561462E-02  0.1220531E+00
         -3   -1    0    0    0  501 -0.00000000000E+00  0.00000000000E+00  0.72862808186E+02  0.72862808186E+02  0.00000000000E+00 0.  1.
          3   -1    0    0  501    0  0.00000000000E+00 -0.00000000000E+00 -0.31080303708E+03  0.31080303708E+03  0.00000000000E+00 0. -1.
         25    2    1    2    0    0 -0.35057806282E+02 -0.90834992191E+02 -0.13909135796E+03  0.21088938253E+03  0.12509148739E+03 0.  0.
         23    2    1    2    0    0  0.35057806282E+02  0.90834992191E+02 -0.98848870936E+02  0.17277646274E+03  0.10295902682E+03 0.  0.
          5    1    3    3  502    0  0.20681598848E+02  0.22184194275E+02 -0.40844954329E+02  0.51045564946E+02  0.41800000000E+01 0. -1.
         -5    1    3    3    0  502 -0.55739405129E+02 -0.11301918647E+03 -0.98246403632E+02  0.15984381759E+03  0.41800000000E+01 0. -1.
        -11    1    4    4    0    0  0.50155772530E+02  0.57743058336E+02 -0.10460371628E+02  0.77196383844E+02  0.00000000000E+00 0.  1.
         11    1    4    4    0    0 -0.15097966248E+02  0.33091933855E+02 -0.88388499308E+02  0.95580078892E+02  0.00000000000E+00 0. -1.
</event>
<event>
 8    1  0.6627806E-009  0.5201776E+02  0.7561462E-02  0.1434753E+00
         -1   -1    0    0    0  501 -0.00000000000E+00  0.00000000000E+00  0.51656268410E+02  0.51656268410E+02  0.00000000000E+00 0.  1.
          1   -1    0    0  501    0  0.00000000000E+00 -0.00000000000E+00 -0.27945977722E+03  0.27945977722E+03  0.00000000000E+00 0. -1.
         25    2    1    2    0    0 -0.37868039877E+02 -0.27994920401E+02 -0.11325469093E+03  0.17518588958E+03  0.12508303993E+03 0.  0.
         23    2    1    2    0    0  0.37868039877E+02  0.27994920401E+02 -0.11454881788E+03  0.15593015605E+03  0.94736887620E+02 0.  0.
          5    1    3    3  502    0 -0.28058017295E+02 -0.99707310727E+01 -0.13887639923E+03  0.14209431542E+03  0.41800000000E+01 0. -1.
         -5    1    3    3    0  502 -0.98100225824E+01 -0.18024189329E+02  0.25621708300E+02  0.33091574157E+02  0.41800000000E+01 0. -1.
        -11    1    4    4    0    0  0.28770871938E+02  0.62342306160E+01 -0.12622505275E+03  0.12961247103E+03  0.00000000000E+00 0. -1.
         11    1    4    4    0    0  0.90971679391E+01  0.21760689785E+02  0.11676234868E+02  0.26317685026E+02  0.00000000000E+00 0.  1.
</event>
<event>
 8    1  0.6627806E-009  0.1986003E+03  0.7561462E-02  0.1150925E+00
          2   -1    0    0  501    0  0.00000000000E+00  0.00000000000E+00  0.11340029813E+04  0.11340029813E+04  0.00000000000E+00 0.  1.
         -2   -1    0    0    0  501 -0.00000000000E+00 -0.00000000000E+00 -0.43195590287E+02  0.43195590287E+02  0.00000000000E+00 0. -1.
         25    2    1    2    0    0 -0.11358682336E+03  0.15019890067E+03  0.66768377999E+03  0.70491874637E+03  0.12508849959E+03 0.  0.
         23    2    1    2    0    0  0.11358682336E+03 -0.15019890067E+03  0.42312361101E+03  0.47227982519E+03  0.92482251762E+02 0.  0.
          5    1    3    3  502    0 -0.95168870390E+02  0.93986104904E+02  0.25485380173E+03  0.28785141039E+03  0.41800000000E+01 0. -1.
         -5    1    3    3    0  502 -0.18417952966E+02  0.56212795764E+02  0.41282997825E+03  0.41706733598E+03  0.41800000000E+01 0. -1.
        -11    1    4    4    0    0  0.26956545261E+02 -0.10082590918E+03  0.16138919027E+03  0.19219518733E+03  0.00000000000E+00 0. -1.
         11    1    4    4    0    0  0.86630278095E+02 -0.49372991484E+02  0.26173442074E+03  0.28008463787E+03  0.00000000000E+00 0.  1.
</event>
<event>
 8    1  0.6627806E-009  0.1535498E+03  0.7561462E-02  0.1196178E+00
          2   -1    0    0  501    0  0.00000000000E+00  0.00000000000E+00  0.16598596180E+03  0.16598596180E+03  0.00000000000E+00 0. -1.
         -2   -1    0    0    0  501 -0.00000000000E+00 -0.00000000000E+00 -0.18014037429E+03  0.18014037429E+03  0.00000000000E+00 0.  1.
         25    2    1    2    0    0 -0.98829653571E+02 -0.79675943321E+02  0.35920261804E+02  0.18180488802E+03  0.12508875142E+03 0.  0.
         23    2    1    2    0    0  0.98829653571E+02  0.79675943321E+02 -0.50074674295E+02  0.16432144807E+03  0.91534195357E+02 0.  0.
          5    1    3    3  502    0 -0.11208639714E+02  0.18263303912E+02 -0.28085418210E+02  0.35573093625E+02  0.41800000000E+01 0.  1.
         -5    1    3    3    0  502 -0.87621013856E+02 -0.97939247233E+02  0.64005680014E+02  0.14623179439E+03  0.41800000000E+01 0.  1.
        -11    1    4    4    0    0 -0.60201165410E+01  0.41914534048E+02 -0.49407198355E+00  0.42347539182E+02  0.00000000000E+00 0. -1.
         11    1    4    4    0    0  0.10484977011E+03  0.37761409273E+02 -0.49580602311E+02  0.12197390888E+03  0.00000000000E+00 0.  1.
</event>
<event>
 8    1  0.6627806E-009  0.2207483E+03  0.7561462E-02  0.1133326E+00
         -1   -1    0    0    0  501 -0.00000000000E+00  0.00000000000E+00  0.33319800908E+02  0.33319800908E+02  0.00000000000E+00 0.  1.
          1   -1    0    0  501    0  0.00000000000E+00 -0.00000000000E+00 -0.18492367840E+04  0.18492367840E+04  0.00000000000E+00 0. -1.
         25    2    1    2    0    0  0.10341182689E+03  0.18301731981E+03 -0.65241343043E+03  0.69676421214E+03  0.12509091818E+03 0.  0.
         23    2    1    2    0    0 -0.10341182689E+03 -0.18301731981E+03 -0.11635035527E+04  0.11857923728E+04  0.90408456365E+02 0.  0.
          5    1    3    3  502    0  0.28490515306E+02  0.13697042533E+03 -0.51406605485E+03  0.53277949288E+03  0.41800000000E+01 0. -1.
         -5    1    3    3    0  502  0.74921311582E+02  0.46046894485E+02 -0.13834737558E+03  0.16398471926E+03  0.41800000000E+01 0. -1.
        -11    1    4    4    0    0 -0.10138700390E+03 -0.15383881917E+03 -0.11063819452E+04  0.11216179009E+04  0.00000000000E+00 0. -1.
         11    1    4    4    0    0 -0.20248229872E+01 -0.29178500640E+02 -0.57121607467E+02  0.64174471929E+02  0.00000000000E+00 0.  1.
</event>
<event>
 8    1  0.6627806E-009  0.1289927E+03  0.7561462E-02  0.1228958E+00
          1   -1    0    0  501    0  0.00000000000E+00  0.00000000000E+00  0.76189751836E+03  0.76189751836E+03  0.00000000000E+00 0. -1.
         -1   -1    0    0    0  501 -0.00000000000E+00 -0.00000000000E+00 -0.27987836589E+02  0.27987836589E+02  0.00000000000E+00 0.  1.
         25    2    1    2    0    0 -0.89987344948E+02 -0.36126782419E+02  0.44855781091E+03  0.47566211219E+03  0.12508984203E+03 0.  0.
         23    2    1    2    0    0  0.89987344948E+02  0.36126782419E+02  0.28535187086E+03  0.31422324276E+03  0.88925190085E+02 0.  0.
          5    1    3    3  502    0 -0.10549697322E+03  0.12939359035E+02  0.28857184581E+03  0.30755198092E+03  0.41800000000E+01 0. -1.
         -5    1    3    3    0  502  0.15509628268E+02 -0.49066141454E+02  0.15998596510E+03  0.16811013127E+03  0.41800000000E+01 0. -1.
        -11    1    4    4    0    0  0.48619423019E+02  0.32455132356E+02  0.55355106582E+02  0.80506967001E+02  0.00000000000E+00 0.  1.
         11    1    4    4    0    0  0.41367921929E+02  0.36716500624E+01  0.22999676428E+03  0.23371627576E+03  0.00000000000E+00 0. -1.
</event>
<event>
 8    1  0.6627806E-009  0.1578584E+03  0.7561462E-02  0.1191136E+00
          1   -1    0    0  501    0  0.00000000000E+00  0.00000000000E+00  0.14786152063E+03  0.14786152063E+03  0.00000000000E+00 0. -1.
         -1   -1    0    0    0  501 -0.00000000000E+00 -0.00000000000E+00 -0.23033756791E+03  0.23033756791E+03  0.00000000000E+00 0.  1.
         25    2    1    2    0    0 -0.45523159712E+02 -0.13347942394E+03 -0.93227230123E+02  0.21030166733E+03  0.12508541147E+03 0.  0.
         23    2    1    2    0    0  0.45523159712E+02  0.13347942394E+03  0.10751182846E+02  0.16789742121E+03  0.90470113470E+02 0.  0.
          5    1    3    3  502    0 -0.39948556511E+02 -0.38496544227E+02 -0.10040973439E+03  0.11479311061E+03  0.41800000000E+01 0.  1.
         -5    1    3    3    0  502 -0.55746032010E+01 -0.94982879710E+02  0.71825042641E+01  0.95508556718E+02  0.41800000000E+01 0.  1.
        -11    1    4    4    0    0  0.66329552937E+02  0.12660885492E+03  0.19595252332E+02  0.14426844995E+03  0.00000000000E+00 0. -1.
         11    1    4    4    0    0 -0.20806393225E+02  0.68705690157E+01 -0.88440694854E+01  0.23628971258E+02  0.00000000000E+00 0.  1.
</event>
<event>
 8    1  0.6627806E-009  0.1337004E+03  0.7561462E-02  0.1222066E+00
          1   -1    0    0  501    0  0.00000000000E+00  0.00000000000E+00  0.81143661350E+03  0.81143661350E+03  0.00000000000E+00 0. -1.
         -1   -1    0    0    0  501 -0.00000000000E+00 -0.00000000000E+00 -0.24130549735E+02  0.24130549735E+02  0.00000000000E+00 0.  1.
         25    2    1    2    0    0  0.82723222627E+02 -0.11359721645E+02  0.34579415390E+03  0.37708543646E+03  0.12509058589E+03 0.  0.
         23    2    1    2    0    0 -0.82723222627E+02  0.11359721645E+02  0.44151190986E+03  0.45848172678E+03  0.91107367431E+02 0.  0.
          5    1    3    3  502    0 -0.76375980348E+01 -0.50363419412E+02  0.10048760215E+03  0.11273880213E+03  0.41800000000E+01 0. -1.
         -5    1    3    3    0  502  0.90360820662E+02  0.39003697768E+02  0.24530655175E+03  0.26434663433E+03  0.41800000000E+01 0. -1.
        -11    1    4    4    0    0 -0.99953115447E+02  0.10907565211E+02  0.41385402443E+03  0.42589289006E+03  0.00000000000E+00 0. -1.
         11    1    4    4    0    0  0.17229892820E+02  0.45215643374E+00  0.27657885435E+02  0.32588836720E+02  0.00000000000E+00 0.  1.
</event>
<event>
 8    1  0.6627806E-009  0.1273531E+03  0.7561462E-02  0.1231437E+00
          1   -1    0    0  501    0  0.00000000000E+00  0.00000000000E+00  0.20223554824E+03  0.20223554824E+03  0.00000000000E+00 0. -1.
         -1   -1    0    0    0  501 -0.00000000000E+00 -0.00000000000E+00 -0.12156678447E+03  0.12156678447E+03  0.00000000000E+00 0.  1.
         25    2    1    2    0    0  0.23663808943E+01 -0.91311088724E+02 -0.25032808146E+02  0.15690052346E+03  0.12509123909E+03 0.  0.
         23    2    1    2    0    0 -0.23663808943E+01  0.91311088724E+02  0.10570157191E+03  0.16690180925E+03  0.91324021724E+02 0.  0.
          5    1    3    3  502    0  0.31256181586E+02  0.97190897948E+01  0.24064891264E+02  0.40841167776E+02  0.41800000000E+01 0. -1.
         -5    1    3    3    0  502 -0.28889800691E+02 -0.10103017852E+03 -0.49097699410E+02  0.11605935569E+03  0.41800000000E+01 0. -1.
        -11    1    4    4    0    0 -0.37120917100E+02  0.54283727323E+02  0.22648049768E+02  0.69552999193E+02  0.00000000000E+00 0.  1.
         11    1    4    4    0    0  0.34754536206E+02  0.37027361401E+02  0.83053522141E+02  0.97348810056E+02  0.00000000000E+00 0. -1.
</event>
<event>
 8    1  0.6627806E-009  0.8738785E+02  0.7561462E-02  0.1309304E+00
          2   -1    0    0  501    0  0.00000000000E+00  0.00000000000E+00  0.57363774237E+03  0.57363774237E+03  0.00000000000E+00 0. -1.
         -2   -1    0    0    0  501 -0.00000000000E+00 -0.00000000000E+00 -0.24011860352E+02  0.24011860352E+02  0.00000000000E+00 0.  1.
         25    2    1    2    0    0  0.15458044807E+02 -0.22552680153E+02  0.40021409987E+03  0.42019824116E+03  0.12509061361E+03 0.  0.
         23    2    1    2    0    0 -0.15458044807E+02  0.22552680153E+02  0.14941178215E+03  0.17745136156E+03  0.91747101002E+02 0.  0.
          5    1    3    3  502    0  0.16589553407E+02  0.33390582917E+02  0.32065788397E+03  0.32284531166E+03  0.41800000000E+01 0.  1.
         -5    1    3    3    0  502 -0.11315085994E+01 -0.55943263071E+02  0.79556215896E+02  0.97352929501E+02  0.41800000000E+01 0.  1.
        -11    1    4    4    0    0  0.22473844938E+02  0.34678476600E+02  0.12277063947E+03  0.12953879867E+03  0.00000000000E+00 0. -1.
         11    1    4    4    0    0 -0.37931889745E+02 -0.12125796446E+02  0.26641142682E+02  0.47912562888E+02  0.00000000000E+00 0.  1.
</event>
<event>
 8    1  0.6627806E-009  0.4383180E+02  0.7561462E-02  0.1481769E+00
         -2   -1    0    0    0  501 -0.00000000000E+00  0.00000000000E+00  0.12383553132E+03  0.12383553132E+03  0.00000000000E+00 0.  1.
          2   -1    0    0  501    0  0.00000000000E+00 -0.00000000000E+00 -0.12023476062E+03  0.12023476062E+03  0.00000000000E+00 0. -1.
         25    2    1    2    0    0  0.26576464266E+02 -0.37713373973E+01 -0.44354955991E+02  0.13540992402E+03  0.12509178216E+03 0.  0.
         23    2    1    2    0    0 -0.26576464266E+02  0.37713373973E+01  0.47955726689E+02  0.10866036792E+03  0.93737891995E+02 0.  0.
          5    1    3    3  502    0  0.25978542694E+01 -0.17953327297E+02 -0.84411319232E+02  0.86439655380E+02  0.41800000000E+01 0.  1.
         -5    1    3    3    0  502  0.23978609997E+02  0.14181989900E+02  0.40056363241E+02  0.48970268643E+02  0.41800000000E+01 0.  1.
        -11    1    4    4    0    0 -0.23084745490E+02  0.16047391019E+02 -0.23149534234E+02  0.36418747482E+02  0.00000000000E+00 0. -1.
         11    1    4    4    0    0 -0.34917187758E+01 -0.12276053622E+02  0.71105260924E+02  0.72241620439E+02  0.00000000000E+00 0.  1.
</event>
<event>
 8    1  0.6627806E-009  0.1168722E+03  0.7561462E-02  0.1248348E+00
         -2   -1    0    0    0  501 -0.00000000000E+00  0.00000000000E+00  0.54892988620E+02  0.54892988620E+02  0.00000000000E+00 0. -1.
          2   -1    0    0  501    0  0.00000000000E+00 -0.00000000000E+00 -0.35172064597E+03  0.35172064597E+03  0.00000000000E+00 0.  1.
         25    2    1    2    0    0  0.43790929897E+02  0.69922141569E+02 -0.14144892194E+03  0.20606224887E+03  0.12508837464E+03 0.  0.
         23    2    1    2    0    0 -0.43790929897E+02 -0.69922141569E+02 -0.15537873541E+03  0.20055138572E+03  0.96288916668E+02 0.  0.
          5    1    3    3  502    0 -0.13628879419E+02  0.68062394998E+02 -0.21150993256E+02  0.72684750002E+02  0.41800000000E+01 0. -1.
         -5    1    3    3    0  502  0.57419809316E+02  0.18597465706E+01 -0.12029792868E+03  0.13337749887E+03  0.41800000000E+01 0. -1.
        -11    1    4    4    0    0  0.10106095993E+02 -0.46932166533E+02 -0.12634255719E+03  0.13515621772E+03  0.00000000000E+00 0.  1.
         11    1    4    4    0    0 -0.53897025890E+02 -0.22989975036E+02 -0.29036178226E+02  0.65395168001E+02  0.00000000000E+00 0. -1.
</event>
<event>
 7    1  0.6627806E-009  0.7693388E+02  0.7561462E-02  0.1337985E+00
         -2   -1    0    0    0  501 -0.00000000000E+00  0.00000000000E+00  0.29481748341E+03  0.29481748341E+03  0.00000000000E+00 0.  1.
          2   -1    0    0  501    0  0.00000000000E+00 -0.00000000000E+00 -0.58127263601E+02  0.58127263601E+02  0.00000000000E+00 0. -1.
         23    2    1    2    0    0 -0.12506757853E+02 -0.44809511097E+00  0.20366151616E+03  0.22329075908E+03  0.90686989927E+02 0.  0.
          5    1    1    2  502    0  0.26048693946E+02  0.25458022452E+02 -0.38137250572E+02  0.52901490004E+02  0.41800000000E+01 0.  1.
         -5    1    1    2    0  502 -0.13541936092E+02 -0.25009927341E+02  0.71165954214E+02  0.76752497927E+02  0.41800000000E+01 0.  1.
        -11    1    3    3    0    0 -0.20599047141E+02  0.41183819760E+02  0.13446649711E+03  0.14213256698E+03  0.00000000000E+00 0.  1.
         11    1    3    3    0    0  0.80922892879E+01 -0.41631914871E+02  0.69195019058E+02  0.81158192095E+02  0.00000000000E+00 0. -1.
</event>
<event>
 8    1  0.6627806E-009  0.9102206E+02  0.7561462E-02  0.1300395E+00
          1   -1    0    0  501    0  0.00000000000E+00  0.00000000000E+00  0.65260490484E+03  0.65260490484E+03  0.00000000000E+00 0. -1.
         -1   -1    0    0    0  501 -0.00000000000E+00 -0.00000000000E+00 -0.21307351807E+02  0.21307351807E+02  0.00000000000E+00 0.  1.
         25    2    1    2    0    0  0.31160903387E+02  0.34075236749E+02  0.36999228242E+03  0.39328474225E+03  0.12508587360E+03 0.  0.
         23    2    1    2    0    0 -0.31160903387E+02 -0.34075236749E+02  0.26130527061E+03  0.28062751440E+03  0.91319404998E+02 0.  0.
          5    1    3    3  502    0  0.43519982518E+02 -0.28227691650E+02  0.73636223589E+02  0.90169602853E+02  0.41800000000E+01 0. -1.
         -5    1    3    3    0  502 -0.12359079131E+02  0.62302928398E+02  0.29635605883E+03  0.30311513940E+03  0.41800000000E+01 0. -1.
        -11    1    4    4    0    0 -0.41921109248E+02 -0.15142805564E+02  0.25366248035E+03  0.25754870975E+03  0.00000000000E+00 0. -1.
         11    1    4    4    0    0  0.10760205861E+02 -0.18932431185E+02  0.76427902645E+01  0.23078804644E+02  0.00000000000E+00 0.  1.
</event>
<event>
 8    1  0.6627806E-009  0.9656886E+02  0.7561462E-02  0.1287681E+00
          1   -1    0    0  501    0  0.00000000000E+00  0.00000000000E+00  0.80028625542E+02  0.80028625542E+02  0.00000000000E+00 0. -1.
         -1   -1    0    0    0  501 -0.00000000000E+00 -0.00000000000E+00 -0.16629512644E+03  0.16629512644E+03  0.00000000000E+00 0.  1.
         25    2    1    2    0    0  0.12846572400E+02 -0.25217538227E+02 -0.66897727882E+02  0.14464944172E+03  0.12508875384E+03 0.  0.
         23    2    1    2    0    0 -0.12846572400E+02  0.25217538227E+02 -0.19368773020E+02  0.10167431026E+03  0.95716024480E+02 0.  0.
          5    1    3    3  502    0  0.88863285809E+00  0.33474042197E+02 -0.76715017891E+02  0.83809113701E+02  0.41800000000E+01 0. -1.
         -5    1    3    3    0  502  0.11957939542E+02 -0.58691580424E+02  0.98172900086E+01  0.60840328022E+02  0.41800000000E+01 0. -1.
        -11    1    4    4    0    0  0.39739256998E+02 -0.26646600041E+01 -0.12579680305E+02  0.41767898154E+02  0.00000000000E+00 0.  1.
         11    1    4    4    0    0 -0.52585829398E+02  0.27882198231E+02 -0.67890927148E+01  0.59906412107E+02  0.00000000000E+00 0. -1.
</event>
<event>
 8    1  0.6627806E-009  0.1290601E+03  0.7561462E-02  0.1228857E+00
         -4   -1    0    0    0  501 -0.00000000000E+00  0.00000000000E+00  0.62419726273E+02  0.62419726273E+02  0.00000000000E+00 0.  1.
          4   -1    0    0  501    0  0.00000000000E+00 -0.00000000000E+00 -0.47787063848E+03  0.47787063848E+03  0.00000000000E+00 0. -1.
         25    2    1    2    0    0 -0.90419088107E+02 -0.73417847328E+02 -0.32406234311E+03  0.36637471872E+03  0.12509292743E+03 0.  0.
         23    2    1    2    0    0  0.90419088107E+02  0.73417847328E+02 -0.91388569095E+02  0.17391564603E+03  0.91263298063E+02 0.  0.
          5    1    3    3  502    0 -0.67899832184E+02 -0.23392711467E+02 -0.51896905192E+02  0.88703818006E+02  0.41800000000E+01 0. -1.
         -5    1    3    3    0  502 -0.22519255924E+02 -0.50025135861E+02 -0.27216543792E+03  0.27767090071E+03  0.41800000000E+01 0. -1.
        -11    1    4    4    0    0  0.85293157961E+02  0.34658024337E+02 -0.22610335031E+02  0.94801522647E+02  0.00000000000E+00 0.  1.
         11    1    4    4    0    0  0.51259301458E+01  0.38759822990E+02 -0.68778234064E+02  0.79114123385E+02  0.00000000000E+00 0. -1.
</event>
<event>
 8    1  0.6627806E-009  0.9993565E+02  0.7561462E-02  0.1280431E+00
         -1   -1    0    0    0  501 -0.00000000000E+00  0.00000000000E+00  0.57642717623E+02  0.57642717623E+02  0.00000000000E+00 0.  1.
          1   -1    0    0  501    0  0.00000000000E+00 -0.00000000000E+00 -0.26161587127E+03  0.26161587127E+03  0.00000000000E+00 0. -1.
         25    2    1    2    0    0 -0.16437277049E+02  0.38637824260E+02 -0.54756361954E+02  0.14285668854E+03  0.12508680484E+03 0.  0.
         23    2    1    2    0    0  0.16437277049E+02 -0.38637824260E+02 -0.14921679169E+03  0.17640190035E+03  0.84195688634E+02 0.  0.
          5    1    3    3  502    0 -0.57247805297E+02  0.36607670055E+02  0.72659432564E+01  0.68466773325E+02  0.41800000000E+01 0. -1.
         -5    1    3    3    0  502  0.40810528248E+02  0.20301542045E+01 -0.62022305210E+02  0.74389915214E+02  0.41800000000E+01 0. -1.
        -11    1    4    4    0    0 -0.11344990577E+02  0.21590472660E+02 -0.21606761134E+02  0.32583883249E+02  0.00000000000E+00 0.  1.
         11    1    4    4    0    0  0.27782267626E+02 -0.60228296920E+02 -0.12761003055E+03  0.14381801710E+03  0.00000000000E+00 0. -1.
</event>
<event>
 8    1  0.6627806E-009  0.7423361E+02  0.7561462E-02  0.1346261E+00
          2   -1    0    0  501    0  0.00000000000E+00  0.00000000000E+00  0.10478980419E+03  0.10478980419E+03  0.00000000000E+00 0.  1.
         -2   -1    0    0    0  501 -0.00000000000E+00 -0.00000000000E+00 -0.12151543022E+03  0.12151543022E+03  0.00000000000E+00 0. -1.
         25    2    1    2    0    0 -0.67380522898E+01  0.26318738251E+02 -0.10814805959E+02  0.12846028180E+03  0.12508799559E+03 0.  0.
         23    2    1    2    0    0  0.67380522898E+01 -0.26318738251E+02 -0.59108200715E+01  0.97844952605E+02  0.93811617749E+02 0.  0.
          5    1    3    3  502    0 -0.29148791848E+02  0.27376742614E+02 -0.61155055802E+02  0.73188464613E+02  0.41800000000E+01 0. -1.
         -5    1    3    3    0  502  0.22410739558E+02 -0.10580043624E+01  0.50340249843E+02  0.55271817186E+02  0.41800000000E+01 0. -1.
        -11    1    4    4    0    0 -0.34152328640E+02  0.42070196939E+01  0.20841120275E+02  0.40229750939E+02  0.00000000000E+00 0.  1.
         11    1    4    4    0    0  0.40890380930E+02 -0.30525757945E+02 -0.26751940347E+02  0.57615201666E+02  0.00000000000E+00 0. -1.
</event>
<event>
 8    1  0.6627806E-009  0.1432241E+03  0.7561462E-02  0.1209055E+00
          4   -1    0    0  501    0  0.00000000000E+00  0.00000000000E+00  0.64941122274E+03  0.64941122274E+03  0.00000000000E+00 0. -1.
         -4   -1    0    0    0  501 -0.00000000000E+00 -0.00000000000E+00 -0.38713159520E+02  0.38713159520E+02  0.00000000000E+00 0.  1.
         25    2    1    2    0    0  0.88307936381E+02 -0.57079467545E+02  0.22517672199E+03  0.27822445651E+03  0.12509170569E+03 0.  0.
         23    2    1    2    0    0 -0.88307936381E+02  0.57079467545E+02  0.38552134123E+03  0.40989992575E+03  0.91295604170E+02 0.  0.
          5    1    3    3  502    0  0.49850267151E+02 -0.89588765128E+02  0.19223147140E+03  0.21790274659E+03  0.41800000000E+01 0. -1.
         -5    1    3    3    0  502  0.38457669230E+02  0.32509297584E+02  0.32945250585E+02  0.60321709923E+02  0.41800000000E+01 0. -1.
        -11    1    4    4    0    0  0.63249044113E+01 -0.13729752312E+02  0.16336721565E+02  0.22257560196E+02  0.00000000000E+00 0.  1.
         11    1    4    4    0    0 -0.94632840792E+02  0.70809219857E+02  0.36918461966E+03  0.38764236555E+03  0.00000000000E+00 0. -1.
</event>
<event>
 8    1  0.6627806E-009  0.9217437E+02  0.7561462E-02  0.1297670E+00
         -2   -1    0    0    0  501 -0.00000000000E+00  0.00000000000E+00  0.24907271802E+02  0.24907271802E+02  0.00000000000E+00 0.  1.
          2   -1    0    0  501    0  0.00000000000E+00 -0.00000000000E+00 -0.91978397035E+03  0.91978397035E+03  0.00000000000E+00 0. -1.
         25    2    1    2    0    0  0.25420865302E+02  0.76069313099E+02 -0.71408139348E+03  0.72937807328E+03  0.12508947389E+03 0.  0.
         23    2    1    2    0    0 -0.25420865302E+02 -0.76069313099E+02 -0.18079530506E+03  0.21531316887E+03  0.85088527823E+02 0.  0.
          5    1    3    3  502    0  0.40371421634E+02  0.52705629248E+02 -0.14417465868E+03  0.15878142096E+03  0.41800000000E+01 0.  1.
         -5    1    3    3    0  502 -0.14950556331E+02  0.23363683851E+02 -0.56990673481E+03  0.57059665232E+03  0.41800000000E+01 0.  1.
        -11    1    4    4    0    0  0.10360344842E+01 -0.57365806581E+02 -0.37834387480E+02  0.68726632451E+02  0.00000000000E+00 0.  1.
         11    1    4    4    0    0 -0.26456899786E+02 -0.18703506518E+02 -0.14296091758E+03  0.14658653642E+03  0.00000000000E+00 0. -1.
</event>
<event>
 8    1  0.6627806E-009  0.8637731E+02  0.7561462E-02  0.1311870E+00
         -2   -1    0    0    0  501 -0.00000000000E+00  0.00000000000E+00  0.12981341555E+03  0.12981341555E+03  0.00000000000E+00 0.  1.
          2   -1    0    0  501    0  0.00000000000E+00 -0.00000000000E+00 -0.12041949344E+03  0.12041949344E+03  0.00000000000E+00 0. -1.
         25    2    1    2    0    0  0.40008215341E+02 -0.50055098549E+01 -0.41946130610E+02  0.13796196629E+03  0.12509322062E+03 0.  0.
         23    2    1    2    0    0 -0.40008215341E+02  0.50055098549E+01  0.51340052712E+02  0.11227094270E+03  0.91341398824E+02 0.  0.
          5    1    3    3  502    0 -0.12266010966E+02  0.13156192776E+02 -0.72358860179E+02  0.74678092369E+02  0.41800000000E+01 0.  1.
         -5    1    3    3    0  502  0.52274226307E+02 -0.18161702631E+02  0.30412729569E+02  0.63283873920E+02  0.41800000000E+01 0.  1.
        -11    1    4    4    0    0 -0.56810063109E+01 -0.40999152157E+02  0.13569181950E+02  0.43558317336E+02  0.00000000000E+00 0.  1.
         11    1    4    4    0    0 -0.34327209030E+02  0.46004662012E+02  0.37770870763E+02  0.68712625367E+02  0.00000000000E+00 0. -1.
</event>
<event>
 8    1  0.6627806E-009  0.1827743E+03  0.7561462E-02  0.1165145E+00
         -2   -1    0    0    0  501 -0.00000000000E+00  0.00000000000E+00  0.44968593156E+02  0.44968593156E+02  0.00000000000E+00 0.  1.
          2   -1    0    0  501    0  0.00000000000E+00 -0.00000000000E+00 -0.13905373351E+04  0.13905373351E+04  0.00000000000E+00 0. -1.
         25    2    1    2    0    0 -0.14671767941E+03 -0.59372244083E+02 -0.11520456709E+04  0.11695762992E+04  0.12509336884E+03 0.  0.
         23    2    1    2    0    0  0.14671767941E+03  0.59372244083E+02 -0.19352307099E+03  0.26592962903E+03  0.90643520305E+02 0.  0.
          5    1    3    3  502    0 -0.16928885128E+03 -0.49220113497E+02 -0.10280955635E+04  0.10431103944E+04  0.41800000000E+01 0. -1.
         -5    1    3    3    0  502  0.22571171868E+02 -0.10152130586E+02 -0.12395010741E+03  0.12646590482E+03  0.41800000000E+01 0. -1.
        -11    1    4    4    0    0  0.80867829324E+02  0.93520661825E+01 -0.15418487814E+03  0.17435608280E+03  0.00000000000E+00 0.  1.
         11    1    4    4    0    0  0.65849850083E+02  0.50020177900E+02 -0.39338192852E+02  0.91573546235E+02  0.00000000000E+00 0. -1.
</event>
<event>
 8    1  0.6627806E-009  0.1347612E+03  0.7561462E-02  0.1220557E+00
          2   -1    0    0  501    0  0.00000000000E+00  0.00000000000E+00  0.92921046672E+03  0.92921046672E+03  0.00000000000E+00 0. -1.
         -2   -1    0    0    0  501 -0.00000000000E+00 -0.00000000000E+00 -0.28001418659E+02  0.28001418659E+02  0.00000000000E+00 0.  1.
         25    2    1    2    0    0  0.38625803743E+02 -0.10812240349E+03  0.38963619874E+03  0.42502349344E+03  0.12508475429E+03 0.  0.
         23    2    1    2    0    0 -0.38625803743E+02  0.10812240349E+03  0.51157284932E+03  0.53218839194E+03  0.91297850459E+02 0.  0.
          5    1    3    3  502    0 -0.93068366871E+01 -0.17187732548E+02  0.25399658012E+03  0.25478180954E+03  0.41800000000E+01 0.  1.
         -5    1    3    3    0  502  0.47932640430E+02 -0.90934670944E+02  0.13563961862E+03  0.17024168390E+03  0.41800000000E+01 0.  1.
        -11    1    4    4    0    0 -0.44473143971E+02  0.12293417056E+03  0.45948123519E+03  0.47771715096E+03  0.00000000000E+00 0.  1.
         11    1    4    4    0    0  0.58473402281E+01 -0.14811767065E+02  0.52091614134E+02  0.54471240984E+02  0.00000000000E+00 0. -1.
</event>
<event>
 8    1  0.6627806E-009  0.1503663E+03  0.7561462E-02  0.1200024E+00
         -1   -1    0    0    0  501 -0.00000000000E+00  0.00000000000E+00  0.14069682607E+03  0.14069682607E+03  0.00000000000E+00 0.  1.
          1   -1    0    0  501    0  0.00000000000E+00 -0.00000000000E+00 -0.20262976720E+03  0.20262976720E+03  0.00000000000E+00 0. -1.
         25    2    1    2    0    0  0.60682654347E+02 -0.11074294627E+03 -0.51451935133E+02  0.18504348992E+03  0.12508959527E+03 0.  0.
         23    2    1    2    0    0 -0.60682654347E+02  0.11074294627E+03 -0.10481006002E+02  0.15828310336E+03  0.94854122914E+02 0.  0.
          5    1    3    3  502    0  0.20976708127E+02 -0.11212234369E+03  0.68705372473E+01  0.11435085885E+03  0.41800000000E+01 0. -1.
         -5    1    3    3    0  502  0.39705946220E+02  0.13793974172E+01 -0.58322472381E+02  0.70692631066E+02  0.41800000000E+01 0. -1.
        -11    1    4    4    0    0 -0.59747989511E+02  0.31786621937E+02 -0.34210798383E+02  0.75832646734E+02  0.00000000000E+00 0. -1.
         11    1    4    4    0    0 -0.93466483653E+00  0.78956324333E+02  0.23729792381E+02  0.82450456621E+02  0.00000000000E+00 0.  1.
</event>
<event>
 8    1  0.6627806E-009  0.1035218E+03  0.7561462E-02  0.1273060E+00
          2   -1    0    0  501    0  0.00000000000E+00  0.00000000000E+00  0.40164904078E+03  0.40164904078E+03  0.00000000000E+00 0. -1.
         -2   -1    0    0    0  501 -0.00000000000E+00 -0.00000000000E+00 -0.39118583453E+02  0.39118583453E+02  0.00000000000E+00 0.  1.
         25    2    1    2    0    0  0.45569110636E+02  0.10359472922E+01  0.12905146908E+03  0.18542406210E+03  0.12510069585E+03 0.  0.
         23    2    1    2    0    0 -0.45569110636E+02 -0.10359472922E+01  0.23347898824E+03  0.25534356213E+03  0.92791593047E+02 0.  0.
          5    1    3    3  502    0  0.53153134320E+02 -0.38460424835E+02  0.19383484980E+02  0.68539418268E+02  0.41800000000E+01 0. -1.
         -5    1    3    3    0  502 -0.75840236837E+01  0.39496372127E+02  0.10966798410E+03  0.11688464383E+03  0.41800000000E+01 0. -1.
        -11    1    4    4    0    0 -0.61066260245E+02 -0.29985580028E+02  0.18183043354E+03  0.19414048962E+03  0.00000000000E+00 0. -1.
         11    1    4    4    0    0  0.15497149609E+02  0.28949632736E+02  0.51648554703E+02  0.61203072509E+02  0.00000000000E+00 0.  1.
</event>
<event>
 8    1  0.6627806E-009  0.2118285E+03  0.7561462E-02  0.1140126E+00
         -2   -1    0    0    0  501 -0.00000000000E+00  0.00000000000E+00  0.40108283233E+02  0.40108283233E+02  0.00000000000E+00 0.  1.
          2   -1    0    0  501    0  0.00000000000E+00 -0.00000000000E+00 -0.13254350970E+04  0.13254350970E+04  0.00000000000E+00 0. -1.
         25    2    1    2    0    0  0.18065442202E+03  0.87404247230E+02 -0.56939466306E+03  0.61654794212E+03  0.12508221287E+03 0.  0.
         23    2    1    2    0    0 -0.18065442202E+03 -0.87404247230E+02 -0.71593215068E+03  0.74899543809E+03  0.90331607281E+02 0.  0.
          5    1    3    3  502    0  0.15362856498E+03  0.10874439078E+03 -0.38089316247E+03  0.42488133887E+03  0.41800000000E+01 0. -1.
         -5    1    3    3    0  502  0.27025857041E+02 -0.21340143548E+02 -0.18850150059E+03  0.19166660325E+03  0.41800000000E+01 0. -1.
        -11    1    4    4    0    0 -0.63016099958E+02 -0.31742245584E+02 -0.12166522316E+03  0.14064503381E+03  0.00000000000E+00 0. -1.
         11    1    4    4    0    0 -0.11763832206E+03 -0.55662001646E+02 -0.59426692752E+03  0.60835040428E+03  0.00000000000E+00 0.  1.
</event>
<event>
 8    1  0.6627806E-009  0.1126170E+03  0.7561462E-02  0.1255799E+00
         -2   -1    0    0    0  501 -0.00000000000E+00  0.00000000000E+00  0.38114381720E+02  0.38114381720E+02  0.00000000000E+00 0. -1.
          2   -1    0    0  501    0  0.00000000000E+00 -0.00000000000E+00 -0.57297579803E+03  0.57297579803E+03  0.00000000000E+00 0.  1.
         25    2    1    2    0    0  0.13846798614E+02  0.75191572019E+02 -0.15779100668E+03  0.21540001489E+03  0.12511458064E+03 0.  0.
         23    2    1    2    0    0 -0.13846798614E+02 -0.75191572019E+02 -0.37707040963E+03  0.39569016486E+03  0.92428926323E+02 0.  0.
          5    1    3    3  502    0 -0.27183286138E+02  0.83373947281E+01  0.97587619513E+01  0.30350437080E+02  0.41800000000E+01 0.  1.
         -5    1    3    3    0  502  0.41030084752E+02  0.66854177291E+02 -0.16754976864E+03  0.18504957781E+03  0.41800000000E+01 0.  1.
        -11    1    4    4    0    0 -0.51809462870E+02 -0.52276205073E+02 -0.26872274713E+03  0.27861969939E+03  0.00000000000E+00 0. -1.
         11    1    4    4    0    0  0.37962664256E+02 -0.22915366946E+02 -0.10834766249E+03  0.11707046548E+03  0.00000000000E+00 0.  1.
</event>
<event>
 8    1  0.6627806E-009  0.1379932E+03  0.7561462E-02  0.1216055E+00
         -3   -1    0    0    0  501 -0.00000000000E+00  0.00000000000E+00  0.19893430376E+03  0.19893430376E+03  0.00000000000E+00 0.  1.
          3   -1    0    0  501    0  0.00000000000E+00 -0.00000000000E+00 -0.10523697404E+03  0.10523697404E+03  0.00000000000E+00 0. -1.
         25    2    1    2    0    0 -0.31994346692E+02  0.89639125499E+02  0.81042815106E+02  0.17684670141E+03  0.12509199367E+03 0.  0.
         23    2    1    2    0    0  0.31994346692E+02 -0.89639125499E+02  0.12654514617E+02  0.12732457639E+03  0.83621767334E+02 0.  0.
          5    1    3    3  502    0 -0.74784958760E+02  0.30338557249E+02  0.59956229932E+02  0.10062524544E+03  0.41800000000E+01 0.  1.
         -5    1    3    3    0  502  0.42790612068E+02  0.59300568250E+02  0.21086585174E+02  0.76221455970E+02  0.41800000000E+01 0.  1.
        -11    1    4    4    0    0  0.52571357302E+02 -0.86341973203E+02 -0.32023700764E+01  0.10113821790E+03  0.00000000000E+00 0.  1.
         11    1    4    4    0    0 -0.20577010610E+02 -0.32971522960E+01  0.15856884693E+02  0.26186358493E+02  0.00000000000E+00 0. -1.
</event>
<event>
 8    1  0.6627806E-009  0.7273995E+02  0.7561462E-02  0.1351016E+00
         -1   -1    0    0    0  501 -0.00000000000E+00  0.00000000000E+00  0.62690779031E+02  0.62690779031E+02  0.00000000000E+00 0.  1.
          1   -1    0    0  501    0  0.00000000000E+00 -0.00000000000E+00 -0.29718445825E+03  0.29718445825E+03  0.00000000000E+00 0. -1.
         25    2    1    2    0    0 -0.45205037115E+02 -0.29545386192E+02 -0.21272206601E+03  0.25260731663E+03  0.12507339374E+03 0.  0.
         23    2    1    2    0    0  0.45205037115E+02  0.29545386192E+02 -0.21771613207E+02  0.10726792065E+03  0.90088725339E+02 0.  0.
          5    1    3    3  502    0 -0.31472186442E+02 -0.50023787589E+01  0.54424878442E+01  0.32597781928E+02  0.41800000000E+01 0.  1.
         -5    1    3    3    0  502 -0.13732850674E+02 -0.24543007433E+02 -0.21816455385E+03  0.22000953470E+03  0.41800000000E+01 0.  1.
        -11    1    4    4    0    0  0.71043598918E+01  0.43691146615E+02  0.20365152111E+02  0.48725020703E+02  0.00000000000E+00 0.  1.
         11    1    4    4    0    0  0.38100677224E+02 -0.14145760423E+02 -0.42136765318E+02  0.58542899948E+02  0.00000000000E+00 0. -1.
</event>
<event>
 8    1  0.6627806E-009  0.1475419E+03  0.7561462E-02  0.1203526E+00
          1   -1    0    0  501    0  0.00000000000E+00  0.00000000000E+00  0.71609826715E+03  0.71609826715E+03  0.00000000000E+00 0. -1.
         -1   -1    0    0    0  501 -0.00000000000E+00 -0.00000000000E+00 -0.31378243564E+02  0.31378243564E+02  0.00000000000E+00 0.  1.
         25    2    1    2    0    0 -0.39749862282E+02  0.93774783685E+02  0.32768046918E+03  0.36523466255E+03  0.12509239479E+03 0.  0.
         23    2    1    2    0    0  0.39749862282E+02 -0.93774783685E+02  0.35703955440E+03  0.38224184817E+03  0.90872578238E+02 0.  0.
          5    1    3    3  502    0 -0.78170480164E+02  0.28988950034E+02  0.20321742859E+03  0.21969474021E+03  0.41800000000E+01 0. -1.
         -5    1    3    3    0  502  0.38420617882E+02  0.64785833651E+02  0.12446304059E+03  0.14553992234E+03  0.41800000000E+01 0. -1.
        -11    1    4    4    0    0  0.28974555372E+02  0.10888205246E+02  0.70508117748E+02  0.77003068386E+02  0.00000000000E+00 0.  1.
         11    1    4    4    0    0  0.10775306910E+02 -0.10466298893E+03  0.28653143665E+03  0.30523877978E+03  0.00000000000E+00 0. -1.
</event>
<event>
 8    1  0.6627806E-009  0.7447080E+02  0.7561462E-02  0.1345518E+00
         -2   -1    0    0    0  501 -0.00000000000E+00  0.00000000000E+00  0.45932285488E+02  0.45932285488E+02  0.00000000000E+00 0. -1.
          2   -1    0    0  501    0  0.00000000000E+00 -0.00000000000E+00 -0.26997663008E+03  0.26997663008E+03  0.00000000000E+00 0.  1.
         25    2    1    2    0    0 -0.77417687584E+00 -0.25190071445E+02 -0.11018740400E+03  0.16859634709E+03  0.12509326601E+03 0.  0.
         23    2    1    2    0    0  0.77417687584E+00  0.25190071445E+02 -0.11385694060E+03  0.14731256848E+03  0.90013614873E+02 0.  0.
          5    1    3    3  502    0 -0.11600791820E+02  0.37052886436E+02 -0.96101619187E+02  0.10373277387E+03  0.41800000000E+01 0. -1.
         -5    1    3    3    0  502  0.10826614945E+02 -0.62242957881E+02 -0.14085784812E+02  0.64863573219E+02  0.41800000000E+01 0. -1.
        -11    1    4    4    0    0 -0.18213894312E+02  0.19654996932E+02 -0.12273989321E+03  0.12563099233E+03  0.00000000000E+00 0.  1.
         11    1    4    4    0    0  0.18988071188E+02  0.55350745128E+01  0.88829526108E+01  0.21681576151E+02  0.00000000000E+00 0. -1.
</event>
<event>
 8    1  0.6627806E-009  0.1168660E+03  0.7561462E-02  0.1248359E+00
         -1   -1    0    0    0  501 -0.00000000000E+00  0.00000000000E+00  0.20816143055E+02  0.20816143055E+02  0.00000000000E+00 0. -1.
          1   -1    0    0  501    0  0.00000000000E+00 -0.00000000000E+00 -0.15323821768E+04  0.15323821768E+04  0.00000000000E+00 0.  1.
         25    2    1    2    0    0  0.34261791334E+02 -0.57323602423E+02 -0.13421807594E+04  0.13496514708E+04  0.12510010343E+03 0.  0.
         23    2    1    2    0    0 -0.34261791334E+02  0.57323602423E+02 -0.16938527437E+03  0.20354684912E+03  0.90994960704E+02 0.  0.
          5    1    3    3  502    0  0.72493527019E+02 -0.60689483197E+02 -0.11324229844E+04  0.11363704558E+04  0.41800000000E+01 0. -1.
         -5    1    3    3    0  502 -0.38231735685E+02  0.33658807733E+01 -0.20975777504E+03  0.21328101499E+03  0.41800000000E+01 0. -1.
        -11    1    4    4    0    0 -0.14244135251E+01 -0.18137338172E+02 -0.37240860039E+01  0.18570428278E+02  0.00000000000E+00 0. -1.
         11    1    4    4    0    0 -0.32837377809E+02  0.75460940596E+02 -0.16566118836E+03  0.18497642084E+03  0.00000000000E+00 0.  1.
</event>
<event>
 8    1  0.6627806E-009  0.1734569E+03  0.7561462E-02  0.1174290E+00
         -1   -1    0    0    0  501 -0.00000000000E+00  0.00000000000E+00  0.59980984429E+03  0.59980984429E+03  0.00000000000E+00 0.  1.
          1   -1    0    0  501    0  0.00000000000E+00 -0.00000000000E+00 -0.58804548883E+02  0.58804548883E+02  0.00000000000E+00 0. -1.
         25    2    1    2    0    0  0.14986482330E+03 -0.19532005643E+02  0.31907328441E+03  0.37456074888E+03  0.12508808604E+03 0.  0.
         23    2    1    2    0    0 -0.14986482330E+03  0.19532005643E+02  0.22193201100E+03  0.28405364429E+03  0.92691374053E+02 0.  0.
          5    1    3    3  502    0  0.63976720066E+02  0.42222820138E+02  0.20514048886E+03  0.21903396956E+03  0.41800000000E+01 0. -1.
         -5    1    3    3    0  502  0.85888103236E+02 -0.61754825780E+02  0.11393279556E+03  0.15552677933E+03  0.41800000000E+01 0. -1.
        -11    1    4    4    0    0 -0.11827043266E+03  0.42003810396E+02  0.20785078141E+03  0.24280478303E+03  0.00000000000E+00 0.  1.
         11    1    4    4    0    0 -0.31594390638E+02 -0.22471804754E+02  0.14081229585E+02  0.41248861261E+02  0.00000000000E+00 0. -1.
</event>
<event>
 8    1  0.6627806E-009  0.1252642E+03  0.7561462E-02  0.1234657E+00
         -1   -1    0    0    0  501 -0.00000000000E+00  0.00000000000E+00  0.95114423820E+03  0.95114423820E+03  0.00000000000E+00 0.  1.
          1   -1    0    0  501    0  0.00000000000E+00 -0.00000000000E+00 -0.20540619494E+02  0.20540619494E+02  0.00000000000E+00 0. -1.
         25    2    1    2    0    0 -0.57152500078E+02  0.65937921886E+02  0.52622586182E+03  0.54788137894E+03  0.12508449115E+03 0.  0.
         23    2    1    2    0    0  0.57152500078E+02 -0.65937921886E+02  0.40437775688E+03  0.42380347876E+03  0.92053248374E+02 0.  0.
          5    1    3    3  502    0 -0.52699619027E+02 -0.20247472226E+02  0.12157116386E+03  0.13410529542E+03  0.41800000000E+01 0. -1.
         -5    1    3    3    0  502 -0.44528810504E+01  0.86185394113E+02  0.40465469796E+03  0.41377608352E+03  0.41800000000E+01 0. -1.
        -11    1    4    4    0    0  0.56147302462E+02 -0.77616196462E+02  0.39996802447E+03  0.41127997049E+03  0.00000000000E+00 0.  1.
         11    1    4    4    0    0  0.10051976151E+01  0.11678274576E+02  0.44097324095E+01  0.12523508264E+02  0.00000000000E+00 0. -1.
</event>
<event>
 8    1  0.6627806E-009  0.1422452E+03  0.7561462E-02  0.1210339E+00
         -2   -1    0    0    0  501 -0.00000000000E+00  0.00000000000E+00  0.73788201763E+02  0.73788201763E+02  0.00000000000E+00 0.  1.
          2   -1    0    0  501    0  0.00000000000E+00 -0.00000000000E+00 -0.42298186927E+03  0.42298186927E+03  0.00000000000E+00 0. -1.
         25    2    1    2    0    0 -0.86897265329E+02  0.43022124817E+02 -0.43713110477E+02  0.16419626584E+03  0.12509012648E+03 0.  0.
         23    2    1    2    0    0  0.86897265329E+02 -0.43022124817E+02 -0.30548055703E+03  0.33257380520E+03  0.88797112759E+02 0.  0.
          5    1    3    3  502    0 -0.11372316693E+03  0.56078414038E+02 -0.26868424202E+02  0.12968088462E+03  0.41800000000E+01 0. -1.
         -5    1    3    3    0  502  0.26825901598E+02 -0.13056289221E+02 -0.16844686275E+02  0.34515381216E+02  0.41800000000E+01 0. -1.
        -11    1    4    4    0    0  0.72815341403E+02  0.92145823243E+01 -0.21465220939E+03  0.22685359479E+03  0.00000000000E+00 0. -1.
         11    1    4    4    0    0  0.14081923925E+02 -0.52236707141E+02 -0.90828347641E+02  0.10572021041E+03  0.00000000000E+00 0.  1.
</event>
<event>
 8    1  0.6627806E-009  0.1586151E+03  0.7561462E-02  0.1190269E+00
         -1   -1    0    0    0  501 -0.00000000000E+00  0.00000000000E+00  0.19673293852E+03  0.19673293852E+03  0.00000000000E+00 0.  1.
          1   -1    0    0  501    0  0.00000000000E+00 -0.00000000000E+00 -0.14770965013E+03  0.14770965013E+03  0.00000000000E+00 0. -1.
         25    2    1    2    0    0  0.70767472991E+02  0.10742351065E+03  0.48303743300E+02  0.18581910920E+03  0.12509054262E+03 0.  0.
         23    2    1    2    0    0 -0.70767472991E+02 -0.10742351065E+03  0.71954508953E+00  0.15862347945E+03  0.92806490146E+02 0.  0.
          5    1    3    3  502    0  0.10219245865E+03  0.70474110736E+02  0.56491293728E+02  0.13645012846E+03  0.41800000000E+01 0. -1.
         -5    1    3    3    0  502 -0.31424985660E+02  0.36949399917E+02 -0.81875504275E+01  0.49368980746E+02  0.41800000000E+01 0. -1.
        -11    1    4    4    0    0  0.12809581943E+02 -0.15205855891E+02 -0.24587984042E+02  0.31620759039E+02  0.00000000000E+00 0. -1.
         11    1    4    4    0    0 -0.83577054934E+02 -0.92217654762E+02  0.25307529132E+02  0.12700272041E+03  0.00000000000E+00 0.  1.
</event>
<event>
 8    1  0.6627806E-009  0.1114556E+03  0.7561462E-02  0.1257898E+00
         -1   -1    0    0    0  501 -0.00000000000E+00  0.00000000000E+00  0.20706980653E+02  0.20706980653E+02  0.00000000000E+00 0.  1.
          1   -1    0    0  501    0  0.00000000000E+00 -0.00000000000E+00 -0.64465041605E+03  0.64465041605E+03  0.00000000000E+00 0. -1.
         25    2    1    2    0    0 -0.19490478023E+02 -0.33222075798E+02 -0.37659597347E+03  0.39869264079E+03  0.12509080514E+03 0.  0.
         23    2    1    2    0    0  0.19490478023E+02  0.33222075798E+02 -0.24734746194E+03  0.26666475592E+03  0.91900707675E+02 0.  0.
          5    1    3    3  502    0 -0.47835990708E+02 -0.66118385688E+02 -0.29570604481E+03  0.30678895069E+03  0.41800000000E+01 0. -1.
         -5    1    3    3    0  502  0.28345512685E+02  0.32896309890E+02 -0.80889928660E+02  0.91903690092E+02  0.41800000000E+01 0. -1.
        -11    1    4    4    0    0 -0.28730838739E+02 -0.12303858552E+02 -0.10639860409E+03  0.11089413412E+03  0.00000000000E+00 0. -1.
         11    1    4    4    0    0  0.48221316762E+02  0.45525934349E+02 -0.14094885784E+03  0.15577062180E+03  0.00000000000E+00 0.  1.
</event>
<event>
 8    1  0.6627806E-009  0.1077611E+03  0.7561462E-02  0.1264773E+00
         -1   -1    0    0    0  501 -0.00000000000E+00  0.00000000000E+00  0.48965117135E+02  0.48965117135E+02  0.00000000000E+00 0.  1.
          1   -1    0    0  501    0  0.00000000000E+00 -0.00000000000E+00 -0.36818194224E+03  0.36818194224E+03  0.00000000000E+00 0. -1.
         25    2    1    2    0    0  0.48949672772E+02 -0.30293837398E+02 -0.93397665637E+02  0.16639243509E+03  0.12509808735E+03 0.  0.
         23    2    1    2    0    0 -0.48949672772E+02  0.30293837398E+02 -0.22581915947E+03  0.25075462429E+03  0.92573223826E+02 0.  0.
          5    1    3    3  502    0  0.71268040370E+02 -0.64166287027E+02 -0.74180365875E+02  0.12131218014E+03  0.41800000000E+01 0. -1.
         -5    1    3    3    0  502 -0.22318367598E+02  0.33872449629E+02 -0.19217299762E+02  0.45080254949E+02  0.41800000000E+01 0. -1.
        -11    1    4    4    0    0 -0.17297969021E+01  0.31471938139E+02 -0.18693567579E+03  0.18957431780E+03  0.00000000000E+00 0. -1.
         11    1    4    4    0    0 -0.47219875870E+02 -0.11781007415E+01 -0.38883483680E+02  0.61180306485E+02  0.00000000000E+00 0.  1.
</event>
<event>
 8    1  0.6627806E-009  0.8662858E+02  0.7561462E-02  0.1311228E+00
          2   -1    0    0  501    0  0.00000000000E+00  0.00000000000E+00  0.22306384716E+03  0.22306384716E+03  0.00000000000E+00 0. -1.
         -2   -1    0    0    0  501 -0.00000000000E+00 -0.00000000000E+00 -0.65778916942E+02  0.65778916942E+02  0.00000000000E+00 0.  1.
         25    2    1    2    0    0  0.14075803064E+02  0.43627396576E+01  0.26708747157E+02  0.12875570529E+03  0.12509001855E+03 0.  0.
         23    2    1    2    0    0 -0.14075803064E+02 -0.43627396576E+01  0.13057618306E+03  0.16008705882E+03  0.91436125725E+02 0.  0.
          5    1    3    3  502    0  0.12952734766E+01 -0.37135280762E+02  0.62163105695E+02  0.72542614512E+02  0.41800000000E+01 0.  1.
         -5    1    3    3    0  502  0.12780529587E+02  0.41498020420E+02 -0.35454358538E+02  0.56213090776E+02  0.41800000000E+01 0.  1.
        -11    1    4    4    0    0  0.30117885263E+02  0.25035092699E+02  0.62617354294E+02  0.73856454951E+02  0.00000000000E+00 0.  1.
         11    1    4    4    0    0 -0.44193688327E+02 -0.29397832356E+02  0.67958828771E+02  0.86230603866E+02  0.00000000000E+00 0. -1.
</event>
<event>
 8    1  0.6627806E-009  0.1683724E+03  0.7561462E-02  0.1179556E+00
          1   -1    0    0  501    0  0.00000000000E+00  0.00000000000E+00  0.64902547449E+02  0.64902547449E+02  0.00000000000E+00 0. -1.
         -1   -1    0    0    0  501 -0.00000000000E+00 -0.00000000000E+00 -0.59784857428E+03  0.59784857428E+03  0.00000000000E+00 0.  1.
         25    2    1    2    0    0  0.10824434844E+03 -0.11367746264E+03 -0.35820107981E+03  0.41060290400E+03  0.12508927496E+03 0.  0.
         23    2    1    2    0    0 -0.10824434844E+03  0.11367746264E+03 -0.17474494702E+03  0.25214821773E+03  0.91670729868E+02 0.  0.
          5    1    3    3  502    0  0.93617432739E+02 -0.98067509003E+02 -0.36365980305E+03  0.38813320496E+03  0.41800000000E+01 0. -1.
         -5    1    3    3    0  502  0.14626915700E+02 -0.15609953640E+02  0.54587232401E+01  0.22469699040E+02  0.41800000000E+01 0.  1.
        -11    1    4    4    0    0 -0.94993692015E+02  0.37732324194E+02 -0.78762317602E+02  0.12903887974E+03  0.00000000000E+00 0. -1.
         11    1    4    4    0    0 -0.13250656424E+02  0.75945138450E+02 -0.95982629419E+02  0.12310933799E+03  0.00000000000E+00 0.  1.
</event>
<event>
 8    1  0.6627806E-009  0.1524337E+03  0.7561462E-02  0.1197514E+00
          3   -1    0    0  501    0  0.00000000000E+00  0.00000000000E+00  0.35896068944E+03  0.35896068944E+03  0.00000000000E+00 0. -1.
         -3   -1    0    0    0  501 -0.00000000000E+00 -0.00000000000E+00 -0.87749630555E+02  0.87749630555E+02  0.00000000000E+00 0.  1.
         25    2    1    2    0    0 -0.11762003641E+03  0.26595486296E+02  0.24149979967E+03  0.29750891851E+03  0.12509040929E+03 0.  0.
         23    2    1    2    0    0  0.11762003641E+03 -0.26595486296E+02  0.29711259221E+02  0.14920140149E+03  0.82683168936E+02 0.  0.
          5    1    3    3  502    0 -0.10412689132E+03  0.62455103069E+02  0.22474808009E+03  0.25548428778E+03  0.41800000000E+01 0.  1.
         -5    1    3    3    0  502 -0.13493145091E+02 -0.35859616774E+02  0.16751719575E+02  0.42024630734E+02  0.41800000000E+01 0.  1.
        -11    1    4    4    0    0  0.83636420494E+02 -0.55369677417E+02  0.11015811128E+02  0.10090688829E+03  0.00000000000E+00 0.  1.
         11    1    4    4    0    0  0.33983615915E+02  0.28774191121E+02  0.18695448092E+02  0.48294513194E+02  0.00000000000E+00 0. -1.
</event>
<event>
 8    1  0.6627806E-009  0.9072348E+02  0.7561462E-02  0.1301109E+00
          1   -1    0    0  501    0  0.00000000000E+00  0.00000000000E+00  0.18505590574E+03  0.18505590574E+03  0.00000000000E+00 0. -1.
         -1   -1    0    0    0  501 -0.00000000000E+00 -0.00000000000E+00 -0.56393546397E+02  0.56393546397E+02  0.00000000000E+00 0.  1.
         25    2    1    2    0    0  0.15230852438E+02  0.18805419888E+02  0.96357925500E+02  0.15975085314E+03  0.12509941083E+03 0.  0.
         23    2    1    2    0    0 -0.15230852438E+02 -0.18805419888E+02  0.32304433845E+02  0.81698599001E+02  0.71031415229E+02 0.  0.
          5    1    3    3  502    0  0.50894572695E+02  0.55723570873E+02  0.62940458335E+02  0.98358261351E+02  0.41800000000E+01 0. -1.
         -5    1    3    3    0  502 -0.35663720256E+02 -0.36918150985E+02  0.33417467165E+02  0.61392591788E+02  0.41800000000E+01 0. -1.
        -11    1    4    4    0    0 -0.27941795067E+02  0.40272697636E+01  0.44627067496E+02  0.52806609119E+02  0.00000000000E+00 0. -1.
         11    1    4    4    0    0  0.12710942629E+02 -0.22832689652E+02 -0.12322633652E+02  0.28891989882E+02  0.00000000000E+00 0.  1.
</event>
<event>
 8    1  0.6627806E-009  0.2021068E+03  0.7561462E-02  0.1147974E+00
          1   -1    0    0  501    0  0.00000000000E+00  0.00000000000E+00  0.26104570723E+03  0.26104570723E+03  0.00000000000E+00 0. -1.
         -1   -1    0    0    0  501 -0.00000000000E+00 -0.00000000000E+00 -0.18526348295E+03  0.18526348295E+03  0.00000000000E+00 0.  1.
         25    2    1    2    0    0  0.15959825715E+03  0.93178095269E+02 -0.63676867069E+01  0.22325311457E+03  0.12509054564E+03 0.  0.
         23    2    1    2    0    0 -0.15959825715E+03 -0.93178095269E+02  0.82149910991E+02  0.22305607561E+03  0.94083175255E+02 0.  0.
          5    1    3    3  502    0  0.17521951698E+03  0.67528388984E+02  0.11285526440E+02  0.18816694172E+03  0.41800000000E+01 0.  1.
         -5    1    3    3    0  502 -0.15621259828E+02  0.25649706285E+02 -0.17653213147E+02  0.35086172854E+02  0.41800000000E+01 0.  1.
        -11    1    4    4    0    0 -0.10028247773E+03 -0.46273891416E+02 -0.12854423658E+01  0.11045135005E+03  0.00000000000E+00 0.  1.
         11    1    4    4    0    0 -0.59315779420E+02 -0.46904203853E+02  0.83435353357E+02  0.11260472555E+03  0.00000000000E+00 0. -1.
</event>
<event>
 8    1  0.6627806E-009  0.2367038E+03  0.7561462E-02  0.1122008E+00
         -2   -1    0    0    0  501 -0.00000000000E+00  0.00000000000E+00  0.82945377106E+02  0.82945377106E+02  0.00000000000E+00 0.  1.
          2   -1    0    0  501    0  0.00000000000E+00 -0.00000000000E+00 -0.72508835292E+03  0.72508835292E+03  0.00000000000E+00 0. -1.
         25    2    1    2    0    0  0.20248919292E+03 -0.74584470903E+02 -0.39974700390E+03  0.47117933172E+03  0.12509028326E+03 0.  0.
         23    2    1    2    0    0 -0.20248919292E+03  0.74584470903E+02 -0.24239597192E+03  0.33685439831E+03  0.90279354834E+02 0.  0.
          5    1    3    3  502    0  0.34483309866E+02  0.28550712226E+02 -0.12621551170E+03  0.13398533360E+03  0.41800000000E+01 0.  1.
         -5    1    3    3    0  502  0.16800588305E+03 -0.10313518313E+03 -0.27353149220E+03  0.33719399812E+03  0.41800000000E+01 0.  1.
        -11    1    4    4    0    0 -0.60869236229E+01  0.29011027410E+02 -0.15965722301E+02  0.33668897208E+02  0.00000000000E+00 0. -1.
         11    1    4    4    0    0 -0.19640226930E+03  0.45573443493E+02 -0.22643024961E+03  0.30318550110E+03  0.00000000000E+00 0.  1.
</event>
<event>
 8    1  0.6627806E-009  0.1169204E+03  0.7561462E-02  0.1248266E+00
         -2   -1    0    0    0  501 -0.00000000000E+00  0.00000000000E+00  0.98447450592E+02  0.98447450592E+02  0.00000000000E+00 0. -1.
          2   -1    0    0  501    0  0.00000000000E+00 -0.00000000000E+00 -0.25556996250E+03  0.25556996250E+03  0.00000000000E+00 0.  1.
         25    2    1    2    0    0  0.19070751150E+02 -0.45551206475E+02  0.32164569592E+02  0.13827213621E+03  0.12508404436E+03 0.  0.
         23    2    1    2    0    0 -0.19070751150E+02  0.45551206475E+02 -0.18928708150E+03  0.21574527688E+03  0.90982522025E+02 0.  0.
          5    1    3    3  502    0  0.63817138717E+02 -0.57975418454E+02  0.30715921101E+02  0.91622685772E+02  0.41800000000E+01 0.  1.
         -5    1    3    3    0  502 -0.44746387567E+02  0.12424211979E+02  0.14486484910E+01  0.46649450437E+02  0.41800000000E+01 0.  1.
        -11    1    4    4    0    0  0.23287259566E+02 -0.14480318496E+02 -0.31984858130E+02  0.42130834687E+02  0.00000000000E+00 0.  1.
         11    1    4    4    0    0 -0.42358010716E+02  0.60031524971E+02 -0.15730222337E+03  0.17361444219E+03  0.00000000000E+00 0. -1.
</event>
<event>
 8    1  0.6627806E-009  0.1061260E+03  0.7561462E-02  0.1267917E+00
         -2   -1    0    0    0  501 -0.00000000000E+00  0.00000000000E+00  0.10301013274E+03  0.10301013274E+03  0.00000000000E+00 0.  1.
          2   -1    0    0  501    0  0.00000000000E+00 -0.00000000000E+00 -0.15613359795E+03  0.15613359795E+03  0.00000000000E+00 0. -1.
         25    2    1    2    0    0  0.52732289696E+02 -0.39001628948E+02 -0.15650874306E+02  0.14211295771E+03  0.12509724796E+03 0.  0.
         23    2    1    2    0    0 -0.52732289696E+02  0.39001628948E+02 -0.37472590912E+02  0.11703077298E+03  0.89387836516E+02 0.  0.
          5    1    3    3  502    0  0.75464401379E+02 -0.29623256715E+02  0.32850803701E+02  0.87573174647E+02  0.41800000000E+01 0.  1.
         -5    1    3    3    0  502 -0.22732111684E+02 -0.93783722327E+01 -0.48501678007E+02  0.54539783065E+02  0.41800000000E+01 0.  1.
        -11    1    4    4    0    0  0.63400760737E+01  0.46189389422E+02  0.15825634775E+00  0.46622755226E+02  0.00000000000E+00 0.  1.
         11    1    4    4    0    0 -0.59072365770E+02 -0.71877604742E+01 -0.37630847260E+02  0.70408017752E+02  0.00000000000E+00 0. -1.
</event>
<event>
 8    1  0.6627806E-009  0.7873167E+02  0.7561462E-02  0.1332690E+00
          3   -1    0    0  501    0  0.00000000000E+00  0.00000000000E+00  0.10004035913E+04  0.10004035913E+04  0.00000000000E+00 0. -1.
         -3   -1    0    0    0  501 -0.00000000000E+00 -0.00000000000E+00 -0.39159189161E+02  0.39159189161E+02  0.00000000000E+00 0.  1.
         25    2    1    2    0    0 -0.66883181984E+02 -0.35417034455E+01  0.90023460129E+03  0.91134845420E+03  0.12509102255E+03 0.  0.
         23    2    1    2    0    0  0.66883181984E+02  0.35417034455E+01  0.61009800801E+02  0.12821432621E+03  0.90723833451E+02 0.  0.
          5    1    3    3  502    0 -0.12384593434E+02 -0.16490900702E+01  0.76978764399E+03  0.76990037466E+03  0.41800000000E+01 0. -1.
         -5    1    3    3    0  502 -0.54498588550E+02 -0.18926133753E+01  0.13044695730E+03  0.14144807955E+03  0.41800000000E+01 0. -1.
        -11    1    4    4    0    0  0.13228376144E+02 -0.25397281734E+02 -0.13736960384E+02  0.31760288655E+02  0.00000000000E+00 0.  1.
         11    1    4    4    0    0  0.53654805841E+02  0.28938985179E+02  0.74746761186E+02  0.96454037555E+02  0.00000000000E+00 0. -1.
</event>
<event>
 8    1  0.6627806E-009  0.9572961E+02  0.7561462E-02  0.1289541E+00
          2   -1    0    0  501    0  0.00000000000E+00  0.00000000000E+00  0.51109912848E+02  0.51109912848E+02  0.00000000000E+00 0. -1.
         -2   -1    0    0    0  501 -0.00000000000E+00 -0.00000000000E+00 -0.27300518531E+03  0.27300518531E+03  0.00000000000E+00 0.  1.
         25    2    1    2    0    0  0.81494308853E+01  0.31378133711E+02 -0.14428553525E+03  0.19369469970E+03  0.12509324726E+03 0.  0.
         23    2    1    2    0    0 -0.81494308853E+01 -0.31378133711E+02 -0.77609737210E+02  0.13042039846E+03  0.99675516181E+02 0.  0.
          5    1    3    3  502    0 -0.10707772099E+02 -0.35444758112E+02 -0.44662250442E+01  0.37528746677E+02  0.41800000000E+01 0.  1.
         -5    1    3    3    0  502  0.18857202984E+02  0.66822891823E+02 -0.13981931021E+03  0.15616595302E+03  0.41800000000E+01 0.  1.
        -11    1    4    4    0    0 -0.35604682079E+02 -0.42124065085E+02 -0.91864752855E+01  0.55915307148E+02  0.00000000000E+00 0. -1.
         11    1    4    4    0    0  0.27455251194E+02  0.10745931374E+02 -0.68423261925E+02  0.74505091314E+02  0.00000000000E+00 0.  1.
</event>
<event>
 8    1  0.6627806E-009  0.1172915E+03  0.7561462E-02  0.1247633E+00
         -2   -1    0    0    0  501 -0.00000000000E+00  0.00000000000E+00  0.29478417169E+02  0.29478417169E+02  0.00000000000E+00 0.  1.
          2   -1    0    0  501    0  0.00000000000E+00 -0.00000000000E+00 -0.62652053630E+03  0.62652053630E+03  0.00000000000E+00 0. -1.
         25    2    1    2    0    0  0.32858499244E+02  0.73797433136E+02 -0.28725445630E+03  0.32355448042E+03  0.12508651816E+03 0.  0.
         23    2    1    2    0    0 -0.32858499244E+02 -0.73797433136E+02 -0.30978766284E+03  0.33244447305E+03  0.89583422056E+02 0.  0.
          5    1    3    3  502    0  0.33505544963E+02  0.91540381260E+02 -0.11708134102E+03  0.15240661324E+03  0.41800000000E+01 0. -1.
         -5    1    3    3    0  502 -0.64704571896E+00 -0.17742948124E+02 -0.17017311528E+03  0.17114786718E+03  0.41800000000E+01 0. -1.
        -11    1    4    4    0    0 -0.42920817591E+02  0.13632348723E+01 -0.14123893905E+03  0.14762280615E+03  0.00000000000E+00 0. -1.
         11    1    4    4    0    0  0.10062318347E+02 -0.75160668009E+02 -0.16854872379E+03  0.18482166690E+03  0.00000000000E+00 0.  1.
</event>
<event>
 8    1  0.6627806E-009  0.9364701E+02  0.7561462E-02  0.1294253E+00
         -2   -1    0    0    0  501 -0.00000000000E+00  0.00000000000E+00  0.14706643819E+02  0.14706643819E+02  0.00000000000E+00 0. -1.
          2   -1    0    0  501    0  0.00000000000E+00 -0.00000000000E+00 -0.97550363562E+03  0.97550363562E+03  0.00000000000E+00 0.  1.
         25    2    1    2    0    0  0.19444485183E+02  0.21915696798E+02 -0.73096852389E+03  0.74217279596E+03  0.12508833028E+03 0.  0.
         23    2    1    2    0    0 -0.19444485183E+02 -0.21915696798E+02 -0.22982846791E+03  0.24803748348E+03  0.88561180998E+02 0.  0.
          5    1    3    3  502    0  0.64715331896E+02 -0.13788712905E+02 -0.48453188920E+03  0.48904685546E+03  0.41800000000E+01 0. -1.
         -5    1    3    3    0  502 -0.45270846712E+02  0.35704409703E+02 -0.24643663469E+03  0.25312594050E+03  0.41800000000E+01 0. -1.
        -11    1    4    4    0    0 -0.24365912419E+02  0.13210826739E+02 -0.17527367486E+02  0.32793783590E+02  0.00000000000E+00 0. -1.
         11    1    4    4    0    0  0.49214272353E+01 -0.35126523537E+02 -0.21230110042E+03  0.21524369989E+03  0.00000000000E+00 0.  1.
</event>
<event>
 8    1  0.6627806E-009  0.8392482E+02  0.7561462E-02  0.1318268E+00
          1   -1    0    0  501    0  0.00000000000E+00  0.00000000000E+00  0.25833784714E+03  0.25833784714E+03  0.00000000000E+00 0. -1.
         -1   -1    0    0    0  501 -0.00000000000E+00 -0.00000000000E+00 -0.69748583482E+02  0.69748583482E+02  0.00000000000E+00 0.  1.
         25    2    1    2    0    0  0.76660249376E+02 -0.22353560919E+02  0.10195400083E+03  0.18005102429E+03  0.12508907843E+03 0.  0.
         23    2    1    2    0    0 -0.76660249376E+02  0.22353560919E+02  0.86635262830E+02  0.14803540633E+03  0.89623307473E+02 0.  0.
          5    1    3    3  502    0  0.54944673707E+02 -0.11385202030E+02 -0.16829051081E+02  0.58730140084E+02  0.41800000000E+01 0. -1.
         -5    1    3    3    0  502  0.21715575669E+02 -0.10968358890E+02  0.11878305191E+03  0.12132088421E+03  0.41800000000E+01 0. -1.
        -11    1    4    4    0    0 -0.38066065899E+02  0.28845890543E+02 -0.53606420063E+01  0.48060870331E+02  0.00000000000E+00 0.  1.
         11    1    4    4    0    0 -0.38594183477E+02 -0.64923296240E+01  0.91995904836E+02  0.99974536002E+02  0.00000000000E+00 0. -1.
</event>
<event>
 8    1  0.6627806E-009  0.7122391E+02  0.7561462E-02  0.1355980E+00
         -2   -1    0    0    0  501 -0.00000000000E+00  0.00000000000E+00  0.25151306120E+02  0.25151306120E+02  0.00000000000E+00 0.  1.
          2   -1    0    0  501    0  0.00000000000E+00 -0.00000000000E+00 -0.60789541821E+03  0.60789541821E+03  0.00000000000E+00 0. -1.
         25    2    1    2    0    0 -0.42632678768E+02  0.17503892249E+02 -0.42689549694E+03  0.44722606849E+03  0.12508980567E+03 0.  0.
         23    2    1    2    0    0  0.42632678768E+02 -0.17503892249E+02 -0.15584861515E+03  0.18582065585E+03  0.90092140345E+02 0.  0.
          5    1    3    3  502    0 -0.81825959696E+01 -0.19191832717E+02 -0.37208870253E+03  0.37269660083E+03  0.41800000000E+01 0.  1.
         -5    1    3    3    0  502 -0.34450082798E+02  0.36695724966E+02 -0.54806794415E+02  0.74529467659E+02  0.41800000000E+01 0.  1.
        -11    1    4    4    0    0  0.32805990282E+02  0.15460066194E+02 -0.12433958090E+02  0.38338622287E+02  0.00000000000E+00 0.  1.
         11    1    4    4    0    0  0.98266884860E+01 -0.32963958443E+02 -0.14341465706E+03  0.14748203356E+03  0.00000000000E+00 0. -1.
</event>
<event>
 8    1  0.6627806E-009  0.8604270E+02  0.7561462E-02  0.1312728E+00
         -1   -1    0    0    0  501 -0.00000000000E+00  0.00000000000E+00  0.26060489851E+03  0.26060489851E+03  0.00000000000E+00 0.  1.
          1   -1    0    0  501    0  0.00000000000E+00 -0.00000000000E+00 -0.58618911446E+02  0.58618911446E+02  0.00000000000E+00 0. -1.
         25    2    1    2    0    0 -0.10588260527E+02  0.19580258014E+02  0.51786144805E+02  0.13720931637E+03  0.12509633863E+03 0.  0.
         23    2    1    2    0    0  0.10588260527E+02 -0.19580258014E+02  0.15019984226E+03  0.18201449359E+03  0.10036824944E+03 0.  0.
          5    1    3    3  502    0 -0.38128712985E+02  0.17190229479E+01 -0.30166211285E+02  0.48828541828E+02  0.41800000000E+01 0. -1.
         -5    1    3    3    0  502  0.27540452458E+02  0.17861235066E+02  0.81952356090E+02  0.88380774541E+02  0.41800000000E+01 0. -1.
        -11    1    4    4    0    0 -0.40678067518E+01  0.39509910856E+02  0.78330172760E+02  0.87824803286E+02  0.00000000000E+00 0.  1.
         11    1    4    4    0    0  0.14656067279E+02 -0.59090168871E+02  0.71869669499E+02  0.94189690302E+02  0.00000000000E+00 0. -1.
</event>
<event>
 8    1  0.6627806E-009  0.2412004E+03  0.7561462E-02  0.1118996E+00
          2   -1    0    0  501    0  0.00000000000E+00  0.00000000000E+00  0.22526245967E+03  0.22526245967E+03  0.00000000000E+00 0. -1.
         -2   -1    0    0    0  501 -0.00000000000E+00 -0.00000000000E+00 -0.28940619653E+03  0.28940619653E+03  0.00000000000E+00 0.  1.
         25    2    1    2    0    0  0.22851260649E+02  0.22913958746E+03 -0.48806641615E+02  0.26656466606E+03  0.12508997670E+03 0.  0.
         23    2    1    2    0    0 -0.22851260649E+02 -0.22913958746E+03 -0.15337095246E+02  0.24810399013E+03  0.91067188237E+02 0.  0.
          5    1    3    3  502    0  0.16186480256E+02 -0.86064822480E+00  0.20268086613E+02  0.26287080351E+02  0.41800000000E+01 0.  1.
         -5    1    3    3    0  502  0.66647803936E+01  0.23000023569E+03 -0.69074728229E+02  0.24027758571E+03  0.41800000000E+01 0.  1.
        -11    1    4    4    0    0  0.13756965968E+02 -0.11088052745E+03  0.30949718985E+02  0.11593804632E+03  0.00000000000E+00 0. -1.
         11    1    4    4    0    0 -0.36608226617E+02 -0.11825906002E+03 -0.46286814231E+02  0.13216594381E+03  0.00000000000E+00 0.  1.
</event>
<event>
 8    1  0.6627806E-009  0.1175676E+03  0.7561462E-02  0.1247165E+00
         -2   -1    0    0    0  501 -0.00000000000E+00  0.00000000000E+00  0.10077239845E+03  0.10077239845E+03  0.00000000000E+00 0.  1.
          2   -1    0    0  501    0  0.00000000000E+00 -0.00000000000E+00 -0.15435320925E+03  0.15435320925E+03  0.00000000000E+00 0. -1.
         25    2    1    2    0    0 -0.40591889190E+02 -0.57144889821E+01 -0.11161039655E+02  0.13212339597E+03  0.12510661895E+03 0.  0.
         23    2    1    2    0    0  0.40591889190E+02  0.57144889821E+01 -0.42419771150E+02  0.12300221173E+03  0.10793400879E+03 0.  0.
          5    1    3    3  502    0 -0.66025383956E+02  0.35869100307E+02  0.14862123425E+02  0.76709183257E+02  0.41800000000E+01 0.  1.
         -5    1    3    3    0  502  0.25433494766E+02 -0.41583589289E+02 -0.26023163080E+02  0.55414212715E+02  0.41800000000E+01 0.  1.
        -11    1    4    4    0    0  0.29865454372E+02  0.53883672171E+02 -0.64666504691E+01  0.61945242430E+02  0.00000000000E+00 0.  1.
         11    1    4    4    0    0  0.10726434818E+02 -0.48169183188E+02 -0.35953120681E+02  0.61056969296E+02  0.00000000000E+00 0. -1.
</event>
<event>
 8    1  0.6627806E-009  0.1069167E+03  0.7561462E-02  0.1266389E+00
          2   -1    0    0  501    0  0.00000000000E+00  0.00000000000E+00  0.60397572297E+02  0.60397572297E+02  0.00000000000E+00 0. -1.
         -2   -1    0    0    0  501 -0.00000000000E+00 -0.00000000000E+00 -0.31266213419E+03  0.31266213419E+03  0.00000000000E+00 0.  1.
         25    2    1    2    0    0  0.31855983882E+02  0.57349816116E+02 -0.70431106622E+02  0.15783384537E+03  0.12508867593E+03 0.  0.
         23    2    1    2    0    0 -0.31855983882E+02 -0.57349816116E+02 -0.18183345527E+03  0.21522586112E+03  0.94630654235E+02 0.  0.
          5    1    3    3  502    0  0.49375312636E+02 -0.25325182879E+01 -0.80434235630E+02  0.94506474954E+02  0.41800000000E+01 0. -1.
         -5    1    3    3    0  502 -0.17519328755E+02  0.59882334404E+02  0.10003129008E+02  0.63327370415E+02  0.41800000000E+01 0. -1.
        -11    1    4    4    0    0 -0.49650434471E+02 -0.65434727242E+02 -0.92180079338E+02  0.12346674127E+03  0.00000000000E+00 0. -1.
         11    1    4    4    0    0  0.17794450589E+02  0.80849111257E+01 -0.89653375937E+02  0.91759119855E+02  0.00000000000E+00 0.  1.
</event>
<event>
 8    1  0.6627806E-009  0.1316399E+03  0.7561462E-02  0.1225043E+00
         -2   -1    0    0    0  501 -0.00000000000E+00  0.00000000000E+00  0.26421763206E+02  0.26421763206E+02  0.00000000000E+00 0.  1.
          2   -1    0    0  501    0  0.00000000000E+00 -0.00000000000E+00 -0.96262056836E+03  0.96262056836E+03  0.00000000000E+00 0. -1.
         25    2    1    2    0    0 -0.51418790888E+02 -0.52647428109E+02 -0.77548390329E+03  0.78894812858E+03  0.12509285187E+03 0.  0.
         23    2    1    2    0    0  0.51418790888E+02  0.52647428109E+02 -0.16071490186E+03  0.20009420298E+03  0.93769753350E+02 0.  0.
          5    1    3    3  502    0  0.28331972878E+02  0.21300310347E+02 -0.16209233596E+03  0.16597530444E+03  0.41800000000E+01 0.  1.
         -5    1    3    3    0  502 -0.79750763766E+02 -0.73947738455E+02 -0.61339156734E+03  0.62297282414E+03  0.41800000000E+01 0.  1.
        -11    1    4    4    0    0 -0.24130938904E+02  0.32646909913E+02 -0.46895595740E+02  0.62026767118E+02  0.00000000000E+00 0.  1.
         11    1    4    4    0    0  0.75549729793E+02  0.20000518196E+02 -0.11381930612E+03  0.13806743586E+03  0.00000000000E+00 0. -1.
</event>
<event>
 8    1  0.6627806E-009  0.1321897E+03  0.7561462E-02  0.1224242E+00
          2   -1    0    0  501    0  0.00000000000E+00  0.00000000000E+00  0.13643913102E+04  0.13643913102E+04  0.00000000000E+00 0. -1.
         -2   -1    0    0    0  501 -0.00000000000E+00 -0.00000000000E+00 -0.16840027203E+02  0.16840027203E+02  0.00000000000E+00 0.  1.
         25    2    1    2    0    0 -0.62582199938E+01 -0.81174010950E+02  0.10348408451E+04  0.10455485604E+04  0.12509129474E+03 0.  0.
         23    2    1    2    0    0  0.62582199938E+01  0.81174010950E+02  0.31271043793E+03  0.33568277707E+03  0.90921523645E+02 0.  0.
          5    1    3    3  502    0 -0.61873343454E+02 -0.24153493067E+02  0.57535606552E+03  0.57919234835E+03  0.41800000000E+01 0.  1.
         -5    1    3    3    0  502  0.55615123460E+02 -0.57020517884E+02  0.45948477959E+03  0.46635621202E+03  0.41800000000E+01 0.  1.
        -11    1    4    4    0    0  0.21847458011E+02  0.94846795550E+02  0.21818743531E+03  0.23891208210E+03  0.00000000000E+00 0.  1.
         11    1    4    4    0    0 -0.15589238017E+02 -0.13672784600E+02  0.94523002620E+02  0.96770694970E+02  0.00000000000E+00 0. -1.
</event>
<event>
 8    1  0.6627806E-009  0.1467927E+03  0.7561462E-02  0.1204470E+00
          2   -1    0    0  501    0  0.00000000000E+00  0.00000000000E+00  0.24999245903E+04  0.24999245903E+04  0.00000000000E+00 0.  1.
         -2   -1    0    0    0  501 -0.00000000000E+00 -0.00000000000E+00 -0.17629178300E+02  0.17629178300E+02  0.00000000000E+00 0. -1.
         25    2    1    2    0    0  0.86839910669E+02 -0.83208230425E+02  0.20755377716E+04  0.20827796287E+04  0.12509660563E+03 0.  0.
         23    2    1    2    0    0 -0.86839910669E+02  0.83208230425E+02  0.40675764040E+03  0.43477413989E+03  0.95456770308E+02 0.  0.
          5    1    3    3  502    0  0.93097958381E+02 -0.43720995210E+02  0.18961968709E+04  0.18989888891E+04  0.41800000000E+01 0. -1.
         -5    1    3    3    0  502 -0.62580477114E+01 -0.39487235215E+02  0.17934090065E+03  0.18379073957E+03  0.41800000000E+01 0. -1.
        -11    1    4    4    0    0 -0.97828900971E+02  0.39704278861E+02  0.32207425613E+03  0.33893767876E+03  0.00000000000E+00 0. -1.
         11    1    4    4    0    0  0.10988990301E+02  0.43503951564E+02  0.84683384273E+02  0.95836461127E+02  0.00000000000E+00 0.  1.
</event>
<event>
 8    1  0.6627806E-009  0.1539007E+03  0.7561462E-02  0.1195760E+00
          1   -1    0    0  501    0  0.00000000000E+00  0.00000000000E+00  0.42507144394E+02  0.42507144394E+02  0.00000000000E+00 0. -1.
         -1   -1    0    0    0  501 -0.00000000000E+00 -0.00000000000E+00 -0.61641258984E+03  0.61641258984E+03  0.00000000000E+00 0.  1.
         25    2    1    2    0    0  0.10427243604E+03 -0.49943339048E+02 -0.36516849957E+03  0.40294478985E+03  0.12509753217E+03 0.  0.
         23    2    1    2    0    0 -0.10427243604E+03  0.49943339048E+02 -0.20873694587E+03  0.25597494438E+03  0.92655175494E+02 0.  0.
          5    1    3    3  502    0  0.11944667434E+03 -0.13247368357E+02 -0.32398945776E+03  0.34558593999E+03  0.41800000000E+01 0.  1.
         -5    1    3    3    0  502 -0.15174238294E+02 -0.36695970691E+02 -0.41179041811E+02  0.57358849860E+02  0.41800000000E+01 0.  1.
        -11    1    4    4    0    0 -0.10153124002E+03  0.40149595516E+01 -0.13325730697E+03  0.16757751180E+03  0.00000000000E+00 0.  1.
         11    1    4    4    0    0 -0.27411960280E+01  0.45928379497E+02 -0.75479638900E+02  0.88397432583E+02  0.00000000000E+00 0. -1.
</event>
<event>
 8    1  0.6627806E-009  0.8580231E+02  0.7561462E-02  0.1313348E+00
         -1   -1    0    0    0  501 -0.00000000000E+00  0.00000000000E+00  0.14572209367E+03  0.14572209367E+03  0.00000000000E+00 0.  1.
          1   -1    0    0  501    0  0.00000000000E+00 -0.00000000000E+00 -0.12242022559E+03  0.12242022559E+03  0.00000000000E+00 0. -1.
         25    2    1    2    0    0  0.73676649035E+02 -0.17999278200E+02 -0.10479959703E+02  0.14666114931E+03  0.12508972993E+03 0.  0.
         23    2    1    2    0    0 -0.73676649035E+02  0.17999278200E+02  0.33781827789E+02  0.12148116994E+03  0.88680551044E+02 0.  0.
          5    1    3    3  502    0  0.58124277746E+02  0.89133583049E+01  0.50800925791E+02  0.77820858907E+02  0.41800000000E+01 0. -1.
         -5    1    3    3    0  502  0.15552371289E+02 -0.26912636505E+02 -0.61280885494E+02  0.68840290406E+02  0.41800000000E+01 0. -1.
        -11    1    4    4    0    0 -0.31345055810E+02 -0.70138510080E+01  0.58281231144E+02  0.66546288652E+02  0.00000000000E+00 0.  1.
         11    1    4    4    0    0 -0.42331593225E+02  0.25013129208E+02 -0.24499403355E+02  0.54934881292E+02  0.00000000000E+00 0. -1.
</event>
<event>
 8    1  0.6627806E-009  0.1120849E+03  0.7561462E-02  0.1256757E+00
         -1   -1    0    0    0  501 -0.00000000000E+00  0.00000000000E+00  0.20174485651E+03  0.20174485651E+03  0.00000000000E+00 0.  1.
          1   -1    0    0  501    0  0.00000000000E+00 -0.00000000000E+00 -0.10203297474E+03  0.10203297474E+03  0.00000000000E+00 0. -1.
         25    2    1    2    0    0 -0.28877617104E+02  0.63374290279E+02  0.12222541839E+03  0.18824725826E+03  0.12509100648E+03 0.  0.
         23    2    1    2    0    0  0.28877617104E+02 -0.63374290279E+02 -0.22513536617E+02  0.11553057299E+03  0.89388122958E+02 0.  0.
          5    1    3    3  502    0  0.14307677626E+02  0.65851836290E+02  0.12769556345E+03  0.14444654135E+03  0.41800000000E+01 0. -1.
         -5    1    3    3    0  502 -0.43185294729E+02 -0.24775460115E+01 -0.54701450576E+01  0.43800716913E+02  0.41800000000E+01 0. -1.
        -11    1    4    4    0    0  0.58912634413E+02 -0.23860303706E+02 -0.99859051183E+01  0.64340740495E+02  0.00000000000E+00 0. -1.
         11    1    4    4    0    0 -0.30035017310E+02 -0.39513986573E+02 -0.12527631499E+02  0.51189832493E+02  0.00000000000E+00 0.  1.
</event>
<event>
 8    1  0.6627806E-009  0.1211651E+03  0.7561462E-02  0.1241187E+00
          2   -1    0    0  501    0  0.00000000000E+00  0.00000000000E+00  0.13209046761E+03  0.13209046761E+03  0.00000000000E+00 0. -1.
         -2   -1    0    0    0  501 -0.00000000000E+00 -0.00000000000E+00 -0.37722176635E+03  0.37722176635E+03  0.00000000000E+00 0.  1.
         25    2    1    2    0    0 -0.26816290909E+02  0.76901804339E+02  0.74800952011E+02  0.16696819139E+03  0.12510073360E+03 0.  0.
         23    2    1    2    0    0  0.26816290909E+02 -0.76901804339E+02 -0.31993225075E+03  0.34234404257E+03  0.90607932555E+02 0.  0.
          5    1    3    3  502    0  0.35339376055E+02  0.15171741426E+02 -0.14958718156E+02  0.41476365399E+02  0.41800000000E+01 0.  1.
         -5    1    3    3    0  502 -0.62155666964E+02  0.61730062913E+02  0.89759670167E+02  0.12549182599E+03  0.41800000000E+01 0.  1.
        -11    1    4    4    0    0  0.56774526786E+02 -0.51972094178E+02 -0.15750353038E+03  0.17530489881E+03  0.00000000000E+00 0. -1.
         11    1    4    4    0    0 -0.29958235876E+02 -0.24929710162E+02 -0.16242872037E+03  0.16703914375E+03  0.00000000000E+00 0.  1.
</event>
<event>
 8    1  0.6627806E-009  0.1162843E+03  0.7561462E-02  0.1249356E+00
         -3   -1    0    0    0  501 -0.00000000000E+00  0.00000000000E+00  0.47616410775E+02  0.47616410775E+02  0.00000000000E+00 0.  1.
          3   -1    0    0  501    0  0.00000000000E+00 -0.00000000000E+00 -0.30697819013E+03  0.30697819013E+03  0.00000000000E+00 0. -1.
         25    2    1    2    0    0 -0.45984383711E+02  0.26292257598E+02 -0.16243625713E+03  0.21174958556E+03  0.12508598243E+03 0.  0.
         23    2    1    2    0    0  0.45984383711E+02 -0.26292257598E+02 -0.96925522233E+02  0.14284501535E+03  0.90577564520E+02 0.  0.
          5    1    3    3  502    0 -0.19899949797E+02 -0.50599294354E+02 -0.66021979521E+02  0.85631015239E+02  0.41800000000E+01 0. -1.
         -5    1    3    3    0  502 -0.26084433914E+02  0.76891551952E+02 -0.96414277604E+02  0.12611857032E+03  0.41800000000E+01 0. -1.
        -11    1    4    4    0    0 -0.22683471564E+02  0.13199789076E+01 -0.24830167578E+01  0.22857112651E+02  0.00000000000E+00 0.  1.
         11    1    4    4    0    0  0.68667855275E+02 -0.27612236506E+02 -0.94442505475E+02  0.11998790270E+03  0.00000000000E+00 0. -1.
</event>
<event>
 8    1  0.6627806E-009  0.1095070E+03  0.7561462E-02  0.1261486E+00
         -1   -1    0    0    0  501 -0.00000000000E+00  0.00000000000E+00  0.28600654257E+02  0.28600654257E+02  0.00000000000E+00 0.  1.
          1   -1    0    0  501    0  0.00000000000E+00 -0.00000000000E+00 -0.50015817880E+03  0.50015817880E+03  0.00000000000E+00 0. -1.
         25    2    1    2    0    0  0.22720431552E+02  0.56683314213E+01 -0.29754373005E+03  0.32361801597E+03  0.12509197007E+03 0.  0.
         23    2    1    2    0    0 -0.22720431552E+02 -0.56683314213E+01 -0.17401379450E+03  0.20514081709E+03  0.10608301547E+03 0.  0.
          5    1    3    3  502    0  0.55285015300E+02 -0.33114704137E+02 -0.95521495338E+02  0.11530327410E+03  0.41800000000E+01 0.  1.
         -5    1    3    3    0  502 -0.32564583748E+02  0.38783035558E+02 -0.20202223471E+03  0.20831474187E+03  0.41800000000E+01 0.  1.
        -11    1    4    4    0    0 -0.60637909621E+02  0.11959589967E+02 -0.71997440390E+02  0.94887403264E+02  0.00000000000E+00 0.  1.
         11    1    4    4    0    0  0.37917478069E+02 -0.17627921388E+02 -0.10201635411E+03  0.11025341383E+03  0.00000000000E+00 0. -1.
</event>
<event>
 8    1  0.6627806E-009  0.1511307E+03  0.7561462E-02  0.1199090E+00
          2   -1    0    0  501    0  0.00000000000E+00  0.00000000000E+00  0.71799562844E+03  0.71799562844E+03  0.00000000000E+00 0. -1.
         -2   -1    0    0    0  501 -0.00000000000E+00 -0.00000000000E+00 -0.39074278344E+02  0.39074278344E+02  0.00000000000E+00 0.  1.
         25    2    1    2    0    0  0.11783385943E+03 -0.24430541435E+02  0.46978478144E+03  0.50082674915E+03  0.12509205414E+03 0.  0.
         23    2    1    2    0    0 -0.11783385943E+03  0.24430541435E+02  0.20913656866E+03  0.25624315763E+03  0.86259965800E+02 0.  0.
          5    1    3    3  502    0  0.74225920137E+02  0.45045685626E+02  0.29795258207E+03  0.31037366927E+03  0.41800000000E+01 0. -1.
         -5    1    3    3    0  502  0.43607939297E+02 -0.69476227061E+02  0.17183219937E+03  0.19045307988E+03  0.41800000000E+01 0. -1.
        -11    1    4    4    0    0 -0.64796520629E+02  0.42129956721E+02  0.17350831642E+03  0.18994382908E+03  0.00000000000E+00 0.  1.
         11    1    4    4    0    0 -0.53037338804E+02 -0.17699415285E+02  0.35628252237E+02  0.66299328551E+02  0.00000000000E+00 0. -1.
</event>
<event>
 8    1  0.6627806E-009  0.1428358E+03  0.7561462E-02  0.1209563E+00
          3   -1    0    0  501    0  0.00000000000E+00  0.00000000000E+00  0.96548763601E+02  0.96548763601E+02  0.00000000000E+00 0.  1.
         -3   -1    0    0    0  501 -0.00000000000E+00 -0.00000000000E+00 -0.26616669696E+03  0.26616669696E+03  0.00000000000E+00 0. -1.
         25    2    1    2    0    0 -0.10118350779E+01 -0.11791164316E+03 -0.10556332067E+03  0.20173473502E+03  0.12509639980E+03 0.  0.
         23    2    1    2    0    0  0.10118350779E+01  0.11791164316E+03 -0.64054612692E+02  0.16098072554E+03  0.88924806357E+02 0.  0.
          5    1    3    3  502    0 -0.38155664178E+02 -0.12181299128E+03 -0.55800002719E+02  0.13937493410E+03  0.41800000000E+01 0.  1.
         -5    1    3    3    0  502  0.37143829100E+02  0.39013481210E+01 -0.49763317950E+02  0.62359800920E+02  0.41800000000E+01 0.  1.
        -11    1    4    4    0    0 -0.11489183104E+02  0.64724095681E+02 -0.80492872033E+02  0.10392455118E+03  0.00000000000E+00 0. -1.
         11    1    4    4    0    0  0.12501018182E+02  0.53187547477E+02  0.16438259342E+02  0.57056174358E+02  0.00000000000E+00 0.  1.
</event>
<event>
 8    1  0.6627806E-009  0.1193087E+03  0.7561462E-02  0.1244242E+00
         -2   -1    0    0    0  501 -0.00000000000E+00  0.00000000000E+00  0.10834923437E+02  0.10834923437E+02  0.00000000000E+00 0.  1.
          2   -1    0    0  501    0  0.00000000000E+00 -0.00000000000E+00 -0.18877213971E+04  0.18877213971E+04  0.00000000000E+00 0. -1.
         25    2    1    2    0    0 -0.51580471474E+02  0.32900986424E+02 -0.14951400987E+04  0.15016106902E+04  0.12509088799E+03 0.  0.
         23    2    1    2    0    0  0.51580471474E+02 -0.32900986424E+02 -0.38174637505E+03  0.39694563041E+03  0.89958427606E+02 0.  0.
          5    1    3    3  502    0 -0.91112489717E+02  0.12745019310E+02 -0.86259462990E+03  0.86749691022E+03  0.41800000000E+01 0.  1.
         -5    1    3    3    0  502  0.39532018243E+02  0.20155967114E+02 -0.63254546876E+03  0.63411377995E+03  0.41800000000E+01 0.  1.
        -11    1    4    4    0    0  0.19621935551E+02  0.27402857783E+02 -0.68399850120E+02  0.76252714482E+02  0.00000000000E+00 0.  1.
         11    1    4    4    0    0  0.31958535923E+02 -0.60303844208E+02 -0.31334652493E+03  0.32069291593E+03  0.00000000000E+00 0. -1.
</event>
<event>
 8    1  0.6627806E-009  0.7806099E+02  0.7561462E-02  0.1334646E+00
         -1   -1    0    0    0  501 -0.00000000000E+00  0.00000000000E+00  0.18788710904E+03  0.18788710904E+03  0.00000000000E+00 0.  1.
          1   -1    0    0  501    0  0.00000000000E+00 -0.00000000000E+00 -0.61397920768E+02  0.61397920768E+02  0.00000000000E+00 0. -1.
         25    2    1    2    0    0 -0.14110680407E+01  0.19140841409E+01  0.72668244661E+02  0.14468432553E+03  0.12508887017E+03 0.  0.
         23    2    1    2    0    0  0.14110680407E+01 -0.19140841409E+01  0.53820943608E+02  0.10460070428E+03  0.89660239422E+02 0.  0.
          5    1    3    3  502    0  0.34586587930E+02  0.27247358532E+02  0.87503373216E+02  0.98045720640E+02  0.41800000000E+01 0.  1.
         -5    1    3    3    0  502 -0.35997655970E+02 -0.25333274391E+02 -0.14835128555E+02  0.46638604889E+02  0.41800000000E+01 0.  1.
        -11    1    4    4    0    0 -0.20100694413E+02 -0.27618904871E+02  0.61375850025E+02  0.70241275532E+02  0.00000000000E+00 0.  1.
         11    1    4    4    0    0  0.21511762454E+02  0.25704820730E+02 -0.75549064166E+01  0.34359428744E+02  0.00000000000E+00 0. -1.
</event>
<event>
 8    1  0.6627806E-009  0.1053403E+03  0.7561462E-02  0.1269451E+00
          1   -1    0    0  501    0  0.00000000000E+00  0.00000000000E+00  0.94650587182E+03  0.94650587182E+03  0.00000000000E+00 0. -1.
         -1   -1    0    0    0  501 -0.00000000000E+00 -0.00000000000E+00 -0.19859747857E+02  0.19859747857E+02  0.00000000000E+00 0.  1.
         25    2    1    2    0    0 -0.55137724441E+02 -0.53378130213E+02  0.62328030549E+03  0.64032319955E+03  0.12508424052E+03 0.  0.
         23    2    1    2    0    0  0.55137724441E+02  0.53378130213E+02  0.30336581847E+03  0.32604242013E+03  0.91561162419E+02 0.  0.
          5    1    3    3  502    0 -0.38045720794E+02  0.16808267593E+02  0.45792550935E+03  0.45982957630E+03  0.41800000000E+01 0.  1.
         -5    1    3    3    0  502 -0.17092003647E+02 -0.70186397806E+02  0.16535479614E+03  0.18049362325E+03  0.41800000000E+01 0.  1.
        -11    1    4    4    0    0  0.67220818877E+02  0.50558495484E+02  0.30207614966E+03  0.31356785573E+03  0.00000000000E+00 0. -1.
         11    1    4    4    0    0 -0.12083094436E+02  0.28196347290E+01  0.12896688118E+01  0.12474564393E+02  0.00000000000E+00 0.  1.
</event>
<event>
 8    1  0.6627806E-009  0.1446703E+03  0.7561462E-02  0.1207179E+00
          2   -1    0    0  501    0  0.00000000000E+00  0.00000000000E+00  0.49073693096E+03  0.49073693096E+03  0.00000000000E+00 0.  1.
         -2   -1    0    0    0  501 -0.00000000000E+00 -0.00000000000E+00 -0.57402529560E+02  0.57402529560E+02  0.00000000000E+00 0. -1.
         25    2    1    2    0    0  0.58946799981E+02 -0.11086178538E+03  0.18377505093E+03  0.25531441846E+03  0.12508845767E+03 0.  0.
         23    2    1    2    0    0 -0.58946799981E+02  0.11086178538E+03  0.24955935047E+03  0.29282504206E+03  0.87758618751E+02 0.  0.
          5    1    3    3  502    0  0.77464572293E+02 -0.98485977467E+02  0.79153321611E+02  0.14826654525E+03  0.41800000000E+01 0.  1.
         -5    1    3    3    0  502 -0.18517772312E+02 -0.12375807915E+02  0.10462172932E+03  0.10704787321E+03  0.41800000000E+01 0.  1.
        -11    1    4    4    0    0 -0.15606972275E+02  0.93217630598E+02  0.10691837509E+03  0.14270474123E+03  0.00000000000E+00 0. -1.
         11    1    4    4    0    0 -0.43339827707E+02  0.17644154784E+02  0.14264097539E+03  0.15012030084E+03  0.00000000000E+00 0.  1.
</event>
<event>
 8    1  0.6627806E-009  0.9306861E+02  0.7561462E-02  0.1295586E+00
         -1   -1    0    0    0  501 -0.00000000000E+00  0.00000000000E+00  0.11120978056E+03  0.11120978056E+03  0.00000000000E+00 0.  1.
          1   -1    0    0  501    0  0.00000000000E+00 -0.00000000000E+00 -0.15531074120E+03  0.15531074120E+03  0.00000000000E+00 0. -1.
         25    2    1    2    0    0 -0.62919679395E+01  0.65620219181E+02 -0.58752418538E+02  0.15311904330E+03  0.12509193703E+03 0.  0.
         23    2    1    2    0    0  0.62919679395E+01 -0.65620219181E+02  0.14651457903E+02  0.11340147846E+03  0.91102294551E+02 0.  0.
          5    1    3    3  502    0  0.36972765749E+02  0.63140655094E+02 -0.76648010599E+02  0.10604771408E+03  0.41800000000E+01 0.  1.
         -5    1    3    3    0  502 -0.43264733688E+02  0.24795640872E+01  0.17895592061E+02  0.47071329218E+02  0.41800000000E+01 0.  1.
        -11    1    4    4    0    0  0.14286350523E+02 -0.40105076747E+02 -0.36242680100E+02  0.55911079877E+02  0.00000000000E+00 0. -1.
         11    1    4    4    0    0 -0.79943825830E+01 -0.25515142433E+02  0.50894138002E+02  0.57490398583E+02  0.00000000000E+00 0.  1.
</event>
<event>
 8    1  0.6627806E-009  0.1162710E+03  0.7561462E-02  0.1249379E+00
          1   -1    0    0  501    0  0.00000000000E+00  0.00000000000E+00  0.16872694682E+03  0.16872694682E+03  0.00000000000E+00 0. -1.
         -1   -1    0    0    0  501 -0.00000000000E+00 -0.00000000000E+00 -0.12688172786E+03  0.12688172786E+03  0.00000000000E+00 0.  1.
         25    2    1    2    0    0 -0.81175458720E+02  0.42347714982E+02  0.31252160149E+02  0.15812660676E+03  0.12507814432E+03 0.  0.
         23    2    1    2    0    0  0.81175458720E+02 -0.42347714982E+02  0.10593058812E+02  0.13748206792E+03  0.10201138193E+03 0.  0.
          5    1    3    3  502    0 -0.45053254020E+02 -0.88507319916E+01  0.70379917622E+02  0.84136415178E+02  0.41800000000E+01 0.  1.
         -5    1    3    3    0  502 -0.36122204701E+02  0.51198446974E+02 -0.39127757473E+02  0.73990191579E+02  0.41800000000E+01 0.  1.
        -11    1    4    4    0    0  0.70854725509E+02 -0.66625725095E+02  0.33169420037E+02  0.10275986472E+03  0.00000000000E+00 0. -1.
         11    1    4    4    0    0  0.10320733211E+02  0.24278010113E+02 -0.22576361225E+02  0.34722203202E+02  0.00000000000E+00 0.  1.
</event>
<event>
 8    1  0.6627806E-009  0.1366990E+03  0.7561462E-02  0.1217841E+00
         -1   -1    0    0    0  501 -0.00000000000E+00  0.00000000000E+00  0.18439157069E+02  0.18439157069E+02  0.00000000000E+00 0.  1.
          1   -1    0    0  501    0  0.00000000000E+00 -0.00000000000E+00 -0.11129495830E+04  0.11129495830E+04  0.00000000000E+00 0. -1.
         25    2    1    2    0    0 -0.91134544624E+02  0.70079896229E+01 -0.52752440033E+03  0.54980419091E+03  0.12509211907E+03 0.  0.
         23    2    1    2    0    0  0.91134544624E+02 -0.70079896229E+01 -0.56698602559E+03  0.58158454915E+03  0.91721412194E+02 0.  0.
          5    1    3    3  502    0 -0.20813883600E+02  0.54869610756E+02 -0.12215125450E+03  0.13558131624E+03  0.41800000000E+01 0.  1.
         -5    1    3    3    0  502 -0.70320661024E+02 -0.47861621133E+02 -0.40537314582E+03  0.41422287467E+03  0.41800000000E+01 0.  1.
        -11    1    4    4    0    0  0.95945280521E+02 -0.34144175325E+02 -0.45488873793E+03  0.46614920943E+03  0.00000000000E+00 0.  1.
         11    1    4    4    0    0 -0.48107358968E+01  0.27136185702E+02 -0.11209728767E+03  0.11543533972E+03  0.00000000000E+00 0. -1.
</event>
<event>
 8    1  0.6627806E-009  0.1295319E+03  0.7561462E-02  0.1228152E+00
         -1   -1    0    0    0  501 -0.00000000000E+00  0.00000000000E+00  0.82335719503E+02  0.82335719503E+02  0.00000000000E+00 0.  1.
          1   -1    0    0  501    0  0.00000000000E+00 -0.00000000000E+00 -0.31863213018E+03  0.31863213018E+03  0.00000000000E+00 0. -1.
         25    2    1    2    0    0 -0.91694195511E+02 -0.75637355520E+02 -0.11033533609E+03  0.20481775944E+03  0.12509033996E+03 0.  0.
         23    2    1    2    0    0  0.91694195511E+02  0.75637355520E+02 -0.12596107458E+03  0.19615009024E+03  0.92085995412E+02 0.  0.
          5    1    3    3  502    0 -0.88194556717E+01 -0.21659293878E+02 -0.10283393356E+03  0.10554239954E+03  0.41800000000E+01 0. -1.
         -5    1    3    3    0  502 -0.82874739839E+02 -0.53978061642E+02 -0.75014025265E+01  0.99275359893E+02  0.41800000000E+01 0. -1.
        -11    1    4    4    0    0  0.40553874556E+02 -0.49667555114E+01 -0.36817540470E+01  0.41022441599E+02  0.00000000000E+00 0.  1.
         11    1    4    4    0    0  0.51140320954E+02  0.80604111031E+02 -0.12227932054E+03  0.15512764864E+03  0.00000000000E+00 0. -1.
</event>
<event>
 8    1  0.6627806E-009  0.2919314E+03  0.7561462E-02  0.1089345E+00
          1   -1    0    0  501    0  0.00000000000E+00  0.00000000000E+00  0.47756422526E+03  0.47756422526E+03  0.00000000000E+00 0. -1.
         -1   -1    0    0    0  501 -0.00000000000E+00 -0.00000000000E+00 -0.20026891411E+03  0.20026891411E+03  0.00000000000E+00 0.  1.
         25    2    1    2    0    0 -0.26701944028E+03  0.11008305678E+03  0.14655057186E+03  0.34719217591E+03  0.12509067120E+03 0.  0.
         23    2    1    2    0    0  0.26701944028E+03 -0.11008305678E+03  0.13074473929E+03  0.33064096346E+03  0.93870117649E+02 0.  0.
          5    1    3    3  502    0 -0.81007183260E+02  0.19534755262E+02 -0.14876977949E+02  0.84750028176E+02  0.41800000000E+01 0.  1.
         -5    1    3    3    0  502 -0.18601225702E+03  0.90548301518E+02  0.16142754981E+03  0.26244214773E+03  0.41800000000E+01 0.  1.
        -11    1    4    4    0    0  0.21303437923E+03 -0.10947586423E+03  0.13758423069E+03  0.27622098421E+03  0.00000000000E+00 0. -1.
         11    1    4    4    0    0  0.53985061050E+02 -0.60719254864E+00 -0.68394913919E+01  0.54419979253E+02  0.00000000000E+00 0.  1.
</event>
<event>
 8    1  0.6627806E-009  0.1694128E+03  0.7561462E-02  0.1178462E+00
         -1   -1    0    0    0  501 -0.00000000000E+00  0.00000000000E+00  0.47943028940E+02  0.47943028940E+02  0.00000000000E+00 0.  1.
          1   -1    0    0  501    0  0.00000000000E+00 -0.00000000000E+00 -0.65844141502E+03  0.65844141502E+03  0.00000000000E+00 0. -1.
         25    2    1    2    0    0 -0.11101479033E+03 -0.70160651888E+02 -0.42260594506E+03  0.45987893162E+03  0.12508415648E+03 0.  0.
         23    2    1    2    0    0  0.11101479033E+03  0.70160651888E+02 -0.18789244102E+03  0.24650551234E+03  0.90634416619E+02 0.  0.
          5    1    3    3  502    0 -0.13224430512E+03 -0.32785233214E+02 -0.29045805328E+03  0.32085320766E+03  0.41800000000E+01 0.  1.
         -5    1    3    3    0  502  0.21229514791E+02 -0.37375418674E+02 -0.13214789178E+03  0.13902572396E+03  0.41800000000E+01 0.  1.
        -11    1    4    4    0    0  0.11791922008E+03  0.34298122101E+02 -0.13899628266E+03  0.18547579421E+03  0.00000000000E+00 0.  1.
         11    1    4    4    0    0 -0.69044297493E+01  0.35862529787E+02 -0.48896158358E+02  0.61029718130E+02  0.00000000000E+00 0. -1.
</event>
<event>
 8    1  0.6627806E-009  0.7788592E+02  0.7561462E-02  0.1335160E+00
         -3   -1    0    0    0  501 -0.00000000000E+00  0.00000000000E+00  0.88654648517E+02  0.88654648517E+02  0.00000000000E+00 0.  1.
          3   -1    0    0  501    0  0.00000000000E+00 -0.00000000000E+00 -0.23680173660E+03  0.23680173660E+03  0.00000000000E+00 0. -1.
         25    2    1    2    0    0  0.51905332555E+02 -0.13707920892E+02 -0.16734827526E+03  0.21572403522E+03  0.12509733608E+03 0.  0.
         23    2    1    2    0    0 -0.51905332555E+02  0.13707920892E+02  0.19201187184E+02  0.10973234990E+03  0.93757305752E+02 0.  0.
          5    1    3    3  502    0 -0.49029226438E+01 -0.21401344058E+02 -0.15542196343E+03  0.15702074798E+03  0.41800000000E+01 0. -1.
         -5    1    3    3    0  502  0.56808255199E+02  0.76934231657E+01 -0.11926311830E+02  0.58703287238E+02  0.41800000000E+01 0. -1.
        -11    1    4    4    0    0 -0.31377150017E+02  0.34561808212E+02  0.49202847508E+02  0.67823036889E+02  0.00000000000E+00 0.  1.
         11    1    4    4    0    0 -0.20528182538E+02 -0.20853887319E+02 -0.30001660323E+02  0.41909313008E+02  0.00000000000E+00 0. -1.
</event>
<event>
 8    1  0.6627806E-009  0.1031765E+03  0.7561462E-02  0.1273754E+00
          2   -1    0    0  501    0  0.00000000000E+00  0.00000000000E+00  0.46969346098E+03  0.46969346098E+03  0.00000000000E+00 0. -1.
         -2   -1    0    0    0  501 -0.00000000000E+00 -0.00000000000E+00 -0.62714160343E+02  0.62714160343E+02  0.00000000000E+00 0.  1.
         25    2    1    2    0    0 -0.46012263969E+02 -0.12447103145E+02  0.40825073722E+03  0.42963724022E+03  0.12508970755E+03 0.  0.
         23    2    1    2    0    0  0.46012263969E+02  0.12447103145E+02 -0.12714365835E+01  0.10277038110E+03  0.91038870094E+02 0.  0.
          5    1    3    3  502    0 -0.44017262964E+02  0.46535199336E+02  0.12781655024E+03  0.14303002179E+03  0.41800000000E+01 0. -1.
         -5    1    3    3    0  502 -0.19950010047E+01 -0.58982302481E+02  0.28043418698E+03  0.28660721844E+03  0.41800000000E+01 0. -1.
        -11    1    4    4    0    0  0.63967304348E+02  0.77231474957E+01 -0.27978254126E+02  0.70244186498E+02  0.00000000000E+00 0.  1.
         11    1    4    4    0    0 -0.17955040379E+02  0.47239556495E+01  0.26706817543E+02  0.32526194601E+02  0.00000000000E+00 0. -1.
</event>
<event>
 8    1  0.6627806E-009  0.1069325E+03  0.7561462E-02  0.1266358E+00
         -1   -1    0    0    0  501 -0.00000000000E+00  0.00000000000E+00  0.38066763095E+02  0.38066763095E+02  0.00000000000E+00 0.  1.
          1   -1    0    0  501    0  0.00000000000E+00 -0.00000000000E+00 -0.49908777425E+03  0.49908777425E+03  0.00000000000E+00 0. -1.
         25    2    1    2    0    0  0.35559159495E+01 -0.42542541699E+02 -0.10885873870E+03  0.17123161955E+03  0.12509008813E+03 0.  0.
         23    2    1    2    0    0 -0.35559159495E+01  0.42542541699E+02 -0.35216227245E+03  0.36592291780E+03  0.89770837367E+02 0.  0.
          5    1    3    3  502    0 -0.14096302933E+02  0.33867401684E+02  0.98528580177E-01  0.36921386229E+02  0.41800000000E+01 0. -1.
         -5    1    3    3    0  502  0.17652218882E+02 -0.76409943383E+02 -0.10895726728E+03  0.13431023332E+03  0.41800000000E+01 0. -1.
        -11    1    4    4    0    0  0.34739446616E+02 -0.73563377931E+01 -0.10322803649E+03  0.10916488618E+03  0.00000000000E+00 0. -1.
         11    1    4    4    0    0 -0.38295362566E+02  0.49898879492E+02 -0.24893423596E+03  0.25675803162E+03  0.00000000000E+00 0.  1.
</event>
<event>
 8    1  0.6627806E-009  0.1131310E+03  0.7561462E-02  0.1254879E+00
         -1   -1    0    0    0  501 -0.00000000000E+00  0.00000000000E+00  0.28439249933E+03  0.28439249933E+03  0.00000000000E+00 0.  1.
          1   -1    0    0  501    0  0.00000000000E+00 -0.00000000000E+00 -0.72952295863E+02  0.72952295863E+02  0.00000000000E+00 0. -1.
         25    2    1    2    0    0  0.91816407262E+02 -0.22982114639E+01  0.10367640781E+03  0.18663043406E+03  0.12508631805E+03 0.  0.
         23    2    1    2    0    0 -0.91816407262E+02  0.22982114639E+01  0.10776379566E+03  0.17071436114E+03  0.95366781555E+02 0.  0.
          5    1    3    3  502    0  0.59360694717E+02 -0.15079789887E+02  0.12930958294E+03  0.14314165285E+03  0.41800000000E+01 0. -1.
         -5    1    3    3    0  502  0.32455712545E+02  0.12781578424E+02 -0.25633175132E+02  0.43488781211E+02  0.41800000000E+01 0. -1.
        -11    1    4    4    0    0 -0.92036341369E+02  0.33943307962E+02  0.65655434172E+02  0.11804013014E+03  0.00000000000E+00 0.  1.
         11    1    4    4    0    0  0.21993410622E+00 -0.31645096498E+02  0.42108361490E+02  0.52674230993E+02  0.00000000000E+00 0. -1.
</event>
<event>
 8    1  0.6627806E-009  0.8970034E+02  0.7561462E-02  0.1303579E+00
          4   -1    0    0  501    0  0.00000000000E+00  0.00000000000E+00  0.36073357708E+02  0.36073357708E+02  0.00000000000E+00 0. -1.
         -4   -1    0    0    0  501 -0.00000000000E+00 -0.00000000000E+00 -0.37366274070E+03  0.37366274070E+03  0.00000000000E+00 0.  1.
         25    2    1    2    0    0  0.33292399049E+02 -0.15041777141E+02 -0.21362014373E+03  0.25023032045E+03  0.12508800331E+03 0.  0.
         23    2    1    2    0    0 -0.33292399049E+02  0.15041777141E+02 -0.12396923927E+03  0.15950577796E+03  0.93483057418E+02 0.  0.
          5    1    3    3  502    0 -0.13044895668E+02  0.18744074697E+02  0.53603610051E+01  0.23826781347E+02  0.41800000000E+01 0.  1.
         -5    1    3    3    0  502  0.46337294717E+02 -0.33785851838E+02 -0.21898050473E+03  0.22640353910E+03  0.41800000000E+01 0.  1.
        -11    1    4    4    0    0  0.19291900173E+02  0.36979344137E+02 -0.38343595317E+02  0.56655808236E+02  0.00000000000E+00 0. -1.
         11    1    4    4    0    0 -0.52584299221E+02 -0.21937566996E+02 -0.85625643951E+02  0.10284996972E+03  0.00000000000E+00 0.  1.
</event>
<event>
 8    1  0.6627806E-009  0.7535724E+02  0.7561462E-02  0.1342768E+00
         -2   -1    0    0    0  501 -0.00000000000E+00  0.00000000000E+00  0.91199476638E+02  0.91199476638E+02  0.00000000000E+00 0.  1.
          2   -1    0    0  501    0  0.00000000000E+00 -0.00000000000E+00 -0.15545441571E+03  0.15545441571E+03  0.00000000000E+00 0. -1.
         25    2    1    2    0    0  0.31419602936E+02  0.38496415828E+02  0.37856420093E+00  0.13459752022E+03  0.12508870316E+03 0.  0.
         23    2    1    2    0    0 -0.31419602936E+02 -0.38496415828E+02 -0.64633503276E+02  0.11205637213E+03  0.76876363779E+02 0.  0.
          5    1    3    3  502    0  0.21330185593E+02 -0.26615627662E+02 -0.43417210342E+02  0.55370524714E+02  0.41800000000E+01 0. -1.
         -5    1    3    3    0  502  0.10089417343E+02  0.65112043490E+02  0.43795774543E+02  0.79226995510E+02  0.41800000000E+01 0. -1.
        -11    1    4    4    0    0 -0.17697967190E+02 -0.15378252983E+02 -0.78415683085E+02  0.81845757747E+02  0.00000000000E+00 0. -1.
         11    1    4    4    0    0 -0.13721635746E+02 -0.23118162845E+02  0.13782179809E+02  0.30210614379E+02  0.00000000000E+00 0.  1.
</event>
<event>
 8    1  0.6627806E-009  0.1252793E+03  0.7561462E-02  0.1234633E+00
         -2   -1    0    0    0  501 -0.00000000000E+00  0.00000000000E+00  0.51304162092E+02  0.51304162092E+02  0.00000000000E+00 0.  1.
          2   -1    0    0  501    0  0.00000000000E+00 -0.00000000000E+00 -0.45911569238E+03  0.45911569238E+03  0.00000000000E+00 0. -1.
         25    2    1    2    0    0  0.10720019882E+03  0.35556185456E+01 -0.19246191352E+03  0.25336381872E+03  0.12508841445E+03 0.  0.
         23    2    1    2    0    0 -0.10720019882E+03 -0.35556185456E+01 -0.21534961677E+03  0.25705603576E+03  0.90541830248E+02 0.  0.
          5    1    3    3  502    0  0.34009108121E+02  0.34775558630E+02 -0.42802392645E+01  0.49007670434E+02  0.41800000000E+01 0.  1.
         -5    1    3    3    0  502  0.73191090699E+02 -0.31219940084E+02 -0.18818167425E+03  0.20435614828E+03  0.41800000000E+01 0.  1.
        -11    1    4    4    0    0 -0.26626567245E+02  0.25048278262E+02 -0.15541468576E+02  0.39723136491E+02  0.00000000000E+00 0.  1.
         11    1    4    4    0    0 -0.80573631576E+02 -0.28603896808E+02 -0.19980814820E+03  0.21733289927E+03  0.00000000000E+00 0. -1.
</event>
<event>
 8    1  0.6627806E-009  0.1289179E+03  0.7561462E-02  0.1229070E+00
          4   -1    0    0  501    0  0.00000000000E+00  0.00000000000E+00  0.28965660517E+03  0.28965660517E+03  0.00000000000E+00 0. -1.
         -4   -1    0    0    0  501 -0.00000000000E+00 -0.00000000000E+00 -0.69882906045E+02  0.69882906045E+02  0.00000000000E+00 0.  1.
         25    2    1    2    0    0  0.86287957373E+02  0.27911696312E+02  0.96524644253E+02  0.18214334891E+03  0.12503806711E+03 0.  0.
         23    2    1    2    0    0 -0.86287957373E+02 -0.27911696312E+02  0.12324905487E+03  0.17739616230E+03  0.89746278442E+02 0.  0.
          5    1    3    3  502    0 -0.16344581301E+02  0.33608698141E+02 -0.46030525599E+01  0.37886018814E+02  0.41800000000E+01 0.  1.
         -5    1    3    3    0  502  0.10263253867E+03 -0.56970018295E+01  0.10112769681E+03  0.14425733010E+03  0.41800000000E+01 0.  1.
        -11    1    4    4    0    0 -0.10008564088E+03 -0.26149164639E+02  0.76603123663E+02  0.12872044468E+03  0.00000000000E+00 0.  1.
         11    1    4    4    0    0  0.13797683511E+02 -0.17625316730E+01  0.46645931209E+02  0.48675717627E+02  0.00000000000E+00 0. -1.
</event>
<event>
 8    1  0.6627806E-009  0.1391131E+03  0.7561462E-02  0.1214527E+00
         -2   -1    0    0    0  501 -0.00000000000E+00  0.00000000000E+00  0.34348147236E+02  0.34348147236E+02  0.00000000000E+00 0. -1.
          2   -1    0    0  501    0  0.00000000000E+00 -0.00000000000E+00 -0.61911744877E+03  0.61911744877E+03  0.00000000000E+00 0.  1.
         25    2    1    2    0    0 -0.30525527377E+02  0.91840246225E+02 -0.32777809368E+03  0.36393937020E+03  0.12508776053E+03 0.  0.
         23    2    1    2    0    0  0.30525527377E+02 -0.91840246225E+02 -0.25699120785E+03  0.28952622580E+03  0.91730670278E+02 0.  0.
          5    1    3    3  502    0  0.45750815120E+02  0.11643362329E+02 -0.96847879044E+02  0.10782248859E+03  0.41800000000E+01 0. -1.
         -5    1    3    3    0  502 -0.76276342497E+02  0.80196883896E+02 -0.23093021464E+03  0.25611688161E+03  0.41800000000E+01 0. -1.
        -11    1    4    4    0    0 -0.21571096324E+02 -0.45486242852E+02 -0.49382509718E+02  0.70519094942E+02  0.00000000000E+00 0. -1.
         11    1    4    4    0    0  0.52096623701E+02 -0.46354003373E+02 -0.20760869813E+03  0.21900713086E+03  0.00000000000E+00 0.  1.
</event>
<event>
 8    1  0.6627806E-009  0.1181115E+03  0.7561462E-02  0.1246245E+00
          2   -1    0    0  501    0  0.00000000000E+00  0.00000000000E+00  0.61307114421E+03  0.61307114421E+03  0.00000000000E+00 0. -1.
         -2   -1    0    0    0  501 -0.00000000000E+00 -0.00000000000E+00 -0.37003215987E+02  0.37003215987E+02  0.00000000000E+00 0.  1.
         25    2    1    2    0    0 -0.12539843972E+02 -0.85700077760E+02  0.22289159387E+03  0.26986909793E+03  0.12508763482E+03 0.  0.
         23    2    1    2    0    0  0.12539843972E+02  0.85700077760E+02  0.35317633435E+03  0.38020526226E+03  0.11099895177E+03 0.  0.
          5    1    3    3  502    0 -0.21866650548E+02 -0.13166073812E+02  0.18611705071E+03  0.18790562757E+03  0.41800000000E+01 0. -1.
         -5    1    3    3    0  502  0.93268065762E+01 -0.72534003948E+02  0.36774543163E+02  0.81963470366E+02  0.41800000000E+01 0. -1.
        -11    1    4    4    0    0  0.57143867639E+02  0.68735706251E+02  0.18620962049E+03  0.20655275764E+03  0.00000000000E+00 0. -1.
         11    1    4    4    0    0 -0.44604023667E+02  0.16964371509E+02  0.16696671385E+03  0.17365250463E+03  0.00000000000E+00 0.  1.
</event>
<event>
 8    1  0.6627806E-009  0.1088525E+03  0.7561462E-02  0.1262710E+00
          1   -1    0    0  501    0  0.00000000000E+00  0.00000000000E+00  0.20751799889E+03  0.20751799889E+03  0.00000000000E+00 0. -1.
         -1   -1    0    0    0  501 -0.00000000000E+00 -0.00000000000E+00 -0.75069045519E+02  0.75069045519E+02  0.00000000000E+00 0.  1.
         25    2    1    2    0    0  0.34842402875E+02 -0.11292810640E+02  0.12399505044E+03  0.17989870710E+03  0.12508897502E+03 0.  0.
         23    2    1    2    0    0 -0.34842402875E+02  0.11292810640E+02  0.84539029297E+01  0.10268833731E+03  0.95561004254E+02 0.  0.
          5    1    3    3  502    0  0.31191112645E+02 -0.60192710912E+02  0.10903606001E+03  0.12846160024E+03  0.41800000000E+01 0. -1.
         -5    1    3    3    0  502  0.36512902302E+01  0.48899900271E+02  0.14958990432E+02  0.51437106855E+02  0.41800000000E+01 0. -1.
        -11    1    4    4    0    0 -0.31018586503E+01  0.50234175195E+02 -0.52813707538E+01  0.50606192918E+02  0.00000000000E+00 0.  1.
         11    1    4    4    0    0 -0.31740544225E+02 -0.38941364555E+02  0.13735273684E+02  0.52082144390E+02  0.00000000000E+00 0. -1.
</event>
<event>
 8    1  0.6627806E-009  0.1260705E+03  0.7561462E-02  0.1233406E+00
         -1   -1    0    0    0  501 -0.00000000000E+00  0.00000000000E+00  0.14253710400E+03  0.14253710400E+03  0.00000000000E+00 0.  1.
          1   -1    0    0  501    0  0.00000000000E+00 -0.00000000000E+00 -0.16310611014E+03  0.16310611014E+03  0.00000000000E+00 0. -1.
         25    2    1    2    0    0 -0.35902708640E+02  0.90165239229E+02 -0.56305562326E+02  0.16803658266E+03  0.12508877611E+03 0.  0.
         23    2    1    2    0    0  0.35902708640E+02 -0.90165239229E+02  0.35736556186E+02  0.13760663148E+03  0.90772841355E+02 0.  0.
          5    1    3    3  502    0 -0.65274230647E+02  0.91254239614E+01 -0.19987245446E+01  0.66071672060E+02  0.41800000000E+01 0.  1.
         -5    1    3    3    0  502  0.29371522007E+02  0.81039815267E+02 -0.54306837782E+02  0.10196491060E+03  0.41800000000E+01 0.  1.
        -11    1    4    4    0    0  0.20432683857E+02 -0.76424163101E+02  0.64571597717E+02  0.10211580929E+03  0.00000000000E+00 0.  1.
         11    1    4    4    0    0  0.15470024783E+02 -0.13741076128E+02 -0.28835041531E+02  0.35490822194E+02  0.00000000000E+00 0. -1.
</event>
<event>
 8    1  0.6627806E-009  0.8049511E+02  0.7561462E-02  0.1327652E+00
          1   -1    0    0  501    0  0.00000000000E+00  0.00000000000E+00  0.34180093134E+03  0.34180093134E+03  0.00000000000E+00 0. -1.
         -1   -1    0    0    0  501 -0.00000000000E+00 -0.00000000000E+00 -0.40833085915E+02  0.40833085915E+02  0.00000000000E+00 0.  1.
         25    2    1    2    0    0  0.19355953784E+02 -0.27904146504E+02  0.12042570744E+03  0.17692566044E+03  0.12508814480E+03 0.  0.
         23    2    1    2    0    0 -0.19355953784E+02  0.27904146504E+02  0.18054213799E+03  0.20570835682E+03  0.92559008942E+02 0.  0.
          5    1    3    3  502    0 -0.19347050535E+02 -0.22837466387E+02  0.13246175682E+03  0.13586554992E+03  0.41800000000E+01 0. -1.
         -5    1    3    3    0  502  0.38703004319E+02 -0.50666801169E+01 -0.12036049385E+02  0.41060110515E+02  0.41800000000E+01 0. -1.
        -11    1    4    4    0    0  0.33869271308E+02  0.92020666746E+01  0.10952120360E+03  0.11500738936E+03  0.00000000000E+00 0. -1.
         11    1    4    4    0    0 -0.53225225092E+02  0.18702079829E+02  0.71020934394E+02  0.90700967460E+02  0.00000000000E+00 0.  1.
</event>
<event>
 8    1  0.6627806E-009  0.1534186E+03  0.7561462E-02  0.1196334E+00
         -2   -1    0    0    0  501 -0.00000000000E+00  0.00000000000E+00  0.16363239221E+03  0.16363239221E+03  0.00000000000E+00 0.  1.
          2   -1    0    0  501    0  0.00000000000E+00 -0.00000000000E+00 -0.18960943055E+03  0.18960943055E+03  0.00000000000E+00 0. -1.
         25    2    1    2    0    0  0.35039338032E+02  0.11376964061E+03  0.30472320745E+02  0.17534928235E+03  0.12509005618E+03 0.  0.
         23    2    1    2    0    0 -0.35039338032E+02 -0.11376964061E+03 -0.56449359078E+02  0.17789254041E+03  0.11953216914E+03 0.  0.
          5    1    3    3  502    0 -0.17232432092E+02  0.86229298393E+02  0.62547543339E+02  0.10799127833E+03  0.41800000000E+01 0.  1.
         -5    1    3    3    0  502  0.52271770124E+02  0.27540342218E+02 -0.32075222594E+02  0.67358004022E+02  0.41800000000E+01 0.  1.
        -11    1    4    4    0    0 -0.70480428824E+02 -0.49325258672E+02 -0.58978521221E+02  0.10430214742E+03  0.00000000000E+00 0.  1.
         11    1    4    4    0    0  0.35441090793E+02 -0.64444381939E+02  0.25291621430E+01  0.73590392995E+02  0.00000000000E+00 0. -1.
</event>
<event>
 8    1  0.6627806E-009  0.7415017E+02  0.7561462E-02  0.1346523E+00
          1   -1    0    0  501    0  0.00000000000E+00  0.00000000000E+00  0.84132464510E+02  0.84132464510E+02  0.00000000000E+00 0. -1.
         -1   -1    0    0    0  501 -0.00000000000E+00 -0.00000000000E+00 -0.20588973474E+03  0.20588973474E+03  0.00000000000E+00 0.  1.
         25    2    1    2    0    0 -0.48849282534E+02 -0.52562546510E+01 -0.52856014283E+01  0.13449712922E+03  0.12509060544E+03 0.  0.
         23    2    1    2    0    0  0.48849282534E+02  0.52562546510E+01 -0.11647166880E+03  0.15552507003E+03  0.90600867316E+02 0.  0.
          5    1    3    3  502    0  0.17512461495E+02 -0.75163395802E+01  0.46343515813E+02  0.50282954629E+02  0.41800000000E+01 0.  1.
         -5    1    3    3    0  502 -0.66361744029E+02  0.22600849292E+01 -0.51629117241E+02  0.84214174588E+02  0.41800000000E+01 0.  1.
        -11    1    4    4    0    0  0.11723634286E+02  0.19286380554E+02 -0.11350372871E+03  0.11572598890E+03  0.00000000000E+00 0.  1.
         11    1    4    4    0    0  0.37125648248E+02 -0.14030125903E+02 -0.29679400916E+01  0.39799081134E+02  0.00000000000E+00 0. -1.
</event>
<event>
 8    1  0.6627806E-009  0.1277190E+03  0.7561462E-02  0.1230880E+00
          2   -1    0    0  501    0  0.00000000000E+00  0.00000000000E+00  0.46384493755E+03  0.46384493755E+03  0.00000000000E+00 0. -1.
         -2   -1    0    0    0  501 -0.00000000000E+00 -0.00000000000E+00 -0.46988862444E+02  0.46988862444E+02  0.00000000000E+00 0.  1.
         25    2    1    2    0    0  0.90881057981E+02 -0.21136023835E+02  0.28745641114E+03  0.32708571766E+03  0.12509108756E+03 0.  0.
         23    2    1    2    0    0 -0.90881057981E+02  0.21136023835E+02  0.12939966397E+03  0.18374808234E+03  0.91175580749E+02 0.  0.
          5    1    3    3  502    0  0.56772433914E+02  0.44962667578E+02  0.19681625776E+03  0.20975905808E+03  0.41800000000E+01 0. -1.
         -5    1    3    3    0  502  0.34108624067E+02 -0.66098691413E+02  0.90640153380E+02  0.11732665958E+03  0.41800000000E+01 0. -1.
        -11    1    4    4    0    0 -0.18455310599E+02 -0.18251483841E+02 -0.46559262186E+01  0.26370301490E+02  0.00000000000E+00 0.  1.
         11    1    4    4    0    0 -0.72425747382E+02  0.39387507676E+02  0.13405559019E+03  0.15737778085E+03  0.00000000000E+00 0. -1.
</event>
<event>
 8    1  0.6627806E-009  0.8584848E+02  0.7561462E-02  0.1313228E+00
          4   -1    0    0  501    0  0.00000000000E+00  0.00000000000E+00  0.69729356681E+02  0.69729356681E+02  0.00000000000E+00 0.  1.
         -4   -1    0    0    0  501 -0.00000000000E+00 -0.00000000000E+00 -0.17138525482E+03  0.17138525482E+03  0.00000000000E+00 0. -1.
         25    2    1    2    0    0 -0.76821467565E+01  0.48462195110E+01 -0.48499380101E+02  0.13446893685E+03  0.12508878401E+03 0.  0.
         23    2    1    2    0    0  0.76821467565E+01 -0.48462195110E+01 -0.53156518034E+02  0.10664567464E+03  0.92006430690E+02 0.  0.
          5    1    3    3  502    0 -0.60310112509E+02 -0.15622340178E+02 -0.42102540006E+01  0.62582472164E+02  0.41800000000E+01 0.  1.
         -5    1    3    3    0  502  0.52627965752E+02  0.20468559689E+02 -0.44289126101E+02  0.71886464691E+02  0.41800000000E+01 0.  1.
        -11    1    4    4    0    0 -0.21958736538E+02  0.24865879457E+01 -0.68853329603E+02  0.72312863498E+02  0.00000000000E+00 0. -1.
         11    1    4    4    0    0  0.29640883294E+02 -0.73328074567E+01  0.15696811569E+02  0.34332811145E+02  0.00000000000E+00 0.  1.
</event>
<event>
 8    1  0.6627806E-009  0.1780122E+03  0.7561462E-02  0.1169741E+00
          2   -1    0    0  501    0  0.00000000000E+00  0.00000000000E+00  0.25571766840E+04  0.25571766840E+04  0.00000000000E+00 0. -1.
         -2   -1    0    0    0  501 -0.00000000000E+00 -0.00000000000E+00 -0.13411775423E+02  0.13411775423E+02  0.00000000000E+00 0.  1.
         25    2    1    2    0    0 -0.48472846794E+02 -0.13454899535E+03  0.16590752509E+04  0.16699188618E+04  0.12508104522E+03 0.  0.
         23    2    1    2    0    0  0.48472846794E+02  0.13454899535E+03  0.88468965774E+03  0.90066959767E+03  0.89871489512E+02 0.  0.
          5    1    3    3  502    0  0.39370230594E+02 -0.67027330392E+02  0.78138729101E+03  0.78525553104E+03  0.41800000000E+01 0. -1.
         -5    1    3    3    0  502 -0.87843077388E+02 -0.67521664962E+02  0.87768795988E+03  0.88466333077E+03  0.41800000000E+01 0. -1.
        -11    1    4    4    0    0 -0.27205578046E+01 -0.11877815989E+02  0.38584091004E+02  0.40462526195E+02  0.00000000000E+00 0.  1.
         11    1    4    4    0    0  0.51193404599E+02  0.14642681134E+03  0.84610556673E+03  0.86020707147E+03  0.00000000000E+00 0. -1.
</event>
<event>
 8    1  0.6627806E-009  0.9844508E+02  0.7561462E-02  0.1283600E+00
         -1   -1    0    0    0  501 -0.00000000000E+00  0.00000000000E+00  0.63714461807E+02  0.63714461807E+02  0.00000000000E+00 0.  1.
          1   -1    0    0  501    0  0.00000000000E+00 -0.00000000000E+00 -0.22703852544E+03  0.22703852544E+03  0.00000000000E+00 0. -1.
         25    2    1    2    0    0  0.11136971486E+02 -0.34287656210E+02 -0.13941116397E+03  0.19074375042E+03  0.12509208681E+03 0.  0.
         23    2    1    2    0    0 -0.11136971486E+02  0.34287656210E+02 -0.23912899664E+02  0.10000923683E+03  0.90168426729E+02 0.  0.
          5    1    3    3  502    0 -0.32082447170E+02 -0.51409753909E+02 -0.12948523913E+03  0.14302498302E+03  0.41800000000E+01 0. -1.
         -5    1    3    3    0  502  0.43219418655E+02  0.17122097699E+02 -0.99259248366E+01  0.47718767402E+02  0.41800000000E+01 0. -1.
        -11    1    4    4    0    0 -0.22436843460E+02  0.58553055035E+02  0.20235918424E+01  0.62737286540E+02  0.00000000000E+00 0.  1.
         11    1    4    4    0    0  0.11299871975E+02 -0.24265398825E+02 -0.25936491507E+02  0.37271950291E+02  0.00000000000E+00 0. -1.
</event>
<event>
 8    1  0.6627806E-009  0.1202495E+03  0.7561462E-02  0.1242686E+00
          1   -1    0    0  501    0  0.00000000000E+00  0.00000000000E+00  0.27548914187E+03  0.27548914187E+03  0.00000000000E+00 0. -1.
         -1   -1    0    0    0  501 -0.00000000000E+00 -0.00000000000E+00 -0.62796959214E+02  0.62796959214E+02  0.00000000000E+00 0.  1.
         25    2    1    2    0    0  0.18146751247E+02 -0.70380596657E+02  0.10218543539E+03  0.17712042724E+03  0.12508816720E+03 0.  0.
         23    2    1    2    0    0 -0.18146751247E+02  0.70380596657E+02  0.11050674727E+03  0.16116567384E+03  0.92086373953E+02 0.  0.
          5    1    3    3  502    0 -0.41249306364E+02  0.11770964392E+02  0.33680215034E+02  0.54698173306E+02  0.41800000000E+01 0. -1.
         -5    1    3    3    0  502  0.59396057611E+02 -0.82151561050E+02  0.68505220360E+02  0.12242225394E+03  0.41800000000E+01 0. -1.
        -11    1    4    4    0    0 -0.37535888628E+02  0.66205412860E+02  0.36235496692E+02  0.84291819577E+02  0.00000000000E+00 0.  1.
         11    1    4    4    0    0  0.19389137381E+02  0.41751837974E+01  0.74271250574E+02  0.76873854268E+02  0.00000000000E+00 0. -1.
</event>
<event>
 8    1  0.6627806E-009  0.2608294E+03  0.7561462E-02  0.1106646E+00
         -2   -1    0    0    0  501 -0.00000000000E+00  0.00000000000E+00  0.57115888911E+02  0.57115888911E+02  0.00000000000E+00 0.  1.
          2   -1    0    0  501    0  0.00000000000E+00 -0.00000000000E+00 -0.13160202344E+04  0.13160202344E+04  0.00000000000E+00 0. -1.
         25    2    1    2    0    0  0.90641594745E+02 -0.22772820423E+03 -0.50454813249E+03  0.57471041330E+03  0.12508879826E+03 0.  0.
         23    2    1    2    0    0 -0.90641594745E+02  0.22772820423E+03 -0.75435621303E+03  0.79842571004E+03  0.91401775856E+02 0.  0.
          5    1    3    3  502    0  0.82717771619E+02 -0.23723311535E+03 -0.42207413162E+03  0.49120853590E+03  0.41800000000E+01 0.  1.
         -5    1    3    3    0  502  0.79238231259E+01  0.95049111219E+01 -0.82474000874E+02  0.83501877395E+02  0.41800000000E+01 0.  1.
        -11    1    4    4    0    0 -0.81093451519E+02  0.97816188302E+02 -0.44446459302E+03  0.46226932520E+03  0.00000000000E+00 0.  1.
         11    1    4    4    0    0 -0.95481432260E+01  0.12991201593E+03 -0.30989162001E+03  0.33615638485E+03  0.00000000000E+00 0. -1.
</event>
<event>
 8    1  0.6627806E-009  0.1255477E+03  0.7561462E-02  0.1234216E+00
          2   -1    0    0  501    0  0.00000000000E+00  0.00000000000E+00  0.62988437068E+03  0.62988437068E+03  0.00000000000E+00 0. -1.
         -2   -1    0    0    0  501 -0.00000000000E+00 -0.00000000000E+00 -0.29569325124E+02  0.29569325124E+02  0.00000000000E+00 0.  1.
         25    2    1    2    0    0  0.33769416946E+02  0.72746062850E+02  0.28526921617E+03  0.32164963451E+03  0.12509036136E+03 0.  0.
         23    2    1    2    0    0 -0.33769416946E+02 -0.72746062850E+02  0.31504582939E+03  0.33780406130E+03  0.91789683692E+02 0.  0.
          5    1    3    3  502    0  0.75064335874E+02  0.35292308170E+02  0.11099321585E+03  0.13862600009E+03  0.41800000000E+01 0.  1.
         -5    1    3    3    0  502 -0.41294918929E+02  0.37453754680E+02  0.17427600031E+03  0.18302363441E+03  0.41800000000E+01 0.  1.
        -11    1    4    4    0    0 -0.59547012965E+02 -0.49832187027E+02  0.27075239983E+03  0.28166639067E+03  0.00000000000E+00 0. -1.
         11    1    4    4    0    0  0.25777596019E+02 -0.22913875823E+02  0.44293429556E+02  0.56137670629E+02  0.00000000000E+00 0.  1.
</event>
<event>
 8    1  0.6627806E-009  0.8790391E+02  0.7561462E-02  0.1308009E+00
         -2   -1    0    0    0  501 -0.00000000000E+00  0.00000000000E+00  0.19418620903E+03  0.19418620903E+03  0.00000000000E+00 0.  1.
          2   -1    0    0  501    0  0.00000000000E+00 -0.00000000000E+00 -0.80352572018E+02  0.80352572018E+02  0.00000000000E+00 0. -1.
         25    2    1    2    0    0  0.77958994820E+01  0.36437989257E+02  0.75353005486E+01  0.13074991983E+03  0.12510098989E+03 0.  0.
         23    2    1    2    0    0 -0.77958994820E+01 -0.36437989257E+02  0.10629833646E+03  0.14378886122E+03  0.89372239347E+02 0.  0.
          5    1    3    3  502    0  0.44878958535E+02 -0.28730235328E+02 -0.80473586452E+01  0.54053489456E+02  0.41800000000E+01 0. -1.
         -5    1    3    3    0  502 -0.37083059053E+02  0.65168224585E+02  0.15582659194E+02  0.76696430373E+02  0.41800000000E+01 0. -1.
        -11    1    4    4    0    0 -0.18568651791E+02 -0.17740785622E+02  0.11694150438E+03  0.11972821618E+03  0.00000000000E+00 0.  1.
         11    1    4    4    0    0  0.10772752309E+02 -0.18697203635E+02 -0.10643167918E+02  0.24060645034E+02  0.00000000000E+00 0. -1.
</event>
<event>
 8    1  0.6627806E-009  0.1519744E+03  0.7561462E-02  0.1198068E+00
          2   -1    0    0  501    0  0.00000000000E+00  0.00000000000E+00  0.18730829182E+03  0.18730829182E+03  0.00000000000E+00 0. -1.
         -2   -1    0    0    0  501 -0.00000000000E+00 -0.00000000000E+00 -0.13484927030E+03  0.13484927030E+03  0.00000000000E+00 0.  1.
         25    2    1    2    0    0  0.97687665699E+02 -0.46323404775E+02 -0.95128577595E+01  0.16561446929E+03  0.12509564387E+03 0.  0.
         23    2    1    2    0    0 -0.97687665699E+02  0.46323404775E+02  0.61971879280E+02  0.15654309283E+03  0.94744330865E+02 0.  0.
          5    1    3    3  502    0  0.12529551611E+03 -0.36087997525E+02  0.86923125864E+01  0.13074531969E+03  0.41800000000E+01 0. -1.
         -5    1    3    3    0  502 -0.27607850416E+02 -0.10235407250E+02 -0.18205170346E+02  0.34869149595E+02  0.41800000000E+01 0. -1.
        -11    1    4    4    0    0 -0.10250318606E+02 -0.27481585387E+02  0.12441114588E+02  0.31860444114E+02  0.00000000000E+00 0.  1.
         11    1    4    4    0    0 -0.87437347093E+02  0.73804990162E+02  0.49530764692E+02  0.12468264871E+03  0.00000000000E+00 0. -1.
</event>
<event>
 8    1  0.6627806E-009  0.2535182E+03  0.7561462E-02  0.1111101E+00
          2   -1    0    0  501    0  0.00000000000E+00  0.00000000000E+00  0.23247385074E+03  0.23247385074E+03  0.00000000000E+00 0. -1.
         -2   -1    0    0    0  501 -0.00000000000E+00 -0.00000000000E+00 -0.31206897776E+03  0.31206897776E+03  0.00000000000E+00 0.  1.
         25    2    1    2    0    0  0.24122217163E+03  0.23428363026E+02 -0.45414425589E+01  0.27278407226E+03  0.12511395244E+03 0.  0.
         23    2    1    2    0    0 -0.24122217163E+03 -0.23428363026E+02 -0.75053684468E+02  0.27175875624E+03  0.97379370289E+02 0.  0.
          5    1    3    3  502    0  0.22291149590E+03  0.32901124452E+02 -0.42546225984E+02  0.22934618536E+03  0.41800000000E+01 0.  1.
         -5    1    3    3    0  502  0.18310675734E+02 -0.94727614255E+01  0.38004783425E+02  0.43437886897E+02  0.41800000000E+01 0.  1.
        -11    1    4    4    0    0 -0.14170622096E+03  0.34013998901E+02 -0.50724845005E+02  0.15430688605E+03  0.00000000000E+00 0.  1.
         11    1    4    4    0    0 -0.99515950671E+02 -0.57442361927E+02 -0.24328839464E+02  0.11745187019E+03  0.00000000000E+00 0. -1.
</event>
<event>
 8    1  0.6627806E-009  0.9761061E+02  0.7561462E-02  0.1285402E+00
         -2   -1    0    0    0  501 -0.00000000000E+00  0.00000000000E+00  0.35608561111E+02  0.35608561111E+02  0.00000000000E+00 0. -1.
          2   -1    0    0  501    0  0.00000000000E+00 -0.00000000000E+00 -0.33769776139E+03  0.33769776139E+03  0.00000000000E+00 0.  1.
         25    2    1    2    0    0  0.15999113158E+01 -0.19450779409E+02 -0.15466764979E+03  0.19987732750E+03  0.12509185273E+03 0.  0.
         23    2    1    2    0    0 -0.15999113158E+01  0.19450779409E+02 -0.14742155049E+03  0.17342899501E+03  0.89239062213E+02 0.  0.
          5    1    3    3  502    0 -0.78241480169E+01 -0.66005997148E+02 -0.13028834980E+03  0.14632339336E+03  0.41800000000E+01 0.  1.
         -5    1    3    3    0  502  0.94240593327E+01  0.46555217739E+02 -0.24379299990E+02  0.53553934133E+02  0.41800000000E+01 0.  1.
        -11    1    4    4    0    0 -0.40082503312E+02  0.10194020352E+02 -0.34789179430E+02  0.54044538374E+02  0.00000000000E+00 0.  1.
         11    1    4    4    0    0  0.38482591996E+02  0.92567590561E+01 -0.11263237106E+03  0.11938445664E+03  0.00000000000E+00 0. -1.
</event>
<event>
 8    1  0.6627806E-009  0.1285880E+03  0.7561462E-02  0.1229566E+00
          1   -1    0    0  501    0  0.00000000000E+00  0.00000000000E+00  0.15683723853E+04  0.15683723853E+04  0.00000000000E+00 0. -1.
         -1   -1    0    0    0  501 -0.00000000000E+00 -0.00000000000E+00 -0.14197660551E+02  0.14197660551E+02  0.00000000000E+00 0.  1.
         25    2    1    2    0    0  0.37490898154E+02  0.81970913457E+02  0.11699326643E+04  0.11800488527E+04  0.12509219622E+03 0.  0.
         23    2    1    2    0    0 -0.37490898154E+02 -0.81970913457E+02  0.38424206045E+03  0.40252119319E+03  0.79098368234E+02 0.  0.
          5    1    3    3  502    0  0.62068371628E+01  0.10739798562E+03  0.97642868217E+03  0.98234581279E+03  0.41800000000E+01 0. -1.
         -5    1    3    3    0  502  0.31284060991E+02 -0.25427072163E+02  0.19350398213E+03  0.19770303986E+03  0.41800000000E+01 0. -1.
        -11    1    4    4    0    0 -0.53350529888E+02 -0.49168462957E+02  0.32477240689E+03  0.33277760301E+03  0.00000000000E+00 0. -1.
         11    1    4    4    0    0  0.15859631734E+02 -0.32802450500E+02  0.59469653558E+02  0.69743590184E+02  0.00000000000E+00 0.  1.
</event>
<event>
 8    1  0.6627806E-009  0.8885386E+02  0.7561462E-02  0.1305651E+00
         -1   -1    0    0    0  501 -0.00000000000E+00  0.00000000000E+00  0.42986060769E+03  0.42986060769E+03  0.00000000000E+00 0. -1.
          1   -1    0    0  501    0  0.00000000000E+00 -0.00000000000E+00 -0.42422066510E+02  0.42422066510E+02  0.00000000000E+00 0.  1.
         25    2    1    2    0    0  0.69689223403E+02  0.39313656489E+02  0.18223493126E+03  0.23507941101E+03  0.12510238953E+03 0.  0.
         23    2    1    2    0    0 -0.69689223403E+02 -0.39313656489E+02  0.20520360992E+03  0.23720326319E+03  0.88060860196E+02 0.  0.
          5    1    3    3  502    0  0.41233783335E+02  0.45722325433E+02  0.19382802413E+03  0.20341467811E+03  0.41800000000E+01 0.  1.
         -5    1    3    3    0  502  0.28455440068E+02 -0.64086689445E+01 -0.11593092877E+02  0.31664732899E+02  0.41800000000E+01 0.  1.
        -11    1    4    4    0    0 -0.68893351011E+02 -0.26691081794E+02  0.21080008172E+03  0.22337274254E+03  0.00000000000E+00 0. -1.
         11    1    4    4    0    0 -0.79587239160E+00 -0.12622574695E+02 -0.55964717938E+01  0.13830520645E+02  0.00000000000E+00 0.  1.
</event>
<event>
 8    1  0.6627806E-009  0.1124531E+03  0.7561462E-02  0.1256093E+00
         -1   -1    0    0    0  501 -0.00000000000E+00  0.00000000000E+00  0.57653318367E+02  0.57653318367E+02  0.00000000000E+00 0.  1.
          1   -1    0    0  501    0  0.00000000000E+00 -0.00000000000E+00 -0.29589029430E+03  0.29589029430E+03  0.00000000000E+00 0. -1.
         25    2    1    2    0    0 -0.59193942806E+02 -0.90278637811E+01 -0.19052923967E+03  0.23565802178E+03  0.12509151399E+03 0.  0.
         23    2    1    2    0    0  0.59193942806E+02  0.90278637811E+01 -0.47707736268E+02  0.11788559089E+03  0.89641280950E+02 0.  0.
          5    1    3    3  502    0 -0.11491128304E+01 -0.48541280760E+02 -0.14218455205E+03  0.15030467604E+03  0.41800000000E+01 0. -1.
         -5    1    3    3    0  502 -0.58044829975E+02  0.39513416979E+02 -0.48344687620E+02  0.85353345742E+02  0.41800000000E+01 0. -1.
        -11    1    4    4    0    0 -0.17484819279E+02  0.21957502930E+02 -0.31030149030E+01  0.28239680268E+02  0.00000000000E+00 0.  1.
         11    1    4    4    0    0  0.76678762085E+02 -0.12929639148E+02 -0.44604721365E+02  0.89645910623E+02  0.00000000000E+00 0. -1.
</event>
<event>
 8    1  0.6627806E-009  0.1576884E+03  0.7561462E-02  0.1191332E+00
          4   -1    0    0  501    0  0.00000000000E+00  0.00000000000E+00  0.18426538313E+03  0.18426538313E+03  0.00000000000E+00 0. -1.
         -4   -1    0    0    0  501 -0.00000000000E+00 -0.00000000000E+00 -0.30267213456E+03  0.30267213456E+03  0.00000000000E+00 0.  1.
         25    2    1    2    0    0  0.13302772510E+03 -0.49187427943E+02 -0.22040537355E+03  0.29041649694E+03  0.12508970500E+03 0.  0.
         23    2    1    2    0    0 -0.13302772510E+03  0.49187427943E+02  0.10199862212E+03  0.19652102075E+03  0.90005633005E+02 0.  0.
          5    1    3    3  502    0  0.14508543655E+03 -0.45682449723E+02 -0.22877457218E+03  0.27475797966E+03  0.41800000000E+01 0.  1.
         -5    1    3    3    0  502 -0.12057711450E+02 -0.35049782204E+01  0.83691986333E+01  0.15658517283E+02  0.41800000000E+01 0.  1.
        -11    1    4    4    0    0 -0.42203677237E+01  0.16577734239E+02 -0.12448133153E+02  0.21156294459E+02  0.00000000000E+00 0.  1.
         11    1    4    4    0    0 -0.12880735737E+03  0.32609693704E+02  0.11444675527E+03  0.17536472630E+03  0.00000000000E+00 0. -1.
</event>
<event>
 8    1  0.6627806E-009  0.1000017E+03  0.7561462E-02  0.1280292E+00
          2   -1    0    0  501    0  0.00000000000E+00  0.00000000000E+00  0.60659913309E+03  0.60659913309E+03  0.00000000000E+00 0. -1.
         -2   -1    0    0    0  501 -0.00000000000E+00 -0.00000000000E+00 -0.29181931243E+02  0.29181931243E+02  0.00000000000E+00 0.  1.
         25    2    1    2    0    0 -0.33004756159E+02  0.47577223476E+02  0.43647485089E+03  0.45772362017E+03  0.12509081053E+03 0.  0.
         23    2    1    2    0    0  0.33004756159E+02 -0.47577223476E+02  0.14094235096E+03  0.17805744417E+03  0.92123835169E+02 0.  0.
          5    1    3    3  502    0 -0.69844808198E+02  0.27670407746E+02  0.37952909517E+03  0.38691569518E+03  0.41800000000E+01 0. -1.
         -5    1    3    3    0  502  0.36840052039E+02  0.19906815729E+02  0.56945755722E+02  0.70807924990E+02  0.41800000000E+01 0. -1.
        -11    1    4    4    0    0 -0.11577349655E+02 -0.34239475097E+02  0.12297196329E+03  0.12817363393E+03  0.00000000000E+00 0. -1.
         11    1    4    4    0    0  0.44582105814E+02 -0.13337748378E+02  0.17970387672E+02  0.49883810236E+02  0.00000000000E+00 0.  1.
</event>
<event>
 8    1  0.6627806E-009  0.7943330E+02  0.7561462E-02  0.1330667E+00
          2   -1    0    0  501    0  0.00000000000E+00  0.00000000000E+00  0.10414467618E+03  0.10414467618E+03  0.00000000000E+00 0. -1.
         -2   -1    0    0    0  501 -0.00000000000E+00 -0.00000000000E+00 -0.16088929752E+03  0.16088929752E+03  0.00000000000E+00 0.  1.
         25    2    1    2    0    0 -0.21685037660E+02 -0.38187407337E+02  0.25911930634E+02  0.13508994046E+03  0.12509734180E+03 0.  0.
         23    2    1    2    0    0  0.21685037660E+02  0.38187407337E+02 -0.82656551968E+02  0.12994403324E+03  0.90137823664E+02 0.  0.
          5    1    3    3  502    0 -0.24022546906E+02  0.29332038034E+02 -0.29010212008E+02  0.47921978422E+02  0.41800000000E+01 0. -1.
         -5    1    3    3    0  502  0.23375092462E+01 -0.67519445371E+02  0.54922142642E+02  0.87167962033E+02  0.41800000000E+01 0. -1.
        -11    1    4    4    0    0  0.29238661429E+02  0.29868838611E+02 -0.10050686631E+03  0.10885162846E+03  0.00000000000E+00 0.  1.
         11    1    4    4    0    0 -0.75536237692E+01  0.83185687260E+01  0.17850314341E+02  0.21092404788E+02  0.00000000000E+00 0. -1.
</event>
<event>
 8    1  0.6627806E-009  0.1150455E+03  0.7561462E-02  0.1251502E+00
         -2   -1    0    0    0  501 -0.00000000000E+00  0.00000000000E+00  0.60042358004E+02  0.60042358004E+02  0.00000000000E+00 0.  1.
          2   -1    0    0  501    0  0.00000000000E+00 -0.00000000000E+00 -0.34423839353E+03  0.34423839353E+03  0.00000000000E+00 0. -1.
         25    2    1    2    0    0  0.49753977039E+02  0.74325743851E+02 -0.19596638158E+03  0.24909765220E+03  0.12508814169E+03 0.  0.
         23    2    1    2    0    0 -0.49753977039E+02 -0.74325743851E+02 -0.88229653944E+02  0.15518309933E+03  0.91090877987E+02 0.  0.
          5    1    3    3  502    0  0.53316470582E+02 -0.10836366371E+02 -0.13079000121E+03  0.14171651170E+03  0.41800000000E+01 0. -1.
         -5    1    3    3    0  502 -0.35624935432E+01  0.85162110222E+02 -0.65176380371E+02  0.10738114050E+03  0.41800000000E+01 0. -1.
        -11    1    4    4    0    0 -0.12210133536E+02 -0.28068295102E+02 -0.90528121760E+02  0.95562845187E+02  0.00000000000E+00 0. -1.
         11    1    4    4    0    0 -0.37543843503E+02 -0.46257448750E+02  0.22984678161E+01  0.59620254143E+02  0.00000000000E+00 0.  1.
</event>
<event>
 8    1  0.6627806E-009  0.1279475E+03  0.7561462E-02  0.1230533E+00
         -2   -1    0    0    0  501 -0.00000000000E+00  0.00000000000E+00  0.17398647793E+02  0.17398647793E+02  0.00000000000E+00 0.  1.
          2   -1    0    0  501    0  0.00000000000E+00 -0.00000000000E+00 -0.10279753128E+04  0.10279753128E+04  0.00000000000E+00 0. -1.
         25    2    1    2    0    0 -0.54202004492E+02  0.46963645110E+02 -0.68838737632E+03  0.70332536618E+03  0.12508377022E+03 0.  0.
         23    2    1    2    0    0  0.54202004492E+02 -0.46963645110E+02 -0.32218928864E+03  0.34204859437E+03  0.89709876515E+02 0.  0.
          5    1    3    3  502    0 -0.46296064591E+02  0.88714550460E+02 -0.52382780481E+03  0.53331664005E+03  0.41800000000E+01 0.  1.
         -5    1    3    3    0  502 -0.79059399013E+01 -0.41750905350E+02 -0.16455957151E+03  0.17000872613E+03  0.41800000000E+01 0.  1.
        -11    1    4    4    0    0 -0.16175849168E+02  0.12866805529E+02 -0.38473677882E+02  0.43674210589E+02  0.00000000000E+00 0.  1.
         11    1    4    4    0    0  0.70377853660E+02 -0.59830450640E+02 -0.28371561075E+03  0.29837438378E+03  0.00000000000E+00 0. -1.
</event>
<event>
 8    1  0.6627806E-009  0.1380030E+03  0.7561462E-02  0.1216042E+00
          2   -1    0    0  501    0  0.00000000000E+00  0.00000000000E+00  0.64503955302E+03  0.64503955302E+03  0.00000000000E+00 0.  1.
         -2   -1    0    0    0  501 -0.00000000000E+00 -0.00000000000E+00 -0.51032220824E+02  0.51032220824E+02  0.00000000000E+00 0. -1.
         25    2    1    2    0    0 -0.11498902249E+03  0.40436809861E+02  0.46110873135E+03  0.49307812873E+03  0.12508864062E+03 0.  0.
         23    2    1    2    0    0  0.11498902249E+03 -0.40436809861E+02  0.13289860085E+03  0.20299364512E+03  0.93202848499E+02 0.  0.
          5    1    3    3  502    0 -0.10314960550E+03  0.59877929127E+01  0.43730094733E+03  0.44936097484E+03  0.41800000000E+01 0. -1.
         -5    1    3    3    0  502 -0.11839416988E+02  0.34449016948E+02  0.23807784025E+02  0.43717153881E+02  0.41800000000E+01 0. -1.
        -11    1    4    4    0    0  0.54370929702E+02  0.12117111193E+02  0.10562403041E+02  0.56697325672E+02  0.00000000000E+00 0. -1.
         11    1    4    4    0    0  0.60618092787E+02 -0.52553921054E+02  0.12233619780E+03  0.14629631945E+03  0.00000000000E+00 0.  1.
</event>
<event>
 8    1  0.6627806E-009  0.1396018E+03  0.7561462E-02  0.1213866E+00
          1   -1    0    0  501    0  0.00000000000E+00  0.00000000000E+00  0.56003421998E+03  0.56003421998E+03  0.00000000000E+00 0. -1.
         -1   -1    0    0    0  501 -0.00000000000E+00 -0.00000000000E+00 -0.58898350325E+02  0.58898350325E+02  0.00000000000E+00 0.  1.
         25    2    1    2    0    0  0.90160622977E+02  0.69878318156E+02  0.41666454381E+03  0.44974233639E+03  0.12508760846E+03 0.  0.
         23    2    1    2    0    0 -0.90160622977E+02 -0.69878318156E+02  0.84471325846E+02  0.16919023391E+03  0.92076126537E+02 0.  0.
          5    1    3    3  502    0 -0.19273437289E+02  0.44902583398E+02  0.71046777329E+02  0.86329741975E+02  0.41800000000E+01 0. -1.
         -5    1    3    3    0  502  0.10943406027E+03  0.24975734758E+02  0.34561776648E+03  0.36341259441E+03  0.41800000000E+01 0. -1.
        -11    1    4    4    0    0 -0.34918291714E+02 -0.99031076621E+01  0.79624281722E+02  0.87506484773E+02  0.00000000000E+00 0. -1.
         11    1    4    4    0    0 -0.55242331263E+02 -0.59975210494E+02  0.48470441243E+01  0.81683749142E+02  0.00000000000E+00 0.  1.
</event>
<event>
 8    1  0.6627806E-009  0.1072034E+03  0.7561462E-02  0.1265838E+00
         -1   -1    0    0    0  501 -0.00000000000E+00  0.00000000000E+00  0.13209340981E+03  0.13209340981E+03  0.00000000000E+00 0.  1.
          1   -1    0    0  501    0  0.00000000000E+00 -0.00000000000E+00 -0.16777250460E+03  0.16777250460E+03  0.00000000000E+00 0. -1.
         25    2    1    2    0    0 -0.64490722211E+02 -0.69804475848E+02  0.18738102729E+02  0.15821061238E+03  0.12509101996E+03 0.  0.
         23    2    1    2    0    0  0.64490722211E+02  0.69804475848E+02 -0.54417197523E+02  0.14165530204E+03  0.89851405713E+02 0.  0.
          5    1    3    3  502    0 -0.48972427041E+02 -0.41689509449E+02  0.71526764961E+02  0.96280134577E+02  0.41800000000E+01 0. -1.
         -5    1    3    3    0  502 -0.15518295170E+02 -0.28114966399E+02 -0.52788662232E+02  0.61930477802E+02  0.41800000000E+01 0. -1.
        -11    1    4    4    0    0  0.78946642289E+02  0.65235053468E+02 -0.66636901733E+02  0.12218290061E+03  0.00000000000E+00 0. -1.
         11    1    4    4    0    0 -0.14455920078E+02  0.45694223799E+01  0.12219704210E+02  0.19472401422E+02  0.00000000000E+00 0.  1.
</event>
<event>
 8    1  0.6627806E-009  0.1509535E+03  0.7561462E-02  0.1199306E+00
         -1   -1    0    0    0  501 -0.00000000000E+00  0.00000000000E+00  0.32583969975E+02  0.32583969975E+02  0.00000000000E+00 0.  1.
          1   -1    0    0  501    0  0.00000000000E+00 -0.00000000000E+00 -0.10572523242E+04  0.10572523242E+04  0.00000000000E+00 0. -1.
         25    2    1    2    0    0 -0.62154803511E+02 -0.11477149460E+03 -0.75498137429E+03  0.77632450620E+03  0.12508855996E+03 0.  0.
         23    2    1    2    0    0  0.62154803511E+02  0.11477149460E+03 -0.26968697998E+03  0.31351178801E+03  0.92319328871E+02 0.  0.
          5    1    3    3  502    0  0.89750009255E+01  0.17570302029E+02 -0.21095600441E+03  0.21191784812E+03  0.41800000000E+01 0. -1.
         -5    1    3    3    0  502 -0.71129804436E+02 -0.13234179663E+03 -0.54402536987E+03  0.56440665807E+03  0.41800000000E+01 0. -1.
        -11    1    4    4    0    0  0.19505295037E+02  0.52070922718E+02 -0.32294992251E+02  0.64302442035E+02  0.00000000000E+00 0.  1.
         11    1    4    4    0    0  0.42649508474E+02  0.62700571882E+02 -0.23739198772E+03  0.24920934598E+03  0.00000000000E+00 0. -1.
</event>
<event>
 8    1  0.6627806E-009  0.8706992E+02  0.7561462E-02  0.1310107E+00
          1   -1    0    0  501    0  0.00000000000E+00  0.00000000000E+00  0.18919789546E+04  0.18919789546E+04  0.00000000000E+00 0. -1.
         -1   -1    0    0    0  501 -0.00000000000E+00 -0.00000000000E+00 -0.67150229143E+01  0.67150229143E+01  0.00000000000E+00 0.  1.
         25    2    1    2    0    0  0.11118226435E+02  0.17335876612E+02  0.16170335634E+04  0.16219953976E+04  0.12508947655E+03 0.  0.
         23    2    1    2    0    0 -0.11118226435E+02 -0.17335876612E+02  0.26823036832E+03  0.27669857993E+03  0.64733500378E+02 0.  0.
          5    1    3    3  502    0 -0.30586543790E+01 -0.44386551575E+02  0.11247555027E+04  0.11256428983E+04  0.41800000000E+01 0.  1.
         -5    1    3    3    0  502  0.14176880814E+02  0.61722428186E+02  0.49227806072E+03  0.49635249929E+03  0.41800000000E+01 0.  1.
        -11    1    4    4    0    0 -0.37329275697E+02 -0.12224149429E+02  0.19053974271E+03  0.19454639089E+03  0.00000000000E+00 0.  1.
         11    1    4    4    0    0  0.26211049262E+02 -0.51117271825E+01  0.77690625605E+02  0.82152189046E+02  0.00000000000E+00 0. -1.
</event>
<event>
 8    1  0.6627806E-009  0.1209834E+03  0.7561462E-02  0.1241484E+00
         -1   -1    0    0    0  501 -0.00000000000E+00  0.00000000000E+00  0.30213816450E+02  0.30213816450E+02  0.00000000000E+00 0.  1.
          1   -1    0    0  501    0  0.00000000000E+00 -0.00000000000E+00 -0.54708589150E+03  0.54708589150E+03  0.00000000000E+00 0. -1.
         25    2    1    2    0    0  0.52851599434E+02 -0.43257728111E+02 -0.25505242841E+03  0.29217017398E+03  0.12508855551E+03 0.  0.
         23    2    1    2    0    0 -0.52851599434E+02  0.43257728111E+02 -0.26181964664E+03  0.28512953397E+03  0.89915522424E+02 0.  0.
          5    1    3    3  502    0  0.72458036480E+01  0.42125097008E+02 -0.54059158811E+02  0.69042671731E+02  0.41800000000E+01 0.  1.
         -5    1    3    3    0  502  0.45605795786E+02 -0.85382825119E+02 -0.20099326960E+03  0.22312750225E+03  0.41800000000E+01 0.  1.
        -11    1    4    4    0    0 -0.24071274603E+02 -0.20857759983E+02 -0.33440668241E+02  0.46181713967E+02  0.00000000000E+00 0.  1.
         11    1    4    4    0    0 -0.28780324832E+02  0.64115488094E+02 -0.22837897840E+03  0.23894782001E+03  0.00000000000E+00 0. -1.
</event>
<event>
 7    1  0.6627806E-009  0.1163063E+03  0.7561462E-02  0.1249318E+00
          1   -1    0    0  501    0  0.00000000000E+00  0.00000000000E+00  0.19539301525E+04  0.19539301525E+04  0.00000000000E+00 0. -1.
         -1   -1    0    0    0  501 -0.00000000000E+00 -0.00000000000E+00 -0.13348513401E+02  0.13348513401E+02  0.00000000000E+00 0.  1.
         25    2    1    2    0    0 -0.56376712250E+02  0.83651511827E+02  0.16179210771E+04  0.16258816886E+04  0.12508694715E+03 0.  0.
          5    1    3    3  502    0  0.17228415764E+02  0.14353926388E+02  0.53090468241E+02  0.57783420897E+02  0.41800000000E+01 0.  1.
         -5    1    3    3    0  502 -0.73605128014E+02  0.69297585440E+02  0.15648306089E+04  0.15680982677E+04  0.41800000000E+01 0.  1.
        -11    1    1    2    0    0  0.37885906386E+02 -0.21037551947E+02  0.92357111349E+02  0.10201841261E+03  0.00000000000E+00 0.  1.
         11    1    1    2    0    0  0.18490805864E+02 -0.62613959881E+02  0.23030345066E+03  0.23937856474E+03  0.00000000000E+00 0. -1.
</event>
<event>
 8    1  0.6627806E-009  0.1397786E+03  0.7561462E-02  0.1213627E+00
          2   -1    0    0  501    0  0.00000000000E+00  0.00000000000E+00  0.21103844603E+03  0.21103844603E+03  0.00000000000E+00 0. -1.
         -2   -1    0    0    0  501 -0.00000000000E+00 -0.00000000000E+00 -0.13036304655E+03  0.13036304655E+03  0.00000000000E+00 0.  1.
         25    2    1    2    0    0 -0.60011402147E+02 -0.88022072596E+02 -0.25373246689E+02  0.16625524021E+03  0.12509096529E+03 0.  0.
         23    2    1    2    0    0  0.60011402147E+02  0.88022072596E+02  0.10604864617E+03  0.17514625238E+03  0.89892384073E+02 0.  0.
          5    1    3    3  502    0  0.19351269496E+02 -0.74153076826E+02 -0.36198483083E+02  0.84858429230E+02  0.41800000000E+01 0. -1.
         -5    1    3    3    0  502 -0.79362671643E+02 -0.13868995770E+02  0.10825236395E+02  0.81396810976E+02  0.41800000000E+01 0. -1.
        -11    1    4    4    0    0  0.35064248529E+02  0.90507527549E+02  0.40877053219E+02  0.10531879010E+03  0.00000000000E+00 0. -1.
         11    1    4    4    0    0  0.24947153618E+02 -0.24854549527E+01  0.65171592954E+02  0.69827462278E+02  0.00000000000E+00 0.  1.
</event>
<event>
 8    1  0.6627806E-009  0.1625235E+03  0.7561462E-02  0.1185877E+00
         -2   -1    0    0    0  501 -0.00000000000E+00  0.00000000000E+00  0.26124913920E+02  0.26124913920E+02  0.00000000000E+00 0.  1.
          2   -1    0    0  501    0  0.00000000000E+00 -0.00000000000E+00 -0.10981409304E+04  0.10981409304E+04  0.00000000000E+00 0. -1.
         25    2    1    2    0    0  0.38627879879E+02 -0.11821978236E+03 -0.69381393354E+03  0.71588645804E+03  0.12509043282E+03 0.  0.
         23    2    1    2    0    0 -0.38627879879E+02  0.11821978236E+03 -0.37820208298E+03  0.40837938633E+03  0.90933368786E+02 0.  0.
          5    1    3    3  502    0  0.10005737350E+02 -0.13837959637E+03 -0.59483916435E+03  0.61081922966E+03  0.41800000000E+01 0. -1.
         -5    1    3    3    0  502  0.28622142529E+02  0.20159814009E+02 -0.98974769191E+02  0.10506722838E+03  0.41800000000E+01 0. -1.
        -11    1    4    4    0    0 -0.18881657044E+02 -0.99228239527E+01 -0.87704063340E+02  0.90260634466E+02  0.00000000000E+00 0. -1.
         11    1    4    4    0    0 -0.19746222835E+02  0.12814260631E+03 -0.29049801964E+03  0.31811875186E+03  0.00000000000E+00 0.  1.
</event>
<event>
 8    1  0.6627806E-009  0.1051273E+03  0.7561462E-02  0.1269869E+00
         -2   -1    0    0    0  501 -0.00000000000E+00  0.00000000000E+00  0.13811613935E+03  0.13811613935E+03  0.00000000000E+00 0.  1.
          2   -1    0    0  501    0  0.00000000000E+00 -0.00000000000E+00 -0.99685233522E+02  0.99685233522E+02  0.00000000000E+00 0. -1.
         25    2    1    2    0    0  0.40988880032E+02  0.10829230408E+02  0.27234687661E+02  0.13486250437E+03  0.12509518918E+03 0.  0.
         23    2    1    2    0    0 -0.40988880032E+02 -0.10829230408E+02  0.11196218171E+02  0.10293886851E+03  0.93132673271E+02 0.  0.
          5    1    3    3  502    0  0.18148095123E+02  0.65463905915E+02 -0.32291965270E+01  0.68137922220E+02  0.41800000000E+01 0. -1.
         -5    1    3    3    0  502  0.22840784909E+02 -0.54634675507E+02  0.30463884188E+02  0.66724582149E+02  0.41800000000E+01 0. -1.
        -11    1    4    4    0    0 -0.17283426584E+02 -0.40979671638E+02  0.36037807098E+02  0.57243111921E+02  0.00000000000E+00 0. -1.
         11    1    4    4    0    0 -0.23705453448E+02  0.30150441230E+02 -0.24841588926E+02  0.45695756586E+02  0.00000000000E+00 0.  1.
</event>
<event>
 8    1  0.6627806E-009  0.1283545E+03  0.7561462E-02  0.1229918E+00
         -2   -1    0    0    0  501 -0.00000000000E+00  0.00000000000E+00  0.10596405707E+02  0.10596405707E+02  0.00000000000E+00 0.  1.
          2   -1    0    0  501    0  0.00000000000E+00 -0.00000000000E+00 -0.21896955030E+04  0.21896955030E+04  0.00000000000E+00 0. -1.
         25    2    1    2    0    0 -0.35072361528E+02  0.63550403248E+02 -0.17454687128E+04  0.17514504705E+04  0.12509595997E+03 0.  0.
         23    2    1    2    0    0  0.35072361528E+02 -0.63550403248E+02 -0.43363038449E+03  0.44884143813E+03  0.90302834596E+02 0.  0.
          5    1    3    3  502    0  0.45459603945E+01 -0.35165806558E+02 -0.59379255392E+03  0.59486500082E+03  0.41800000000E+01 0. -1.
         -5    1    3    3    0  502 -0.39618321923E+02  0.98716209806E+02 -0.11516761589E+04  0.11565854697E+04  0.41800000000E+01 0. -1.
        -11    1    4    4    0    0  0.61326031985E+02 -0.21510622382E+02 -0.21205549022E+03  0.22179071218E+03  0.00000000000E+00 0.  1.
         11    1    4    4    0    0 -0.26253670456E+02 -0.42039780866E+02 -0.22157489427E+03  0.22705072595E+03  0.00000000000E+00 0. -1.
</event>
<event>
 8    1  0.6627806E-009  0.1323935E+03  0.7561462E-02  0.1223947E+00
          2   -1    0    0  501    0  0.00000000000E+00  0.00000000000E+00  0.17333224561E+03  0.17333224561E+03  0.00000000000E+00 0.  1.
         -2   -1    0    0    0  501 -0.00000000000E+00 -0.00000000000E+00 -0.13106629701E+03  0.13106629701E+03  0.00000000000E+00 0. -1.
         25    2    1    2    0    0 -0.15002958042E+02 -0.10173325806E+03  0.26260820251E+02  0.16405330797E+03  0.12509641334E+03 0.  0.
         23    2    1    2    0    0  0.15002958042E+02  0.10173325806E+03  0.16005128348E+02  0.14034523465E+03  0.94158781906E+02 0.  0.
          5    1    3    3  502    0  0.11259646501E+02  0.27376156193E+02  0.82227966095E+01  0.31005166526E+02  0.41800000000E+01 0. -1.
         -5    1    3    3    0  502 -0.26262604543E+02 -0.12910941425E+03  0.18038023642E+02  0.13304814145E+03  0.41800000000E+01 0. -1.
        -11    1    4    4    0    0  0.74060742434E+01  0.72159081669E+02  0.54846270805E+02  0.90938970877E+02  0.00000000000E+00 0.  1.
         11    1    4    4    0    0  0.75968837986E+01  0.29574176388E+02 -0.38841142456E+02  0.49406263771E+02  0.00000000000E+00 0. -1.
</event>
<event>
 8    1  0.6627806E-009  0.9717463E+02  0.7561462E-02  0.1286352E+00
          1   -1    0    0  501    0  0.00000000000E+00  0.00000000000E+00  0.76619307141E+02  0.76619307141E+02  0.00000000000E+00 0. -1.
         -1   -1    0    0    0  501 -0.00000000000E+00 -0.00000000000E+00 -0.17081150840E+03  0.17081150840E+03  0.00000000000E+00 0.  1.
         25    2    1    2    0    0 -0.19847117658E+02  0.30487959138E+02 -0.70003500401E+02  0.14789085720E+03  0.12509113415E+03 0.  0.
         23    2    1    2    0    0  0.19847117658E+02 -0.30487959138E+02 -0.24188700861E+02  0.99539958344E+02  0.89440965593E+02 0.  0.
          5    1    3    3  502    0 -0.44832746413E+02 -0.13828806037E+02  0.14397240074E+02  0.49254075457E+02  0.41800000000E+01 0. -1.
         -5    1    3    3    0  502  0.24985628755E+02  0.44316765175E+02 -0.84400740475E+02  0.98636781743E+02  0.41800000000E+01 0. -1.
        -11    1    4    4    0    0  0.53489795446E+02 -0.32340200857E+02 -0.19766820538E+02  0.65557409974E+02  0.00000000000E+00 0.  1.
         11    1    4    4    0    0 -0.33642677788E+02  0.18522417195E+01 -0.44218803226E+01  0.33982548370E+02  0.00000000000E+00 0. -1.
</event>
<event>
 8    1  0.6627806E-009  0.8374658E+02  0.7561462E-02  0.1318743E+00
         -2   -1    0    0    0  501 -0.00000000000E+00  0.00000000000E+00  0.13178067143E+02  0.13178067143E+02  0.00000000000E+00 0. -1.
          2   -1    0    0  501    0  0.00000000000E+00 -0.00000000000E+00 -0.10562113198E+04  0.10562113198E+04  0.00000000000E+00 0.  1.
         25    2    1    2    0    0  0.25696163942E+02  0.53627701063E+00 -0.77236968479E+03  0.78285651757E+03  0.12509523044E+03 0.  0.
         23    2    1    2    0    0 -0.25696163942E+02 -0.53627701063E+00 -0.27066356787E+03  0.28653286938E+03  0.90452959204E+02 0.  0.
          5    1    3    3  502    0  0.39807111266E+02 -0.38345755042E+02 -0.67110046331E+03  0.67338570470E+03  0.41800000000E+01 0.  1.
         -5    1    3    3    0  502 -0.14110947324E+02  0.38882032053E+02 -0.10126922148E+03  0.10947081287E+03  0.41800000000E+01 0.  1.
        -11    1    4    4    0    0 -0.46798996974E+02  0.84446308480E+01 -0.25340931600E+03  0.25783277399E+03  0.00000000000E+00 0.  1.
         11    1    4    4    0    0  0.21102833031E+02 -0.89809078586E+01 -0.17254251876E+02  0.28700095396E+02  0.00000000000E+00 0. -1.
</event>
<event>
 8    1  0.6627806E-009  0.1289260E+03  0.7561462E-02  0.1229058E+00
         -2   -1    0    0    0  501 -0.00000000000E+00  0.00000000000E+00  0.29200602912E+02  0.29200602912E+02  0.00000000000E+00 0.  1.
          2   -1    0    0  501    0  0.00000000000E+00 -0.00000000000E+00 -0.95662990543E+03  0.95662990543E+03  0.00000000000E+00 0. -1.
         25    2    1    2    0    0  0.59199868899E+02 -0.87132093163E+02 -0.28424224965E+03  0.32793514779E+03  0.12510467031E+03 0.  0.
         23    2    1    2    0    0 -0.59199868899E+02  0.87132093163E+02 -0.64318705287E+03  0.65789536056E+03  0.89666573045E+02 0.  0.
          5    1    3    3  502    0  0.52827877126E+02 -0.16816912419E+02 -0.28271005306E+02  0.62372392017E+02  0.41800000000E+01 0.  1.
         -5    1    3    3    0  502  0.63719917729E+01 -0.70315180744E+02 -0.25597124434E+03  0.26556275577E+03  0.41800000000E+01 0.  1.
        -11    1    4    4    0    0  0.19635094256E+02  0.19189671435E+02 -0.67381569745E+02  0.72760266338E+02  0.00000000000E+00 0. -1.
         11    1    4    4    0    0 -0.78834963155E+02  0.67942421728E+02 -0.57580548313E+03  0.58513509422E+03  0.00000000000E+00 0.  1.
</event>
<event>
 8    1  0.6627806E-009  0.1130208E+03  0.7561462E-02  0.1255076E+00
         -4   -1    0    0    0  501 -0.00000000000E+00  0.00000000000E+00  0.27450420481E+03  0.27450420481E+03  0.00000000000E+00 0.  1.
          4   -1    0    0  501    0  0.00000000000E+00 -0.00000000000E+00 -0.94074056345E+02  0.94074056345E+02  0.00000000000E+00 0. -1.
         25    2    1    2    0    0 -0.16074835671E+02  0.11023764076E+03  0.50878343919E+02  0.17506524920E+03  0.12509395596E+03 0.  0.
         23    2    1    2    0    0  0.16074835671E+02 -0.11023764076E+03  0.12955180454E+03  0.19351301195E+03  0.90845351846E+02 0.  0.
          5    1    3    3  502    0 -0.64404774428E+01  0.98791579476E+02  0.89444601181E+02  0.13348807065E+03  0.41800000000E+01 0.  1.
         -5    1    3    3    0  502 -0.96343582279E+01  0.11446061280E+02 -0.38566257262E+02  0.41577178554E+02  0.41800000000E+01 0.  1.
        -11    1    4    4    0    0  0.64018249782E+01 -0.50126992199E+02  0.12213792003E+03  0.13217931086E+03  0.00000000000E+00 0.  1.
         11    1    4    4    0    0  0.96730106925E+01 -0.60110648558E+02  0.74138845141E+01  0.61333701091E+02  0.00000000000E+00 0. -1.
</event>
<event>
 8    1  0.6627806E-009  0.1153617E+03  0.7561462E-02  0.1250951E+00
         -4   -1    0    0    0  501 -0.00000000000E+00  0.00000000000E+00  0.36616696866E+03  0.36616696866E+03  0.00000000000E+00 0.  1.
          4   -1    0    0  501    0  0.00000000000E+00 -0.00000000000E+00 -0.55537672733E+02  0.55537672733E+02  0.00000000000E+00 0. -1.
         25    2    1    2    0    0  0.23772655559E+02  0.78689049799E+02  0.22777951030E+03  0.27256240704E+03  0.12509857995E+03 0.  0.
         23    2    1    2    0    0 -0.23772655559E+02 -0.78689049799E+02  0.82849785622E+02  0.14914223435E+03  0.92855874233E+02 0.  0.
          5    1    3    3  502    0 -0.32384742248E+02  0.32496421345E+01  0.84526710167E+01  0.33885863598E+02  0.41800000000E+01 0.  1.
         -5    1    3    3    0  502  0.56157397807E+02  0.75439407664E+02  0.21932683929E+03  0.23867654344E+03  0.41800000000E+01 0.  1.
        -11    1    4    4    0    0  0.15858994609E+02 -0.55784733799E+02  0.85474948256E+02  0.10329284106E+03  0.00000000000E+00 0.  1.
         11    1    4    4    0    0 -0.39631650167E+02 -0.22904315999E+02 -0.26251626338E+01  0.45849393292E+02  0.00000000000E+00 0. -1.
</event>
<event>
 8    1  0.6627806E-009  0.2160247E+03  0.7561462E-02  0.1136882E+00
          4   -1    0    0  501    0  0.00000000000E+00  0.00000000000E+00  0.79086942024E+03  0.79086942024E+03  0.00000000000E+00 0. -1.
         -4   -1    0    0    0  501 -0.00000000000E+00 -0.00000000000E+00 -0.65555864724E+02  0.65555864724E+02  0.00000000000E+00 0.  1.
         25    2    1    2    0    0  0.12509338159E+02 -0.19956329025E+03  0.35304285515E+03  0.42457997627E+03  0.12508760261E+03 0.  0.
         23    2    1    2    0    0 -0.12509338159E+02  0.19956329025E+03  0.37227070037E+03  0.43184530869E+03  0.89010706822E+02 0.  0.
          5    1    3    3  502    0  0.17403872374E+02  0.84748543321E+01  0.74672978312E+01  0.21164849786E+02  0.41800000000E+01 0. -1.
         -5    1    3    3    0  502 -0.48945342152E+01 -0.20803814458E+03  0.34557555732E+03  0.40341512649E+03  0.41800000000E+01 0. -1.
        -11    1    4    4    0    0  0.15037176696E+02  0.60320203909E+02  0.50271647288E+02  0.79949247674E+02  0.00000000000E+00 0.  1.
         11    1    4    4    0    0 -0.27546514855E+02  0.13924308634E+03  0.32199905308E+03  0.35189606101E+03  0.00000000000E+00 0. -1.
</event>
<event>
 8    1  0.6627806E-009  0.9574962E+02  0.7561462E-02  0.1289497E+00
         -1   -1    0    0    0  501 -0.00000000000E+00  0.00000000000E+00  0.32269707340E+02  0.32269707340E+02  0.00000000000E+00 0.  1.
          1   -1    0    0  501    0  0.00000000000E+00 -0.00000000000E+00 -0.51520064240E+03  0.51520064240E+03  0.00000000000E+00 0. -1.
         25    2    1    2    0    0  0.68135681015E+02 -0.21934250268E+02 -0.26607352094E+03  0.30259903026E+03  0.12508985654E+03 0.  0.
         23    2    1    2    0    0 -0.68135681015E+02  0.21934250268E+02 -0.21685741412E+03  0.24487131948E+03  0.88381234887E+02 0.  0.
          5    1    3    3  502    0  0.54757074110E+02 -0.40571637110E+01 -0.25030600896E+02  0.60488024630E+02  0.41800000000E+01 0. -1.
         -5    1    3    3    0  502  0.13378606905E+02 -0.17877086557E+02 -0.24104292004E+03  0.24211100563E+03  0.41800000000E+01 0. -1.
        -11    1    4    4    0    0 -0.89309841256E+02  0.23896518133E+02 -0.17783405964E+03  0.20043014767E+03  0.00000000000E+00 0. -1.
         11    1    4    4    0    0  0.21174160241E+02 -0.19622678657E+01 -0.39023354479E+02  0.44441171811E+02  0.00000000000E+00 0.  1.
</event>
<event>
 8    1  0.6627806E-009  0.9615237E+02  0.7561462E-02  0.1288602E+00
         -1   -1    0    0    0  501 -0.00000000000E+00  0.00000000000E+00  0.59911513447E+02  0.59911513447E+02  0.00000000000E+00 0.  1.
          1   -1    0    0  501    0  0.00000000000E+00 -0.00000000000E+00 -0.31839974926E+03  0.31839974926E+03  0.00000000000E+00 0. -1.
         25    2    1    2    0    0 -0.64379276900E+02 -0.16966082680E+02 -0.21785893444E+03  0.25988961842E+03  0.12509020422E+03 0.  0.
         23    2    1    2    0    0  0.64379276900E+02  0.16966082680E+02 -0.40629301369E+02  0.11842164428E+03  0.89108958299E+02 0.  0.
          5    1    3    3  502    0 -0.73622363825E+02  0.10120361544E+02 -0.50257409081E+02  0.89810654939E+02  0.41800000000E+01 0. -1.
         -5    1    3    3    0  502  0.92430869257E+01 -0.27086444224E+02 -0.16760152536E+03  0.17007896348E+03  0.41800000000E+01 0. -1.
        -11    1    4    4    0    0 -0.11299539182E+02 -0.38628329097E+00 -0.39165924104E+02  0.40765161737E+02  0.00000000000E+00 0. -1.
         11    1    4    4    0    0  0.75678816082E+02  0.17352365971E+02 -0.14633772653E+01  0.77656482546E+02  0.00000000000E+00 0.  1.
</event>
<event>
 8    1  0.6627806E-009  0.1026404E+03  0.7561462E-02  0.1274839E+00
         -2   -1    0    0    0  501 -0.00000000000E+00  0.00000000000E+00  0.38230670024E+02  0.38230670024E+02  0.00000000000E+00 0.  1.
          2   -1    0    0  501    0  0.00000000000E+00 -0.00000000000E+00 -0.33200579286E+03  0.33200579286E+03  0.00000000000E+00 0. -1.
         25    2    1    2    0    0  0.25038074856E+02  0.22387171679E+02 -0.19381978546E+03  0.23311270493E+03  0.12508930135E+03 0.  0.
         23    2    1    2    0    0 -0.25038074856E+02 -0.22387171679E+02 -0.99955337375E+02  0.13712375796E+03  0.87657086871E+02 0.  0.
          5    1    3    3  502    0  0.66387160404E+02 -0.14410588039E+02 -0.71116309983E+02  0.98437401732E+02  0.41800000000E+01 0. -1.
         -5    1    3    3    0  502 -0.41349085548E+02  0.36797759718E+02 -0.12270347548E+03  0.13467530320E+03  0.41800000000E+01 0. -1.
        -11    1    4    4    0    0  0.20961915502E+02 -0.28421714374E+02 -0.78358618463E+02  0.85949222433E+02  0.00000000000E+00 0. -1.
         11    1    4    4    0    0 -0.45999990358E+02  0.60345426945E+01 -0.21596718913E+02  0.51174535526E+02  0.00000000000E+00 0.  1.
</event>
<event>
 8    1  0.6627806E-009  0.1687095E+03  0.7561462E-02  0.1179200E+00
         -2   -1    0    0    0  501 -0.00000000000E+00  0.00000000000E+00  0.11133902014E+04  0.11133902014E+04  0.00000000000E+00 0.  1.
          2   -1    0    0  501    0  0.00000000000E+00 -0.00000000000E+00 -0.27492515884E+02  0.27492515884E+02  0.00000000000E+00 0. -1.
         25    2    1    2    0    0 -0.81699868021E+02 -0.10916250135E+03  0.64021266407E+03  0.66641659709E+03  0.12508998966E+03 0.  0.
         23    2    1    2    0    0  0.81699868021E+02  0.10916250135E+03  0.44568502149E+03  0.47446612023E+03  0.88834907164E+02 0.  0.
          5    1    3    3  502    0 -0.35778343836E+02 -0.12952614171E+03  0.45195837109E+03  0.47153043684E+03  0.41800000000E+01 0. -1.
         -5    1    3    3    0  502 -0.45921524185E+02  0.20363640353E+02  0.18825429298E+03  0.19488616025E+03  0.41800000000E+01 0. -1.
        -11    1    4    4    0    0  0.81445535540E+02  0.54706842730E+02  0.35839955951E+03  0.37158640739E+03  0.00000000000E+00 0.  1.
         11    1    4    4    0    0  0.25433248080E+00  0.54455658622E+02  0.87285461977E+02  0.10287971284E+03  0.00000000000E+00 0. -1.
</event>
<event>
 8    1  0.6627806E-009  0.1427290E+03  0.7561462E-02  0.1209703E+00
         -2   -1    0    0    0  501 -0.00000000000E+00  0.00000000000E+00  0.13435413524E+02  0.13435413524E+02  0.00000000000E+00 0.  1.
          2   -1    0    0  501    0  0.00000000000E+00 -0.00000000000E+00 -0.16078322401E+04  0.16078322401E+04  0.00000000000E+00 0. -1.
         25    2    1    2    0    0  0.14507939660E+02 -0.92288540172E+02 -0.10149974586E+04  0.10269346311E+04  0.12508893112E+03 0.  0.
         23    2    1    2    0    0 -0.14507939660E+02  0.92288540172E+02 -0.57939936799E+03  0.59433302251E+03  0.93810761942E+02 0.  0.
          5    1    3    3  502    0 -0.40699920533E+02  0.74501740732E+01 -0.23758853871E+03  0.24120069393E+03  0.41800000000E+01 0. -1.
         -5    1    3    3    0  502  0.55207860193E+02 -0.99738714246E+02 -0.77740891990E+03  0.78573393721E+03  0.41800000000E+01 0. -1.
        -11    1    4    4    0    0 -0.48513716626E+02  0.25403026806E+02 -0.30410154075E+03  0.30899294743E+03  0.00000000000E+00 0.  1.
         11    1    4    4    0    0  0.34005776967E+02  0.66885513366E+02 -0.27529782723E+03  0.28534007508E+03  0.00000000000E+00 0. -1.
</event>
<event>
 8    1  0.6627806E-009  0.1288207E+03  0.7561462E-02  0.1229216E+00
         -1   -1    0    0    0  501 -0.00000000000E+00  0.00000000000E+00  0.70919946091E+02  0.70919946091E+02  0.00000000000E+00 0.  1.
          1   -1    0    0  501    0  0.00000000000E+00 -0.00000000000E+00 -0.32423965815E+03  0.32423965815E+03  0.00000000000E+00 0. -1.
         25    2    1    2    0    0 -0.74423706025E+02  0.71585657581E+02 -0.10907219019E+03  0.19546827008E+03  0.12509079720E+03 0.  0.
         23    2    1    2    0    0  0.74423706025E+02 -0.71585657581E+02 -0.14424752187E+03  0.19969133416E+03  0.91683624410E+02 0.  0.
          5    1    3    3  502    0 -0.99874499744E+02  0.42551448320E+02 -0.11260775327E+03  0.15647210598E+03  0.41800000000E+01 0. -1.
         -5    1    3    3    0  502  0.25450793719E+02  0.29034209262E+02  0.35355630734E+01  0.38996164101E+02  0.41800000000E+01 0. -1.
        -11    1    4    4    0    0  0.22132856357E+02 -0.47885530988E+02 -0.13035295805E+03  0.14062283271E+03  0.00000000000E+00 0. -1.
         11    1    4    4    0    0  0.52290849669E+02 -0.23700126593E+02 -0.13894563817E+02  0.59068501448E+02  0.00000000000E+00 0.  1.
</event>
<event>
 8    1  0.6627806E-009  0.1070761E+03  0.7561462E-02  0.1266082E+00
          1   -1    0    0  501    0  0.00000000000E+00  0.00000000000E+00  0.40858553067E+02  0.40858553067E+02  0.00000000000E+00 0. -1.
         -1   -1    0    0    0  501 -0.00000000000E+00 -0.00000000000E+00 -0.33833750058E+03  0.33833750058E+03  0.00000000000E+00 0.  1.
         25    2    1    2    0    0  0.30395763227E+01 -0.46260574850E+02 -0.17600169056E+03  0.22084728226E+03  0.12509055597E+03 0.  0.
         23    2    1    2    0    0 -0.30395763227E+01  0.46260574850E+02 -0.12147725696E+03  0.15834877139E+03  0.90378811861E+02 0.  0.
          5    1    3    3  502    0  0.85705784344E+01  0.42370917973E+02 -0.71381985419E+02  0.83556027592E+02  0.41800000000E+01 0.  1.
         -5    1    3    3    0  502 -0.55310021117E+01 -0.88631492824E+02 -0.10461970514E+03  0.13729125467E+03  0.41800000000E+01 0.  1.
        -11    1    4    4    0    0 -0.20144529904E+02  0.57784152734E+02 -0.37266520481E+02  0.71649172648E+02  0.00000000000E+00 0. -1.
         11    1    4    4    0    0  0.17104953581E+02 -0.11523577884E+02 -0.84210736480E+02  0.86699598746E+02  0.00000000000E+00 0.  1.
</event>
<event>
 8    1  0.6627806E-009  0.1452173E+03  0.7561462E-02  0.1206476E+00
          1   -1    0    0  501    0  0.00000000000E+00  0.00000000000E+00  0.52592931901E+03  0.52592931901E+03  0.00000000000E+00 0. -1.
         -1   -1    0    0    0  501 -0.00000000000E+00 -0.00000000000E+00 -0.47989831626E+02  0.47989831626E+02  0.00000000000E+00 0.  1.
         25    2    1    2    0    0 -0.30414785695E+02  0.11265206373E+03  0.25164900261E+03  0.30429421977E+03  0.12510877276E+03 0.  0.
         23    2    1    2    0    0  0.30414785695E+02 -0.11265206373E+03  0.22629048478E+03  0.26962493087E+03  0.88739355377E+02 0.  0.
          5    1    3    3  502    0 -0.38213267454E+02  0.12600580941E+03  0.25581365050E+03  0.28774261763E+03  0.41800000000E+01 0. -1.
         -5    1    3    3    0  502  0.77984817586E+01 -0.13353745680E+02 -0.41646478965E+01  0.16551602144E+02  0.41800000000E+01 0. -1.
        -11    1    4    4    0    0  0.43004346933E+02 -0.17069338228E+02  0.46384319473E+02  0.65515198662E+02  0.00000000000E+00 0.  1.
         11    1    4    4    0    0 -0.12589561237E+02 -0.95582725502E+02  0.17990616531E+03  0.20410973221E+03  0.00000000000E+00 0. -1.
</event>
<event>
 8    1  0.6627806E-009  0.9300604E+02  0.7561462E-02  0.1295731E+00
          1   -1    0    0  501    0  0.00000000000E+00  0.00000000000E+00  0.56345259632E+03  0.56345259632E+03  0.00000000000E+00 0. -1.
         -1   -1    0    0    0  501 -0.00000000000E+00 -0.00000000000E+00 -0.21874077874E+02  0.21874077874E+02  0.00000000000E+00 0.  1.
         25    2    1    2    0    0 -0.31168853549E+02 -0.20210666737E+02  0.35304046449E+03  0.37638380144E+03  0.12508888016E+03 0.  0.
         23    2    1    2    0    0  0.31168853549E+02  0.20210666737E+02  0.18853805395E+03  0.20894287275E+03  0.82039976852E+02 0.  0.
          5    1    3    3  502    0 -0.35017474986E+01 -0.55706263063E+02  0.69371380573E+02  0.89136473021E+02  0.41800000000E+01 0. -1.
         -5    1    3    3    0  502 -0.27667106050E+02  0.35495596326E+02  0.28366908392E+03  0.28724732842E+03  0.41800000000E+01 0. -1.
        -11    1    4    4    0    0  0.56427727304E+02  0.19047092152E+02  0.95657946649E+02  0.11268239829E+03  0.00000000000E+00 0.  1.
         11    1    4    4    0    0 -0.25258873755E+02  0.11635745841E+01  0.92880107304E+02  0.96260474453E+02  0.00000000000E+00 0. -1.
</event>
<event>
 8    1  0.6627806E-009  0.1172361E+03  0.7561462E-02  0.1247728E+00
         -2   -1    0    0    0  501 -0.00000000000E+00  0.00000000000E+00  0.45915096765E+03  0.45915096765E+03  0.00000000000E+00 0.  1.
          2   -1    0    0  501    0  0.00000000000E+00 -0.00000000000E+00 -0.52423625516E+02  0.52423625516E+02  0.00000000000E+00 0. -1.
         25    2    1    2    0    0  0.58538811329E+02 -0.75707768241E+02  0.12541057562E+03  0.20132910698E+03  0.12508852161E+03 0.  0.
         23    2    1    2    0    0 -0.58538811329E+02  0.75707768241E+02  0.28131676652E+03  0.31024548618E+03  0.89189012611E+02 0.  0.
          5    1    3    3  502    0  0.69479589523E+02 -0.20635693813E+02  0.10485482996E+02  0.73353002481E+02  0.41800000000E+01 0. -1.
         -5    1    3    3    0  502 -0.10940778194E+02 -0.55072074428E+02  0.11492509262E+03  0.12797610450E+03  0.41800000000E+01 0. -1.
        -11    1    4    4    0    0 -0.61243110255E+02  0.48219140318E+02  0.26888533376E+03  0.27995557998E+03  0.00000000000E+00 0.  1.
         11    1    4    4    0    0  0.27042989261E+01  0.27488627923E+02  0.12431432752E+02  0.30289906207E+02  0.00000000000E+00 0. -1.
</event>
<event>
 8    1  0.6627806E-009  0.1072689E+03  0.7561462E-02  0.1265713E+00
          1   -1    0    0  501    0  0.00000000000E+00  0.00000000000E+00  0.45135167443E+02  0.45135167443E+02  0.00000000000E+00 0. -1.
         -1   -1    0    0    0  501 -0.00000000000E+00 -0.00000000000E+00 -0.31488900884E+03  0.31488900884E+03  0.00000000000E+00 0.  1.
         25    2    1    2    0    0 -0.22569413399E+02  0.35491801851E+02 -0.11070233615E+03  0.17225545729E+03  0.12509152217E+03 0.  0.
         23    2    1    2    0    0  0.22569413399E+02 -0.35491801851E+02 -0.15905150525E+03  0.18776871899E+03  0.90502287754E+02 0.  0.
          5    1    3    3  502    0 -0.67100567542E+02  0.32454573241E+02 -0.10230247350E+03  0.12664538670E+03  0.41800000000E+01 0.  1.
         -5    1    3    3    0  502  0.44531154143E+02  0.30372286104E+01 -0.83998626488E+01  0.45610070592E+02  0.41800000000E+01 0.  1.
        -11    1    4    4    0    0 -0.22302483680E+02 -0.44048895401E+02 -0.53743986608E+02  0.72980285426E+02  0.00000000000E+00 0.  1.
         11    1    4    4    0    0  0.44871897079E+02  0.85570935497E+01 -0.10530751864E+03  0.11478843356E+03  0.00000000000E+00 0. -1.
</event>
<event>
 8    1  0.6627806E-009  0.1037200E+03  0.7561462E-02  0.1272662E+00
         -1   -1    0    0    0  501 -0.00000000000E+00  0.00000000000E+00  0.39145030677E+02  0.39145030677E+02  0.00000000000E+00 0.  1.
          1   -1    0    0  501    0  0.00000000000E+00 -0.00000000000E+00 -0.44462028299E+03  0.44462028299E+03  0.00000000000E+00 0. -1.
         25    2    1    2    0    0  0.23650358985E+01  0.67972509585E+02 -0.27382369450E+03  0.30863043881E+03  0.12508987422E+03 0.  0.
         23    2    1    2    0    0 -0.23650358985E+01 -0.67972509585E+02 -0.13165155781E+03  0.17513487486E+03  0.93350073725E+02 0.  0.
          5    1    3    3  502    0  0.76351263960E+01  0.82286973350E+02 -0.83166283602E+02  0.11731813273E+03  0.41800000000E+01 0.  1.
         -5    1    3    3    0  502 -0.52700904974E+01 -0.14314463765E+02 -0.19065741090E+03  0.19131230608E+03  0.41800000000E+01 0.  1.
        -11    1    4    4    0    0  0.40369802653E+02 -0.44645440426E+02 -0.42928079889E+02  0.73930753818E+02  0.00000000000E+00 0.  1.
         11    1    4    4    0    0 -0.42734838552E+02 -0.23327069159E+02 -0.88723477923E+02  0.10120412104E+03  0.00000000000E+00 0. -1.
</event>
<event>
 8    1  0.6627806E-009  0.1528703E+03  0.7561462E-02  0.1196990E+00
         -1   -1    0    0    0  501 -0.00000000000E+00  0.00000000000E+00  0.31805545633E+02  0.31805545633E+02  0.00000000000E+00 0.  1.
          1   -1    0    0  501    0  0.00000000000E+00 -0.00000000000E+00 -0.90944691022E+03  0.90944691022E+03  0.00000000000E+00 0. -1.
         25    2    1    2    0    0 -0.12472742762E+03  0.14827093628E+02 -0.54706266120E+03  0.57506614366E+03  0.12508693138E+03 0.  0.
         23    2    1    2    0    0  0.12472742762E+03 -0.14827093628E+02 -0.33057870339E+03  0.36618631219E+03  0.95044001366E+02 0.  0.
          5    1    3    3  502    0 -0.43824500804E+02  0.48904511834E+02 -0.38615790415E+03  0.39172393019E+03  0.41800000000E+01 0.  1.
         -5    1    3    3    0  502 -0.80902926816E+02 -0.34077418206E+02 -0.16090475705E+03  0.18334221347E+03  0.41800000000E+01 0.  1.
        -11    1    4    4    0    0  0.86088813120E+02 -0.50210657106E+02 -0.16759193890E+03  0.19498577336E+03  0.00000000000E+00 0.  1.
         11    1    4    4    0    0  0.38638614500E+02  0.35383563478E+02 -0.16298676449E+03  0.17120053883E+03  0.00000000000E+00 0. -1.
</event>
<event>
 8    1  0.6627806E-009  0.1538521E+03  0.7561462E-02  0.1195818E+00
          4   -1    0    0  501    0  0.00000000000E+00  0.00000000000E+00  0.83347823336E+02  0.83347823336E+02  0.00000000000E+00 0. -1.
         -4   -1    0    0    0  501 -0.00000000000E+00 -0.00000000000E+00 -0.38578464749E+03  0.38578464749E+03  0.00000000000E+00 0.  1.
         25    2    1    2    0    0 -0.58722395830E+02  0.12375501803E+03 -0.21786029796E+03  0.28613567334E+03  0.12508752885E+03 0.  0.
         23    2    1    2    0    0  0.58722395830E+02 -0.12375501803E+03 -0.84576526195E+02  0.18299679748E+03  0.87011578810E+02 0.  0.
          5    1    3    3  502    0  0.37046821995E+01  0.80567773806E+02 -0.34844025314E+02  0.87957201788E+02  0.41800000000E+01 0.  1.
         -5    1    3    3    0  502 -0.62427078030E+02  0.43187244221E+02 -0.18301627264E+03  0.19817847155E+03  0.41800000000E+01 0.  1.
        -11    1    4    4    0    0  0.71240897917E+02 -0.89147250290E+02 -0.90595760631E+02  0.14570548931E+03  0.00000000000E+00 0.  1.
         11    1    4    4    0    0 -0.12518502086E+02 -0.34607767738E+02  0.60192344359E+01  0.37291308176E+02  0.00000000000E+00 0. -1.
</event>
<event>
 8    1  0.6627806E-009  0.8907742E+02  0.7561462E-02  0.1305101E+00
          2   -1    0    0  501    0  0.00000000000E+00  0.00000000000E+00  0.15111380492E+03  0.15111380492E+03  0.00000000000E+00 0.  1.
         -2   -1    0    0    0  501 -0.00000000000E+00 -0.00000000000E+00 -0.98478681450E+02  0.98478681450E+02  0.00000000000E+00 0. -1.
         25    2    1    2    0    0 -0.10689834805E+01  0.74328542043E+02  0.58557760955E+02  0.15685175622E+03  0.12509031607E+03 0.  0.
         23    2    1    2    0    0  0.10689834805E+01 -0.74328542043E+02 -0.59226374863E+01  0.92740730146E+02  0.55135202052E+02 0.  0.
          5    1    3    3  502    0 -0.79292137431E+01  0.77025844637E+02 -0.18179429811E+02  0.79648083724E+02  0.41800000000E+01 0.  1.
         -5    1    3    3    0  502  0.68602302627E+01 -0.26973025932E+01  0.76737190766E+02  0.77203672499E+02  0.41800000000E+01 0.  1.
        -11    1    4    4    0    0  0.22383403268E+02 -0.10276402364E+02 -0.54890485439E+01  0.25233922432E+02  0.00000000000E+00 0.  1.
         11    1    4    4    0    0 -0.21314419787E+02 -0.64052139679E+02 -0.43358894244E+00  0.67506807714E+02  0.00000000000E+00 0. -1.
</event>
<event>
 8    1  0.6627806E-009  0.1876751E+03  0.7561462E-02  0.1160575E+00
         -2   -1    0    0    0  501 -0.00000000000E+00  0.00000000000E+00  0.51443206129E+03  0.51443206129E+03  0.00000000000E+00 0. -1.
          2   -1    0    0  501    0  0.00000000000E+00 -0.00000000000E+00 -0.10193247988E+03  0.10193247988E+03  0.00000000000E+00 0.  1.
         25    2    1    2    0    0  0.32933649549E+02  0.16870630445E+03  0.35414452470E+03  0.41305158591E+03  0.12508727278E+03 0.  0.
         23    2    1    2    0    0 -0.32933649549E+02 -0.16870630445E+03  0.58355056711E+02  0.20331295526E+03  0.91566384129E+02 0.  0.
          5    1    3    3  502    0  0.35840528163E+02  0.53094726251E+01  0.13382945172E+03  0.13871023216E+03  0.41800000000E+01 0. -1.
         -5    1    3    3    0  502 -0.29068786142E+01  0.16339683182E+03  0.22031507298E+03  0.27434135375E+03  0.41800000000E+01 0. -1.
        -11    1    4    4    0    0 -0.20122502690E+02 -0.30111133724E+02 -0.22217646290E+02  0.42487872333E+02  0.00000000000E+00 0.  1.
         11    1    4    4    0    0 -0.12811146859E+02 -0.13859517072E+03  0.80572703001E+02  0.16082508293E+03  0.00000000000E+00 0. -1.
</event>
<event>
 8    1  0.6627806E-009  0.9010835E+02  0.7561462E-02  0.1302590E+00
         -1   -1    0    0    0  501 -0.00000000000E+00  0.00000000000E+00  0.31717177795E+03  0.31717177795E+03  0.00000000000E+00 0.  1.
          1   -1    0    0  501    0  0.00000000000E+00 -0.00000000000E+00 -0.37994914146E+02  0.37994914146E+02  0.00000000000E+00 0. -1.
         25    2    1    2    0    0  0.83141848640E+01 -0.40033992990E+01  0.13575542329E+03  0.18482834376E+03  0.12508728484E+03 0.  0.
         23    2    1    2    0    0 -0.83141848640E+01  0.40033992990E+01  0.14342144052E+03  0.17033834834E+03  0.91434623851E+02 0.  0.
          5    1    3    3  502    0 -0.33754144346E+02 -0.49869166282E+02  0.47788433078E+02  0.76990147047E+02  0.41800000000E+01 0. -1.
         -5    1    3    3    0  502  0.42068329210E+02  0.45865766983E+02  0.87966990212E+02  0.10783819671E+03  0.41800000000E+01 0. -1.
        -11    1    4    4    0    0  0.24275444309E+02  0.53532951601E+01  0.13414280531E+03  0.13642670992E+03  0.00000000000E+00 0.  1.
         11    1    4    4    0    0 -0.32589629173E+02 -0.13498958610E+01  0.92786352100E+01  0.33911638413E+02  0.00000000000E+00 0. -1.
</event>
<event>
 8    1  0.6627806E-009  0.1177829E+03  0.7561462E-02  0.1246800E+00
          1   -1    0    0  501    0  0.00000000000E+00  0.00000000000E+00  0.34425049571E+03  0.34425049571E+03  0.00000000000E+00 0. -1.
         -1   -1    0    0    0  501 -0.00000000000E+00 -0.00000000000E+00 -0.45522591317E+02  0.45522591317E+02  0.00000000000E+00 0.  1.
         25    2    1    2    0    0 -0.52758673946E+02 -0.10961874495E+01  0.21831014283E+03  0.25708538207E+03  0.12509554710E+03 0.  0.
         23    2    1    2    0    0  0.52758673946E+02  0.10961874495E+01  0.80417761560E+02  0.13268770496E+03  0.91402031541E+02 0.  0.
          5    1    3    3  502    0 -0.45691285830E+02 -0.57917651977E+02  0.89498232297E+02  0.11605840769E+03  0.41800000000E+01 0.  1.
         -5    1    3    3    0  502 -0.70673881160E+01  0.56821464527E+02  0.12881191054E+03  0.14102697438E+03  0.41800000000E+01 0.  1.
        -11    1    4    4    0    0  0.29805452874E+02 -0.44301404988E+02  0.51443597454E+02  0.74144610215E+02  0.00000000000E+00 0. -1.
         11    1    4    4    0    0  0.22953221072E+02  0.45397592438E+02  0.28974164106E+02  0.58543094745E+02  0.00000000000E+00 0.  1.
</event>
<event>
 8    1  0.6627806E-009  0.1543414E+03  0.7561462E-02  0.1195238E+00
         -4   -1    0    0    0  501 -0.00000000000E+00  0.00000000000E+00  0.14234802741E+03  0.14234802741E+03  0.00000000000E+00 0.  1.
          4   -1    0    0  501    0  0.00000000000E+00 -0.00000000000E+00 -0.17914222121E+03  0.17914222121E+03  0.00000000000E+00 0. -1.
         25    2    1    2    0    0  0.86057902312E+02  0.78007748405E+02 -0.32846147501E+02  0.17383107024E+03  0.12508876933E+03 0.  0.
         23    2    1    2    0    0 -0.86057902312E+02 -0.78007748405E+02 -0.39480463002E+01  0.14765917838E+03  0.91084985202E+02 0.  0.
          5    1    3    3  502    0  0.29436850905E+02  0.97118209404E+02  0.71216682135E+01  0.10181682252E+03  0.41800000000E+01 0. -1.
         -5    1    3    3    0  502  0.56621051407E+02 -0.19110460999E+02 -0.39967815714E+02  0.72014247722E+02  0.41800000000E+01 0. -1.
        -11    1    4    4    0    0 -0.90294173199E+02 -0.24532710550E+02  0.26979957733E+01  0.93606467628E+02  0.00000000000E+00 0. -1.
         11    1    4    4    0    0  0.42362708868E+01 -0.53475037855E+02 -0.66460420734E+01  0.54052710754E+02  0.00000000000E+00 0.  1.
</event>
<event>
 8    1  0.6627806E-009  0.8931255E+02  0.7561462E-02  0.1304525E+00
         -1   -1    0    0    0  501 -0.00000000000E+00  0.00000000000E+00  0.96755567735E+02  0.96755567735E+02  0.00000000000E+00 0.  1.
          1   -1    0    0  501    0  0.00000000000E+00 -0.00000000000E+00 -0.16771354885E+03  0.16771354885E+03  0.00000000000E+00 0. -1.
         25    2    1    2    0    0  0.53600599785E+02  0.10655475818E+02 -0.73409577487E+02  0.15499331743E+03  0.12508956359E+03 0.  0.
         23    2    1    2    0    0 -0.53600599785E+02 -0.10655475818E+02  0.24515963665E+01  0.10947579916E+03  0.94828143578E+02 0.  0.
          5    1    3    3  502    0  0.87101816717E+02 -0.11242045802E+01 -0.80335480799E+02  0.11857171748E+03  0.41800000000E+01 0.  1.
         -5    1    3    3    0  502 -0.33501216932E+02  0.11779680398E+02  0.69259033129E+01  0.36421599950E+02  0.41800000000E+01 0.  1.
        -11    1    4    4    0    0 -0.30974925968E+02 -0.11438700112E+02 -0.45634087624E+02  0.56327256744E+02  0.00000000000E+00 0. -1.
         11    1    4    4    0    0 -0.22625673816E+02  0.78322429391E+00  0.48085683991E+02  0.53148542415E+02  0.00000000000E+00 0.  1.
</event>
<event>
 8    1  0.6627806E-009  0.1089422E+03  0.7561462E-02  0.1262541E+00
         -2   -1    0    0    0  501 -0.00000000000E+00  0.00000000000E+00  0.12859628680E+03  0.12859628680E+03  0.00000000000E+00 0.  1.
          2   -1    0    0  501    0  0.00000000000E+00 -0.00000000000E+00 -0.11327316184E+03  0.11327316184E+03  0.00000000000E+00 0. -1.
         25    2    1    2    0    0  0.46744922077E+02  0.20725018502E+02 -0.44212374221E+01  0.13520969093E+03  0.12508996383E+03 0.  0.
         23    2    1    2    0    0 -0.46744922077E+02 -0.20725018502E+02  0.19744362389E+02  0.10665975771E+03  0.91497813833E+02 0.  0.
          5    1    3    3  502    0 -0.32391667865E+02  0.22516591365E+02 -0.32327446332E+02  0.51173755189E+02  0.41800000000E+01 0. -1.
         -5    1    3    3    0  502  0.79136589942E+02 -0.17915728629E+01  0.27906208910E+02  0.84035935746E+02  0.41800000000E+01 0. -1.
        -11    1    4    4    0    0  0.28231717895E+01 -0.44067742009E+02  0.26430884461E+02  0.51463849818E+02  0.00000000000E+00 0.  1.
         11    1    4    4    0    0 -0.49568093867E+02  0.23342723507E+02 -0.66865220726E+01  0.55195907889E+02  0.00000000000E+00 0. -1.
</event>
<event>
 8    1  0.6627806E-009  0.1232147E+03  0.7561462E-02  0.1237886E+00
          2   -1    0    0  501    0  0.00000000000E+00  0.00000000000E+00  0.49619371879E+03  0.49619371879E+03  0.00000000000E+00 0. -1.
         -2   -1    0    0    0  501 -0.00000000000E+00 -0.00000000000E+00 -0.37066251421E+02  0.37066251421E+02  0.00000000000E+00 0.  1.
         25    2    1    2    0    0 -0.79594994517E+02 -0.14113717308E+01  0.29303076622E+03  0.32839958625E+03  0.12506759441E+03 0.  0.
         23    2    1    2    0    0  0.79594994517E+02  0.14113717308E+01  0.16609670115E+03  0.20486038396E+03  0.89678914265E+02 0.  0.
          5    1    3    3  502    0 -0.10942831315E+03  0.87253108401E+01  0.26145764501E+03  0.28359876463E+03  0.41800000000E+01 0. -1.
         -5    1    3    3    0  502  0.29833318632E+02 -0.10136682571E+02  0.31573121214E+02  0.44800821615E+02  0.41800000000E+01 0. -1.
        -11    1    4    4    0    0  0.64649775481E+02 -0.29036955609E+02  0.15278725259E+03  0.16842411590E+03  0.00000000000E+00 0. -1.
         11    1    4    4    0    0  0.14945219036E+02  0.30448327340E+02  0.13309448553E+02  0.36436268067E+02  0.00000000000E+00 0.  1.
</event>
<event>
 7    1  0.6627806E-009  0.4066188E+03  0.7561462E-02  0.1041512E+00
          2   -1    0    0  501    0  0.00000000000E+00  0.00000000000E+00  0.66775292937E+03  0.66775292937E+03  0.00000000000E+00 0. -1.
         -2   -1    0    0    0  501 -0.00000000000E+00 -0.00000000000E+00 -0.38559263824E+03  0.38559263824E+03  0.00000000000E+00 0.  1.
         23    2    1    2    0    0 -0.34908320929E+03 -0.18720070542E+03 -0.16918718557E+03  0.43995383742E+03  0.89620779867E+02 0.  0.
          5    1    1    2  502    0  0.12739864566E+03  0.13518715306E+03  0.17441585521E+03  0.25484180233E+03  0.41800000000E+01 0. -1.
         -5    1    1    2    0  502  0.22168456364E+03  0.52013552354E+02  0.27693162150E+03  0.35854992786E+03  0.41800000000E+01 0. -1.
        -11    1    3    3    0    0 -0.32959413038E+03 -0.16040048976E+03 -0.17520835930E+03  0.40627401721E+03  0.00000000000E+00 0.  1.
         11    1    3    3    0    0 -0.19489078915E+02 -0.26800215656E+02  0.60211737314E+01  0.33679820208E+02  0.00000000000E+00 0. -1.
</event>
<event>
 8    1  0.6627806E-009  0.1207673E+03  0.7561462E-02  0.1241837E+00
          3   -1    0    0  501    0  0.00000000000E+00  0.00000000000E+00  0.12475342212E+03  0.12475342212E+03  0.00000000000E+00 0. -1.
         -3   -1    0    0    0  501 -0.00000000000E+00 -0.00000000000E+00 -0.18574391002E+03  0.18574391002E+03  0.00000000000E+00 0.  1.
         25    2    1    2    0    0 -0.17696916764E+02 -0.82761224279E+02  0.33601926202E+02  0.15472374503E+03  0.12509095381E+03 0.  0.
         23    2    1    2    0    0  0.17696916764E+02  0.82761224279E+02 -0.94592414106E+02  0.15577358710E+03  0.90305506620E+02 0.  0.
          5    1    3    3  502    0  0.52812465754E+02 -0.37551705673E+02  0.15811022620E+01  0.64955826700E+02  0.41800000000E+01 0.  1.
         -5    1    3    3    0  502 -0.70509382518E+02 -0.45209518606E+02  0.32020823940E+02  0.89767918331E+02  0.41800000000E+01 0.  1.
        -11    1    4    4    0    0  0.74608882612E+01  0.82142470303E+02 -0.10986331717E+03  0.13737903312E+03  0.00000000000E+00 0.  1.
         11    1    4    4    0    0  0.10236028503E+02  0.61875397640E+00  0.15270903063E+02  0.18394553987E+02  0.00000000000E+00 0. -1.
</event>
<event>
 8    1  0.6627806E-009  0.1545118E+03  0.7561462E-02  0.1195036E+00
          1   -1    0    0  501    0  0.00000000000E+00  0.00000000000E+00  0.68010449295E+02  0.68010449295E+02  0.00000000000E+00 0. -1.
         -1   -1    0    0    0  501 -0.00000000000E+00 -0.00000000000E+00 -0.44307973825E+03  0.44307973825E+03  0.00000000000E+00 0.  1.
         25    2    1    2    0    0  0.82592680183E+02 -0.10131766676E+03 -0.14881542075E+03  0.23426352461E+03  0.12508616666E+03 0.  0.
         23    2    1    2    0    0 -0.82592680183E+02  0.10131766676E+03 -0.22625386820E+03  0.27682666294E+03  0.91407702179E+02 0.  0.
          5    1    3    3  502    0  0.91262482472E+02 -0.64972863602E+02 -0.39823968627E+02  0.11896946915E+03  0.41800000000E+01 0. -1.
         -5    1    3    3    0  502 -0.86698022895E+01 -0.36344803162E+02 -0.10899145212E+03  0.11529405546E+03  0.41800000000E+01 0. -1.
        -11    1    4    4    0    0 -0.56397771747E+02  0.18150508869E+01 -0.86606816824E+02  0.10336703434E+03  0.00000000000E+00 0. -1.
         11    1    4    4    0    0 -0.26194908436E+02  0.99502615877E+02 -0.13964705138E+03  0.17345962860E+03  0.00000000000E+00 0.  1.
</event>
<event>
 8    1  0.6627806E-009  0.1218475E+03  0.7561462E-02  0.1240080E+00
          3   -1    0    0  501    0  0.00000000000E+00  0.00000000000E+00  0.48140160617E+03  0.48140160617E+03  0.00000000000E+00 0. -1.
         -3   -1    0    0    0  501 -0.00000000000E+00 -0.00000000000E+00 -0.49410550995E+02  0.49410550995E+02  0.00000000000E+00 0.  1.
         25    2    1    2    0    0 -0.92524037361E+02 -0.36339115865E+02  0.29087009642E+03  0.33186456429E+03  0.12508975660E+03 0.  0.
         23    2    1    2    0    0  0.92524037361E+02  0.36339115865E+02  0.14112095875E+03  0.19894759287E+03  0.98913047068E+02 0.  0.
          5    1    3    3  502    0 -0.18959778388E+01 -0.35186536762E+02  0.10241596016E+02  0.36933044692E+02  0.41800000000E+01 0. -1.
         -5    1    3    3    0  502 -0.90628059522E+02 -0.11525791024E+01  0.28062850041E+03  0.29493151960E+03  0.41800000000E+01 0. -1.
        -11    1    4    4    0    0  0.14648189169E+02 -0.17486913774E+02 -0.63746384296E+01  0.23685388204E+02  0.00000000000E+00 0.  1.
         11    1    4    4    0    0  0.77875848193E+02  0.53826029638E+02  0.14749559718E+03  0.17526220467E+03  0.00000000000E+00 0. -1.
</event>
<event>
 8    1  0.6627806E-009  0.1131737E+03  0.7561462E-02  0.1254803E+00
          3   -1    0    0  501    0  0.00000000000E+00  0.00000000000E+00  0.54943152861E+02  0.54943152861E+02  0.00000000000E+00 0. -1.
         -3   -1    0    0    0  501 -0.00000000000E+00 -0.00000000000E+00 -0.70446944616E+03  0.70446944616E+03  0.00000000000E+00 0.  1.
         25    2    1    2    0    0  0.54735019151E+02 -0.60420010775E+02 -0.61512433277E+03  0.63298767384E+03  0.12509576510E+03 0.  0.
         23    2    1    2    0    0 -0.54735019151E+02  0.60420010775E+02 -0.34401960531E+02  0.12642492518E+03  0.90295441719E+02 0.  0.
          5    1    3    3  502    0  0.10450799486E+01 -0.84912265420E+02 -0.44003996315E+03  0.44817834239E+03  0.41800000000E+01 0.  1.
         -5    1    3    3    0  502  0.53689939203E+02  0.24492254646E+02 -0.17508436961E+03  0.18480933145E+03  0.41800000000E+01 0.  1.
        -11    1    4    4    0    0 -0.11133790019E+02  0.19027023482E+02 -0.57839043335E+02  0.61897850017E+02  0.00000000000E+00 0.  1.
         11    1    4    4    0    0 -0.43601229133E+02  0.41392987293E+02  0.23437082804E+02  0.64527075164E+02  0.00000000000E+00 0. -1.
</event>
<event>
 8    1  0.6627806E-009  0.1599996E+03  0.7561462E-02  0.1188697E+00
          1   -1    0    0  501    0  0.00000000000E+00  0.00000000000E+00  0.11963175221E+04  0.11963175221E+04  0.00000000000E+00 0. -1.
         -1   -1    0    0    0  501 -0.00000000000E+00 -0.00000000000E+00 -0.28636608020E+02  0.28636608020E+02  0.00000000000E+00 0.  1.
         25    2    1    2    0    0 -0.95692655739E+02  0.10417299980E+03  0.77275427926E+03  0.79549097380E+03  0.12509042745E+03 0.  0.
         23    2    1    2    0    0  0.95692655739E+02 -0.10417299980E+03  0.39492663478E+03  0.42946315628E+03  0.91991616407E+02 0.  0.
          5    1    3    3  502    0  0.13951723835E+02  0.53714249119E+02  0.12879914986E+03  0.14030881855E+03  0.41800000000E+01 0. -1.
         -5    1    3    3    0  502 -0.10964437957E+03  0.50458750685E+02  0.64395512939E+03  0.65518215526E+03  0.41800000000E+01 0. -1.
        -11    1    4    4    0    0  0.57988998092E+02 -0.44956651743E+02  0.31341122212E+03  0.32188572287E+03  0.00000000000E+00 0. -1.
         11    1    4    4    0    0  0.37703657647E+02 -0.59216348060E+02  0.81515412664E+02  0.10757743341E+03  0.00000000000E+00 0.  1.
</event>
<event>
 8    1  0.6627806E-009  0.2845269E+03  0.7561462E-02  0.1093242E+00
         -2   -1    0    0    0  501 -0.00000000000E+00  0.00000000000E+00  0.10081338075E+04  0.10081338075E+04  0.00000000000E+00 0. -1.
          2   -1    0    0  501    0  0.00000000000E+00 -0.00000000000E+00 -0.85353205360E+02  0.85353205360E+02  0.00000000000E+00 0.  1.
         25    2    1    2    0    0  0.26193240085E+03 -0.39632772541E+02  0.35404742732E+03  0.45953932700E+03  0.12508985967E+03 0.  0.
         23    2    1    2    0    0 -0.26193240085E+03  0.39632772541E+02  0.56873317485E+03  0.63394768589E+03  0.90845500726E+02 0.  0.
          5    1    3    3  502    0  0.22707716449E+03  0.13711520859E+02  0.25566326155E+03  0.34224730845E+03  0.41800000000E+01 0. -1.
         -5    1    3    3    0  502  0.34855236358E+02 -0.53344293400E+02  0.98384165775E+02  0.11729201855E+03  0.41800000000E+01 0. -1.
        -11    1    4    4    0    0 -0.12196095408E+03 -0.23351064496E+02  0.29596914013E+03  0.32096335997E+03  0.00000000000E+00 0.  1.
         11    1    4    4    0    0 -0.13997144677E+03  0.62983837037E+02  0.27276403472E+03  0.31298432592E+03  0.00000000000E+00 0. -1.
</event>
<event>
 8    1  0.6627806E-009  0.8712333E+02  0.7561462E-02  0.1309971E+00
          1   -1    0    0  501    0  0.00000000000E+00  0.00000000000E+00  0.58519525265E+03  0.58519525265E+03  0.00000000000E+00 0. -1.
         -1   -1    0    0    0  501 -0.00000000000E+00 -0.00000000000E+00 -0.26683958808E+02  0.26683958808E+02  0.00000000000E+00 0.  1.
         25    2    1    2    0    0  0.45546787256E+02  0.41179196497E+02  0.30882260481E+03  0.33880109144E+03  0.12507814465E+03 0.  0.
         23    2    1    2    0    0 -0.45546787256E+02 -0.41179196497E+02  0.24968868903E+03  0.27307812001E+03  0.91961851584E+02 0.  0.
          5    1    3    3  502    0  0.38307537457E+00  0.31949813267E+01  0.26530758063E+03  0.26536001845E+03  0.41800000000E+01 0. -1.
         -5    1    3    3    0  502  0.45163711882E+02  0.37984215170E+02  0.43515024181E+02  0.73441072994E+02  0.41800000000E+01 0. -1.
        -11    1    4    4    0    0  0.42034687736E+01  0.25931747093E+02  0.46906009344E+02  0.53761495232E+02  0.00000000000E+00 0. -1.
         11    1    4    4    0    0 -0.49750256030E+02 -0.67110943590E+02  0.20278267969E+03  0.21931662478E+03  0.00000000000E+00 0.  1.
</event>
<event>
 8    1  0.6627806E-009  0.5840817E+02  0.7561462E-02  0.1404636E+00
         -1   -1    0    0    0  501 -0.00000000000E+00  0.00000000000E+00  0.44792859587E+02  0.44792859587E+02  0.00000000000E+00 0.  1.
          1   -1    0    0  501    0  0.00000000000E+00 -0.00000000000E+00 -0.29077196618E+03  0.29077196618E+03  0.00000000000E+00 0. -1.
         25    2    1    2    0    0 -0.38131559353E+01 -0.26166066263E+02 -0.19327039555E+03  0.23172600315E+03  0.12507714244E+03 0.  0.
         23    2    1    2    0    0  0.38131559353E+01  0.26166066263E+02 -0.52708711044E+02  0.10383882261E+03  0.85469817360E+02 0.  0.
          5    1    3    3  502    0  0.73030306019E+00 -0.29844546304E+02  0.73088209224E+01  0.31018084240E+02  0.41800000000E+01 0. -1.
         -5    1    3    3    0  502 -0.45434589955E+01  0.36784800401E+01 -0.20057921647E+03  0.20070791891E+03  0.41800000000E+01 0. -1.
        -11    1    4    4    0    0 -0.32727817770E+02 -0.28121485114E+01  0.80084700447E+00  0.32858173887E+02  0.00000000000E+00 0. -1.
         11    1    4    4    0    0  0.36540973706E+02  0.28978214775E+02 -0.53509558048E+02  0.70980648725E+02  0.00000000000E+00 0.  1.
</event>
<event>
 8    1  0.6627806E-009  0.1028881E+03  0.7561462E-02  0.1274337E+00
          2   -1    0    0  501    0  0.00000000000E+00  0.00000000000E+00  0.71459754567E+03  0.71459754567E+03  0.00000000000E+00 0. -1.
         -2   -1    0    0    0  501 -0.00000000000E+00 -0.00000000000E+00 -0.26292876378E+02  0.26292876378E+02  0.00000000000E+00 0.  1.
         25    2    1    2    0    0  0.13477075527E+02 -0.49118966226E+02  0.19818742804E+03  0.23983445824E+03  0.12509199142E+03 0.  0.
         23    2    1    2    0    0 -0.13477075527E+02  0.49118966226E+02  0.49011724125E+03  0.50105596381E+03  0.90817753153E+02 0.  0.
          5    1    3    3  502    0 -0.30677252307E+02 -0.51763055211E+02  0.32952499111E+02  0.68730250192E+02  0.41800000000E+01 0.  1.
         -5    1    3    3    0  502  0.44154327834E+02  0.26440889848E+01  0.16523492893E+03  0.17110420805E+03  0.41800000000E+01 0.  1.
        -11    1    4    4    0    0 -0.50126168127E+02  0.37439738482E+02  0.35907979814E+03  0.36448959955E+03  0.00000000000E+00 0. -1.
         11    1    4    4    0    0  0.36649092600E+02  0.11679227744E+02  0.13103744311E+03  0.13656636426E+03  0.00000000000E+00 0.  1.
</event>
<event>
 8    1  0.6627806E-009  0.8634315E+02  0.7561462E-02  0.1311957E+00
          2   -1    0    0  501    0  0.00000000000E+00  0.00000000000E+00  0.19003075283E+03  0.19003075283E+03  0.00000000000E+00 0. -1.
         -2   -1    0    0    0  501 -0.00000000000E+00 -0.00000000000E+00 -0.70572665780E+02  0.70572665780E+02  0.00000000000E+00 0.  1.
         25    2    1    2    0    0 -0.21432771327E+02  0.17432072543E+02  0.10002079197E+03  0.16253014877E+03  0.12509456261E+03 0.  0.
         23    2    1    2    0    0  0.21432771327E+02 -0.17432072543E+02  0.19437295077E+02  0.98073269833E+02  0.92072346423E+02 0.  0.
          5    1    3    3  502    0 -0.34320558514E+02 -0.25183129923E+02  0.10884751051E+03  0.11695017620E+03  0.41800000000E+01 0.  1.
         -5    1    3    3    0  502  0.12887787186E+02  0.42615202466E+02 -0.88267185388E+01  0.45579972575E+02  0.41800000000E+01 0.  1.
        -11    1    4    4    0    0  0.47972394758E+02  0.77689102652E+01  0.33327868523E+02  0.58927527063E+02  0.00000000000E+00 0. -1.
         11    1    4    4    0    0 -0.26539623430E+02 -0.25200982808E+02 -0.13890573446E+02  0.39145742769E+02  0.00000000000E+00 0.  1.
</event>
<event>
 8    1  0.6627806E-009  0.7468241E+02  0.7561462E-02  0.1344857E+00
          1   -1    0    0  501    0  0.00000000000E+00  0.00000000000E+00  0.52880215475E+03  0.52880215475E+03  0.00000000000E+00 0. -1.
         -1   -1    0    0    0  501 -0.00000000000E+00 -0.00000000000E+00 -0.27668204633E+02  0.27668204633E+02  0.00000000000E+00 0.  1.
         25    2    1    2    0    0  0.15888039682E+02  0.43585298525E+02  0.34900773355E+03  0.37363801463E+03  0.12508740883E+03 0.  0.
         23    2    1    2    0    0 -0.15888039682E+02 -0.43585298525E+02  0.15212621657E+03  0.18283234476E+03  0.90184103189E+02 0.  0.
          5    1    3    3  502    0  0.37357288816E+02 -0.74901668167E+01  0.27030375114E+02  0.46901846503E+02  0.41800000000E+01 0.  1.
         -5    1    3    3    0  502 -0.21469249134E+02  0.51075465341E+02  0.32197735844E+03  0.32673616813E+03  0.41800000000E+01 0.  1.
        -11    1    4    4    0    0  0.87025161446E+01 -0.17964910165E+02 -0.59394361312E+01  0.20826634054E+02  0.00000000000E+00 0.  1.
         11    1    4    4    0    0 -0.24590555826E+02 -0.25620388360E+02  0.15806565270E+03  0.16200571070E+03  0.00000000000E+00 0. -1.
</event>
<event>
 8    1  0.6627806E-009  0.9604138E+02  0.7561462E-02  0.1288848E+00
          2   -1    0    0  501    0  0.00000000000E+00  0.00000000000E+00  0.23606129533E+03  0.23606129533E+03  0.00000000000E+00 0. -1.
         -2   -1    0    0    0  501 -0.00000000000E+00 -0.00000000000E+00 -0.57216594066E+02  0.57216594066E+02  0.00000000000E+00 0.  1.
         25    2    1    2    0    0  0.28245889002E+01 -0.18319731988E+02  0.14531183749E+03  0.19263068853E+03  0.12508981240E+03 0.  0.
         23    2    1    2    0    0 -0.28245889002E+01  0.18319731988E+02  0.33532863780E+02  0.10064720087E+03  0.93068873459E+02 0.  0.
          5    1    3    3  502    0  0.19726694244E+02  0.48485846927E+02  0.89871041863E+02  0.10408792621E+03  0.41800000000E+01 0.  1.
         -5    1    3    3    0  502 -0.16902105344E+02 -0.66805578914E+02  0.55440795625E+02  0.88542762317E+02  0.41800000000E+01 0.  1.
        -11    1    4    4    0    0  0.31310510487E+02  0.18559335216E+02 -0.16593195023E+02  0.40001638863E+02  0.00000000000E+00 0.  1.
         11    1    4    4    0    0 -0.34135099387E+02 -0.23960322856E+00  0.50126058803E+02  0.60645562006E+02  0.00000000000E+00 0. -1.
</event>
<event>
 8    1  0.6627806E-009  0.5968519E+02  0.7561462E-02  0.1399158E+00
         -2   -1    0    0    0  501 -0.00000000000E+00  0.00000000000E+00  0.15533223687E+03  0.15533223687E+03  0.00000000000E+00 0. -1.
          2   -1    0    0  501    0  0.00000000000E+00 -0.00000000000E+00 -0.18229996578E+03  0.18229996578E+03  0.00000000000E+00 0.  1.
         25    2    1    2    0    0 -0.45616885884E+02 -0.21561913635E+02  0.10432627345E+03  0.17052103453E+03  0.12509050919E+03 0.  0.
         23    2    1    2    0    0  0.45616885884E+02  0.21561913635E+02 -0.13129400236E+03  0.16711116812E+03  0.90234201156E+02 0.  0.
          5    1    3    3  502    0  0.13713713768E+00 -0.74962090661E-01  0.11793278909E+03  0.11800694712E+03  0.41800000000E+01 0. -1.
         -5    1    3    3    0  502 -0.45754023022E+02 -0.21486951545E+02 -0.13606515639E+02  0.52514087417E+02  0.41800000000E+01 0. -1.
        -11    1    4    4    0    0  0.24823216006E+02 -0.99246601053E+01 -0.12624182234E+03  0.12904142218E+03  0.00000000000E+00 0.  1.
         11    1    4    4    0    0  0.20793669878E+02  0.31486573741E+02 -0.50521800184E+01  0.38069745939E+02  0.00000000000E+00 0. -1.
</event>
<event>
 8    1  0.6627806E-009  0.7834506E+02  0.7561462E-02  0.1333815E+00
          2   -1    0    0  501    0  0.00000000000E+00  0.00000000000E+00  0.54436862818E+03  0.54436862818E+03  0.00000000000E+00 0. -1.
         -2   -1    0    0    0  501 -0.00000000000E+00 -0.00000000000E+00 -0.32858345577E+02  0.32858345577E+02  0.00000000000E+00 0.  1.
         25    2    1    2    0    0 -0.53331646995E+02 -0.16721157505E+02  0.40773053855E+03  0.43013410497E+03  0.12508914625E+03 0.  0.
         23    2    1    2    0    0  0.53331646995E+02  0.16721157505E+02  0.10377974405E+03  0.14709286879E+03  0.87989857900E+02 0.  0.
          5    1    3    3  502    0 -0.19602229596E+02  0.46340764750E+01  0.14031916425E+00  0.20572169535E+02  0.41800000000E+01 0.  1.
         -5    1    3    3    0  502 -0.33729417399E+02 -0.21355233980E+02  0.40759021939E+03  0.40956193543E+03  0.41800000000E+01 0.  1.
        -11    1    4    4    0    0  0.70226708730E+02  0.28066868203E+02  0.10155382746E+03  0.12662037586E+03  0.00000000000E+00 0. -1.
         11    1    4    4    0    0 -0.16895061735E+02 -0.11345710699E+02  0.22259165932E+01  0.20472492935E+02  0.00000000000E+00 0.  1.
</event>
<event>
 8    1  0.6627806E-009  0.1580023E+03  0.7561462E-02  0.1190971E+00
         -2   -1    0    0    0  501 -0.00000000000E+00  0.00000000000E+00  0.91491872695E+02  0.91491872695E+02  0.00000000000E+00 0.  1.
          2   -1    0    0  501    0  0.00000000000E+00 -0.00000000000E+00 -0.30702250035E+03  0.30702250035E+03  0.00000000000E+00 0. -1.
         25    2    1    2    0    0  0.34047288855E+02 -0.12164861766E+03 -0.97020849370E+02  0.20252578856E+03  0.12508415473E+03 0.  0.
         23    2    1    2    0    0 -0.34047288855E+02  0.12164861766E+03 -0.11850977829E+03  0.19598858449E+03  0.91702528004E+02 0.  0.
          5    1    3    3  502    0 -0.39693778038E+02 -0.40256635576E+02 -0.11832905811E+01  0.56701545829E+02  0.41800000000E+01 0.  1.
         -5    1    3    3    0  502  0.73741066893E+02 -0.81391982084E+02 -0.95837558789E+02  0.14582424273E+03  0.41800000000E+01 0.  1.
        -11    1    4    4    0    0 -0.51605802624E+02  0.38395616930E+02 -0.79844870771E+02  0.10253090096E+03  0.00000000000E+00 0. -1.
         11    1    4    4    0    0  0.17558513769E+02  0.83253000730E+02 -0.38664907519E+02  0.93457683525E+02  0.00000000000E+00 0.  1.
</event>
<event>
 8    1  0.6627806E-009  0.8678008E+02  0.7561462E-02  0.1310842E+00
         -3   -1    0    0    0  501 -0.00000000000E+00  0.00000000000E+00  0.16408011652E+03  0.16408011652E+03  0.00000000000E+00 0.  1.
          3   -1    0    0  501    0  0.00000000000E+00 -0.00000000000E+00 -0.82839957054E+02  0.82839957054E+02  0.00000000000E+00 0. -1.
         25    2    1    2    0    0  0.24820449183E+02 -0.30793156552E+02  0.38181133054E+02  0.13663395939E+03  0.12508703669E+03 0.  0.
         23    2    1    2    0    0 -0.24820449183E+02  0.30793156552E+02  0.43059026415E+02  0.11028611419E+03  0.93512961876E+02 0.  0.
          5    1    3    3  502    0 -0.16633169266E+02  0.22379758254E+02  0.59463059477E+02  0.65809146338E+02  0.41800000000E+01 0. -1.
         -5    1    3    3    0  502  0.41453618449E+02 -0.53172914805E+02 -0.21281926423E+02  0.70824813051E+02  0.41800000000E+01 0. -1.
        -11    1    4    4    0    0 -0.32529126423E+02  0.48558512465E+02 -0.48133866700E+01  0.58645050003E+02  0.00000000000E+00 0. -1.
         11    1    4    4    0    0  0.77086772399E+01 -0.17765355913E+02  0.47872413085E+02  0.51641064185E+02  0.00000000000E+00 0.  1.
</event>
<event>
 8    1  0.6627806E-009  0.1654408E+03  0.7561462E-02  0.1182687E+00
          1   -1    0    0  501    0  0.00000000000E+00  0.00000000000E+00  0.17113363901E+04  0.17113363901E+04  0.00000000000E+00 0. -1.
         -1   -1    0    0    0  501 -0.00000000000E+00 -0.00000000000E+00 -0.27189790394E+02  0.27189790394E+02  0.00000000000E+00 0.  1.
         25    2    1    2    0    0 -0.16174781501E+03  0.46183477362E+01  0.12391464690E+04  0.12559123361E+04  0.12509252385E+03 0.  0.
         23    2    1    2    0    0  0.16174781501E+03 -0.46183477362E+01  0.44500013073E+03  0.48261384442E+03  0.93313030623E+02 0.  0.
          5    1    3    3  502    0 -0.12577799811E+03  0.13663908052E+02  0.49834544758E+03  0.51417162963E+03  0.41800000000E+01 0.  1.
         -5    1    3    3    0  502 -0.35969816894E+02 -0.90455603159E+01  0.74080102145E+03  0.74174070649E+03  0.41800000000E+01 0.  1.
        -11    1    4    4    0    0  0.74382385131E+02  0.18397465678E+02  0.10000429938E+03  0.12598438735E+03  0.00000000000E+00 0.  1.
         11    1    4    4    0    0  0.87365429876E+02 -0.23015813414E+02  0.34499583135E+03  0.35662945707E+03  0.00000000000E+00 0. -1.
</event>
<event>
 8    1  0.6627806E-009  0.1667434E+03  0.7561462E-02  0.1181287E+00
          2   -1    0    0  501    0  0.00000000000E+00  0.00000000000E+00  0.17009274542E+03  0.17009274542E+03  0.00000000000E+00 0. -1.
         -2   -1    0    0    0  501 -0.00000000000E+00 -0.00000000000E+00 -0.20463768170E+03  0.20463768170E+03  0.00000000000E+00 0.  1.
         25    2    1    2    0    0  0.13385836582E+03 -0.14226212962E+02 -0.87583904126E+02  0.20356454468E+03  0.12508851408E+03 0.  0.
         23    2    1    2    0    0 -0.13385836582E+03  0.14226212962E+02  0.53038967845E+02  0.17116588244E+03  0.91455890826E+02 0.  0.
          5    1    3    3  502    0  0.10162569194E+03  0.41288451387E+02 -0.85603123792E+02  0.13920447077E+03  0.41800000000E+01 0. -1.
         -5    1    3    3    0  502  0.32232673879E+02 -0.55514664349E+02 -0.19807803337E+01  0.64360073912E+02  0.41800000000E+01 0. -1.
        -11    1    4    4    0    0 -0.71775993374E+02  0.50240788868E+02  0.11838185304E+02  0.88408555707E+02  0.00000000000E+00 0. -1.
         11    1    4    4    0    0 -0.62082372444E+02 -0.36014575906E+02  0.41200782541E+02  0.82757326733E+02  0.00000000000E+00 0.  1.
</event>
<event>
 8    1  0.6627806E-009  0.1296704E+03  0.7561462E-02  0.1227946E+00
          1   -1    0    0  501    0  0.00000000000E+00  0.00000000000E+00  0.23385244259E+02  0.23385244259E+02  0.00000000000E+00 0. -1.
         -1   -1    0    0    0  501 -0.00000000000E+00 -0.00000000000E+00 -0.13998735570E+04  0.13998735570E+04  0.00000000000E+00 0.  1.
         25    2    1    2    0    0 -0.67903438837E+02  0.75300227740E+02 -0.11316254712E+04  0.11430247878E+04  0.12509379397E+03 0.  0.
         23    2    1    2    0    0  0.67903438837E+02 -0.75300227740E+02 -0.24486284160E+03  0.28023401346E+03  0.91062010732E+02 0.  0.
          5    1    3    3  502    0 -0.93603235638E+02  0.87267662619E+02 -0.80208700495E+03  0.81224272639E+03  0.41800000000E+01 0.  1.
         -5    1    3    3    0  502  0.25699796800E+02 -0.11967434879E+02 -0.32953846621E+03  0.33078206143E+03  0.41800000000E+01 0.  1.
        -11    1    4    4    0    0  0.23229267997E+02 -0.37552501871E+02 -0.20439961636E+03  0.20911478297E+03  0.00000000000E+00 0.  1.
         11    1    4    4    0    0  0.44674170841E+02 -0.37747725869E+02 -0.40463225244E+02  0.71119230492E+02  0.00000000000E+00 0. -1.
</event>
<event>
 8    1  0.6627806E-009  0.1314533E+03  0.7561462E-02  0.1225315E+00
          2   -1    0    0  501    0  0.00000000000E+00  0.00000000000E+00  0.64924526963E+03  0.64924526963E+03  0.00000000000E+00 0. -1.
         -2   -1    0    0    0  501 -0.00000000000E+00 -0.00000000000E+00 -0.27972400926E+02  0.27972400926E+02  0.00000000000E+00 0.  1.
         25    2    1    2    0    0  0.74268421326E+02  0.24370282920E+02  0.38516663629E+03  0.41244377313E+03  0.12508724630E+03 0.  0.
         23    2    1    2    0    0 -0.74268421326E+02 -0.24370282920E+02  0.23610623241E+03  0.26477389742E+03  0.90825958168E+02 0.  0.
          5    1    3    3  502    0 -0.25366211726E+02  0.35049301870E+02  0.16286300197E+03  0.16856372110E+03  0.41800000000E+01 0. -1.
         -5    1    3    3    0  502  0.99634633052E+02 -0.10679018950E+02  0.22230363432E+03  0.24388005204E+03  0.41800000000E+01 0. -1.
        -11    1    4    4    0    0 -0.36857466960E+02 -0.58081038663E+02  0.12217019862E+03  0.14020498334E+03  0.00000000000E+00 0.  1.
         11    1    4    4    0    0 -0.37410954367E+02  0.33710755743E+02  0.11393603379E+03  0.12456891408E+03  0.00000000000E+00 0. -1.
</event>
<event>
 8    1  0.6627806E-009  0.8496226E+02  0.7561462E-02  0.1315531E+00
         -2   -1    0    0    0  501 -0.00000000000E+00  0.00000000000E+00  0.42920272494E+02  0.42920272494E+02  0.00000000000E+00 0.  1.
          2   -1    0    0  501    0  0.00000000000E+00 -0.00000000000E+00 -0.30213632536E+03  0.30213632536E+03  0.00000000000E+00 0. -1.
         25    2    1    2    0    0 -0.89232867195E+01 -0.75820297884E+01 -0.18908298455E+03  0.22701162394E+03  0.12507913549E+03 0.  0.
         23    2    1    2    0    0  0.89232867195E+01  0.75820297884E+01 -0.70133068315E+02  0.11804497391E+03  0.94227683691E+02 0.  0.
          5    1    3    3  502    0 -0.19367258955E+02  0.48517505968E+02 -0.35987251060E+02  0.63573530212E+02  0.41800000000E+01 0. -1.
         -5    1    3    3    0  502  0.10443972236E+02 -0.56099535756E+02 -0.15309573349E+03  0.16343809373E+03  0.41800000000E+01 0. -1.
        -11    1    4    4    0    0 -0.21406792643E+02  0.18269607392E+02 -0.79676511430E+02  0.84500744371E+02  0.00000000000E+00 0. -1.
         11    1    4    4    0    0  0.30330079363E+02 -0.10687577603E+02  0.95434431154E+01  0.33544229544E+02  0.00000000000E+00 0.  1.
</event>
<event>
 7    1  0.6627806E-009  0.1593004E+03  0.7561462E-02  0.1189489E+00
         -2   -1    0    0    0  501 -0.00000000000E+00  0.00000000000E+00  0.79635867171E+03  0.79635867171E+03  0.00000000000E+00 0.  1.
          2   -1    0    0  501    0  0.00000000000E+00 -0.00000000000E+00 -0.33925152513E+02  0.33925152513E+02  0.00000000000E+00 0. -1.
         25    2    1    2    0    0  0.71696677965E+01 -0.93834626720E+02  0.28353710941E+03  0.32387790010E+03  0.12508901012E+03 0.  0.
          5    1    3    3  502    0  0.23827847565E+02  0.25271470837E+02  0.81941460346E+02  0.89097075606E+02  0.41800000000E+01 0. -1.
         -5    1    3    3    0  502 -0.16658179768E+02 -0.11910609756E+03  0.20159564906E+03  0.23478082449E+03  0.41800000000E+01 0. -1.
        -11    1    1    2    0    0  0.20716818609E+02  0.12193940846E+03  0.33284903221E+03  0.35508715008E+03  0.00000000000E+00 0. -1.
         11    1    1    2    0    0 -0.27886486406E+02 -0.28104781742E+02  0.14604737758E+03  0.15131877405E+03  0.00000000000E+00 0.  1.
</event>
<event>
 8    1  0.6627806E-009  0.1839556E+03  0.7561462E-02  0.1164029E+00
         -1   -1    0    0    0  501 -0.00000000000E+00  0.00000000000E+00  0.14097868938E+02  0.14097868938E+02  0.00000000000E+00 0.  1.
          1   -1    0    0  501    0  0.00000000000E+00 -0.00000000000E+00 -0.31072648468E+04  0.31072648468E+04  0.00000000000E+00 0. -1.
         25    2    1    2    0    0 -0.14513871513E+03  0.52799091890E+02 -0.22739864306E+04  0.22826553975E+04  0.12509351073E+03 0.  0.
         23    2    1    2    0    0  0.14513871513E+03 -0.52799091890E+02 -0.81918054722E+03  0.83870731820E+03  0.92304961551E+02 0.  0.
          5    1    3    3  502    0 -0.88471121449E+02 -0.28172405879E+02 -0.14017085800E+04  0.14047865458E+04  0.41800000000E+01 0. -1.
         -5    1    3    3    0  502 -0.56667593677E+02  0.80971497770E+02 -0.87227785068E+03  0.87786885172E+03  0.41800000000E+01 0. -1.
        -11    1    4    4    0    0  0.64589888184E+02 -0.68320304176E+02 -0.34990828468E+03  0.36231936921E+03  0.00000000000E+00 0.  1.
         11    1    4    4    0    0  0.80548826941E+02  0.15521212285E+02 -0.46927226254E+03  0.47638794899E+03  0.00000000000E+00 0. -1.
</event>
<event>
 8    1  0.6627806E-009  0.1406139E+03  0.7561462E-02  0.1212505E+00
          1   -1    0    0  501    0  0.00000000000E+00  0.00000000000E+00  0.54769868246E+03  0.54769868246E+03  0.00000000000E+00 0. -1.
         -1   -1    0    0    0  501 -0.00000000000E+00 -0.00000000000E+00 -0.66637065219E+02  0.66637065219E+02  0.00000000000E+00 0.  1.
         25    2    1    2    0    0  0.21751748301E+02  0.92684472876E+02  0.52026205272E+02  0.16558278912E+03  0.12508950377E+03 0.  0.
         23    2    1    2    0    0 -0.21751748301E+02 -0.92684472876E+02  0.42903541197E+03  0.44875295856E+03  0.90798034244E+02 0.  0.
          5    1    3    3  502    0 -0.52110416293E+02  0.46556692258E+02  0.24128819785E+02  0.74045212029E+02  0.41800000000E+01 0.  1.
         -5    1    3    3    0  502  0.73862164595E+02  0.46127780618E+02  0.27897385487E+02  0.91537577095E+02  0.41800000000E+01 0.  1.
        -11    1    4    4    0    0 -0.51107620057E+02 -0.45265955315E+02  0.15931349531E+03  0.17332566263E+03  0.00000000000E+00 0.  1.
         11    1    4    4    0    0  0.29355871756E+02 -0.47418517560E+02  0.26972191666E+03  0.27542729593E+03  0.00000000000E+00 0. -1.
</event>
<event>
 8    1  0.6627806E-009  0.1201951E+03  0.7561462E-02  0.1242776E+00
          1   -1    0    0  501    0  0.00000000000E+00  0.00000000000E+00  0.50209532775E+03  0.50209532775E+03  0.00000000000E+00 0. -1.
         -1   -1    0    0    0  501 -0.00000000000E+00 -0.00000000000E+00 -0.45707510231E+02  0.45707510231E+02  0.00000000000E+00 0.  1.
         25    2    1    2    0    0 -0.44112966998E+02  0.38600295655E+02  0.39988456072E+03  0.42307274259E+03  0.12508775695E+03 0.  0.
         23    2    1    2    0    0  0.44112966998E+02 -0.38600295655E+02  0.56503256799E+02  0.12473009539E+03  0.94493608171E+02 0.  0.
          5    1    3    3  502    0 -0.45059882704E+01 -0.40328111862E+02  0.20576048773E+03  0.20976537190E+03  0.41800000000E+01 0.  1.
         -5    1    3    3    0  502 -0.39606978728E+02  0.78928407517E+02  0.19412407298E+03  0.21330737069E+03  0.41800000000E+01 0.  1.
        -11    1    4    4    0    0  0.55743533757E+02  0.13871621790E+02  0.29980568905E+02  0.64796589098E+02  0.00000000000E+00 0.  1.
         11    1    4    4    0    0 -0.11630566759E+02 -0.52471917445E+02  0.26522687893E+02  0.59933506293E+02  0.00000000000E+00 0. -1.
</event>
<event>
 8    1  0.6627806E-009  0.9397557E+02  0.7561462E-02  0.1293500E+00
          1   -1    0    0  501    0  0.00000000000E+00  0.00000000000E+00  0.46114349582E+03  0.46114349582E+03  0.00000000000E+00 0. -1.
         -1   -1    0    0    0  501 -0.00000000000E+00 -0.00000000000E+00 -0.33957748897E+02  0.33957748897E+02  0.00000000000E+00 0.  1.
         25    2    1    2    0    0 -0.49694332155E+02 -0.33507376717E+02  0.19182708011E+03  0.23672481710E+03  0.12509492166E+03 0.  0.
         23    2    1    2    0    0  0.49694332155E+02  0.33507376717E+02  0.23535866681E+03  0.25837642761E+03  0.88161246359E+02 0.  0.
          5    1    3    3  502    0 -0.15567551773E+02  0.19224657290E+02 -0.86963161747E+01  0.26552484462E+02  0.41800000000E+01 0.  1.
         -5    1    3    3    0  502 -0.34126780382E+02 -0.52732034007E+02  0.20052339629E+03  0.21017233264E+03  0.41800000000E+01 0.  1.
        -11    1    4    4    0    0 -0.20204909214E+02 -0.39833334779E+01  0.19322807707E+02  0.28239621095E+02  0.00000000000E+00 0.  1.
         11    1    4    4    0    0  0.69899241369E+02  0.37490710195E+02  0.21603585910E+03  0.23013680651E+03  0.00000000000E+00 0. -1.
</event>
<event>
 8    1  0.6627806E-009  0.6590123E+02  0.7561462E-02  0.1374613E+00
          2   -1    0    0  501    0  0.00000000000E+00  0.00000000000E+00  0.11243661060E+03  0.11243661060E+03  0.00000000000E+00 0. -1.
         -2   -1    0    0    0  501 -0.00000000000E+00 -0.00000000000E+00 -0.11470294699E+03  0.11470294699E+03  0.00000000000E+00 0.  1.
         25    2    1    2    0    0  0.22603861728E+02  0.19338043093E+02  0.46417578796E+01  0.12866562089E+03  0.12509357141E+03 0.  0.
         23    2    1    2    0    0 -0.22603861728E+02 -0.19338043093E+02 -0.69080942689E+01  0.98473936698E+02  0.93618908169E+02 0.  0.
          5    1    3    3  502    0  0.30031445739E+02  0.52873227254E+02  0.44809665480E+02  0.75649483896E+02  0.41800000000E+01 0. -1.
         -5    1    3    3    0  502 -0.74275840106E+01 -0.33535184161E+02 -0.40167907600E+02  0.53016136996E+02  0.41800000000E+01 0. -1.
        -11    1    4    4    0    0  0.10602371522E+01 -0.11164847744E+02  0.42031686576E+02  0.43502190800E+02  0.00000000000E+00 0. -1.
         11    1    4    4    0    0 -0.23664098880E+02 -0.81731953485E+01 -0.48939780845E+02  0.54971745899E+02  0.00000000000E+00 0.  1.
</event>
<event>
 8    1  0.6627806E-009  0.1244632E+03  0.7561462E-02  0.1235911E+00
          2   -1    0    0  501    0  0.00000000000E+00  0.00000000000E+00  0.18418694690E+03  0.18418694690E+03  0.00000000000E+00 0. -1.
         -2   -1    0    0    0  501 -0.00000000000E+00 -0.00000000000E+00 -0.13821305286E+03  0.13821305286E+03  0.00000000000E+00 0.  1.
         25    2    1    2    0    0 -0.71027263050E+02 -0.11514848900E+02  0.11737393338E+03  0.18601477089E+03  0.12508953158E+03 0.  0.
         23    2    1    2    0    0  0.71027263050E+02  0.11514848900E+02 -0.71400039335E+02  0.13638522887E+03  0.91244184451E+02 0.  0.
          5    1    3    3  502    0 -0.73964347611E+02  0.42530073997E+02  0.93692614659E+02  0.12678844724E+03  0.41800000000E+01 0. -1.
         -5    1    3    3    0  502  0.29370845603E+01 -0.54044922897E+02  0.23681318721E+02  0.59226323649E+02  0.41800000000E+01 0. -1.
        -11    1    4    4    0    0 -0.15630729101E+02  0.16099269793E+02  0.22686475776E+01  0.22553335495E+02  0.00000000000E+00 0.  1.
         11    1    4    4    0    0  0.86657992151E+02 -0.45844208935E+01 -0.73668686912E+02  0.11383189338E+03  0.00000000000E+00 0. -1.
</event>
<event>
 8    1  0.6627806E-009  0.1460366E+03  0.7561462E-02  0.1205429E+00
         -2   -1    0    0    0  501 -0.00000000000E+00  0.00000000000E+00  0.36409987174E+03  0.36409987174E+03  0.00000000000E+00 0.  1.
          2   -1    0    0  501    0  0.00000000000E+00 -0.00000000000E+00 -0.76150071813E+02  0.76150071813E+02  0.00000000000E+00 0. -1.
         25    2    1    2    0    0 -0.73255005573E+02  0.10098705508E+03  0.13576597013E+03  0.22280976463E+03  0.12508841446E+03 0.  0.
         23    2    1    2    0    0  0.73255005573E+02 -0.10098705508E+03  0.15218382979E+03  0.21744017892E+03  0.92496660608E+02 0.  0.
          5    1    3    3  502    0 -0.68122762613E+02  0.12429072924E+03  0.13876565371E+03  0.19839928228E+03  0.41800000000E+01 0.  1.
         -5    1    3    3    0  502 -0.51322429597E+01 -0.23303674155E+02 -0.29996835741E+01  0.24410482348E+02  0.41800000000E+01 0.  1.
        -11    1    4    4    0    0  0.64935395318E+02 -0.77354520013E+02  0.16169181688E+03  0.19064252143E+03  0.00000000000E+00 0.  1.
         11    1    4    4    0    0  0.83196102548E+01 -0.23632535072E+02 -0.95079870857E+01  0.26797657493E+02  0.00000000000E+00 0. -1.
</event>
<event>
 7    1  0.6627806E-009  0.9437475E+02  0.7561462E-02  0.1292591E+00
         -2   -1    0    0    0  501 -0.00000000000E+00  0.00000000000E+00  0.56193480857E+02  0.56193480857E+02  0.00000000000E+00 0. -1.
          2   -1    0    0  501    0  0.00000000000E+00 -0.00000000000E+00 -0.30286132808E+03  0.30286132808E+03  0.00000000000E+00 0.  1.
         23    2    1    2    0    0 -0.32330961849E+02 -0.27313667640E+02 -0.19126226931E+03  0.21614695080E+03  0.91361486115E+02 0.  0.
          5    1    1    2  502    0  0.44424045158E+02 -0.17962061983E+02  0.21552037357E+02  0.52707629174E+02  0.41800000000E+01 0. -1.
         -5    1    1    2    0  502 -0.12093083310E+02  0.45275729622E+02 -0.76957615266E+02  0.90200228959E+02  0.41800000000E+01 0. -1.
        -11    1    3    3    0    0 -0.55569912131E+02  0.27075521935E+01 -0.72019218144E+02  0.91006119328E+02  0.00000000000E+00 0.  1.
         11    1    3    3    0    0  0.23238950282E+02 -0.30021219833E+02 -0.11924305116E+03  0.12514083147E+03  0.00000000000E+00 0. -1.
</event>
<event>
 8    1  0.6627806E-009  0.9150754E+02  0.7561462E-02  0.1299241E+00
         -1   -1    0    0    0  501 -0.00000000000E+00  0.00000000000E+00  0.66498357753E+02  0.66498357753E+02  0.00000000000E+00 0.  1.
          1   -1    0    0  501    0  0.00000000000E+00 -0.00000000000E+00 -0.21005598133E+03  0.21005598133E+03  0.00000000000E+00 0. -1.
         25    2    1    2    0    0 -0.37477544535E+01 -0.20328642536E+02 -0.13467678823E+03  0.18499755074E+03  0.12513575476E+03 0.  0.
         23    2    1    2    0    0  0.37477544535E+01  0.20328642536E+02 -0.88808353440E+01  0.91556788346E+02  0.88749517661E+02 0.  0.
          5    1    3    3  502    0  0.24070819005E+02  0.31605939282E+02 -0.22672282043E+01  0.40011903844E+02  0.41800000000E+01 0. -1.
         -5    1    3    3    0  502 -0.27818573458E+02 -0.51934581818E+02 -0.13240956003E+03  0.14498564689E+03  0.41800000000E+01 0. -1.
        -11    1    4    4    0    0 -0.38541945338E+02  0.43119555769E+01  0.13545840187E+02  0.41079974412E+02  0.00000000000E+00 0.  1.
         11    1    4    4    0    0  0.42289699792E+02  0.16016686959E+02 -0.22426675531E+02  0.50476813934E+02  0.00000000000E+00 0. -1.
</event>
<event>
 8    1  0.6627806E-009  0.9584720E+02  0.7561462E-02  0.1289279E+00
          1   -1    0    0  501    0  0.00000000000E+00  0.00000000000E+00  0.59799631730E+02  0.59799631730E+02  0.00000000000E+00 0. -1.
         -1   -1    0    0    0  501 -0.00000000000E+00 -0.00000000000E+00 -0.31630487037E+03  0.31630487037E+03  0.00000000000E+00 0.  1.
         25    2    1    2    0    0  0.68391412803E+02 -0.21123162576E+02 -0.20109338763E+03  0.24741813148E+03  0.12511437924E+03 0.  0.
         23    2    1    2    0    0 -0.68391412803E+02  0.21123162576E+02 -0.55411851013E+02  0.12868637063E+03  0.91466580837E+02 0.  0.
          5    1    3    3  502    0  0.53191474057E+02  0.30944106697E+02 -0.31388392081E+02  0.69206749736E+02  0.41800000000E+01 0. -1.
         -5    1    3    3    0  502  0.15199938745E+02 -0.52067269273E+02 -0.16970499555E+03  0.17821138174E+03  0.41800000000E+01 0. -1.
        -11    1    4    4    0    0 -0.30202092919E+02 -0.31456343372E+01  0.23042723818E+02  0.38118611635E+02  0.00000000000E+00 0. -1.
         11    1    4    4    0    0 -0.38189319884E+02  0.24268796913E+02 -0.78454574831E+02  0.90567758991E+02  0.00000000000E+00 0.  1.
</event>
<event>
 8    1  0.6627806E-009  0.1188354E+03  0.7561462E-02  0.1245031E+00
         -2   -1    0    0    0  501 -0.00000000000E+00  0.00000000000E+00  0.46039720726E+02  0.46039720726E+02  0.00000000000E+00 0.  1.
          2   -1    0    0  501    0  0.00000000000E+00 -0.00000000000E+00 -0.51373263603E+03  0.51373263603E+03  0.00000000000E+00 0. -1.
         25    2    1    2    0    0  0.10837848319E+03  0.62044305012E+01 -0.25600368908E+03  0.30491002092E+03  0.12509133246E+03 0.  0.
         23    2    1    2    0    0 -0.10837848319E+03 -0.62044305012E+01 -0.21168922622E+03  0.25486233583E+03  0.91422596522E+02 0.  0.
          5    1    3    3  502    0  0.84226051922E+02 -0.21389455251E+02 -0.25338957047E+03  0.26790909548E+03  0.41800000000E+01 0.  1.
         -5    1    3    3    0  502  0.24152431263E+02  0.27593885752E+02 -0.26141186084E+01  0.37000925433E+02  0.41800000000E+01 0.  1.
        -11    1    4    4    0    0 -0.97414130763E+02  0.56966015600E+01 -0.21691873552E+03  0.23785647344E+03  0.00000000000E+00 0. -1.
         11    1    4    4    0    0 -0.10964352423E+02 -0.11901032061E+02  0.52295092970E+01  0.17005862391E+02  0.00000000000E+00 0.  1.
</event>
<event>
 8    1  0.6627806E-009  0.1222267E+03  0.7561462E-02  0.1239468E+00
         -1   -1    0    0    0  501 -0.00000000000E+00  0.00000000000E+00  0.41000738227E+02  0.41000738227E+02  0.00000000000E+00 0.  1.
          1   -1    0    0  501    0  0.00000000000E+00 -0.00000000000E+00 -0.46475834937E+03  0.46475834937E+03  0.00000000000E+00 0. -1.
         25    2    1    2    0    0 -0.57978749192E+02  0.28338991759E+02 -0.33049741403E+03  0.35922358231E+03  0.12509359535E+03 0.  0.
         23    2    1    2    0    0  0.57978749192E+02 -0.28338991759E+02 -0.93260197121E+02  0.14653550529E+03  0.92793082354E+02 0.  0.
          5    1    3    3  502    0 -0.90516072348E+02  0.36436822083E+02 -0.17805116298E+03  0.20307754774E+03  0.41800000000E+01 0.  1.
         -5    1    3    3    0  502  0.32537323157E+02 -0.80978303240E+01 -0.15244625105E+03  0.15614603457E+03  0.41800000000E+01 0.  1.
        -11    1    4    4    0    0  0.19081313927E+02  0.34309224020E+02 -0.33946833973E+02  0.51899970433E+02  0.00000000000E+00 0. -1.
         11    1    4    4    0    0  0.38897435264E+02 -0.62648215779E+02 -0.59313363148E+02  0.94635534861E+02  0.00000000000E+00 0.  1.
</event>
<event>
 8    1  0.6627806E-009  0.1934761E+03  0.7561462E-02  0.1155363E+00
          1   -1    0    0  501    0  0.00000000000E+00  0.00000000000E+00  0.53352721565E+03  0.53352721565E+03  0.00000000000E+00 0. -1.
         -1   -1    0    0    0  501 -0.00000000000E+00 -0.00000000000E+00 -0.86038989753E+02  0.86038989753E+02  0.00000000000E+00 0.  1.
         25    2    1    2    0    0  0.17473922421E+03  0.26334674018E+02  0.30793061649E+03  0.37642682980E+03  0.12509429282E+03 0.  0.
         23    2    1    2    0    0 -0.17473922421E+03 -0.26334674018E+02  0.13955760941E+03  0.24313937560E+03  0.91723051029E+02 0.  0.
          5    1    3    3  502    0  0.63900195525E+02 -0.38814243641E+02  0.18023734076E+03  0.19517364551E+03  0.41800000000E+01 0. -1.
         -5    1    3    3    0  502  0.11083902868E+03  0.65148917658E+02  0.12769327572E+03  0.18125318429E+03  0.41800000000E+01 0. -1.
        -11    1    4    4    0    0 -0.45656834725E+02  0.14736321047E+02  0.83989062817E+02  0.96725737982E+02  0.00000000000E+00 0. -1.
         11    1    4    4    0    0 -0.12908238948E+03 -0.41070995065E+02  0.55568546594E+02  0.14641363762E+03  0.00000000000E+00 0.  1.
</event>
<event>
 8    1  0.6627806E-009  0.7463728E+02  0.7561462E-02  0.1344998E+00
         -2   -1    0    0    0  501 -0.00000000000E+00  0.00000000000E+00  0.14928140266E+03  0.14928140266E+03  0.00000000000E+00 0.  1.
          2   -1    0    0  501    0  0.00000000000E+00 -0.00000000000E+00 -0.88270913917E+02  0.88270913917E+02  0.00000000000E+00 0. -1.
         25    2    1    2    0    0 -0.33561199203E+01  0.37621879888E+02  0.17777597473E+02  0.13186832664E+03  0.12508614316E+03 0.  0.
         23    2    1    2    0    0  0.33561199203E+01 -0.37621879888E+02  0.43232891273E+02  0.10568398994E+03  0.88731919032E+02 0.  0.
          5    1    3    3  502    0 -0.27381148377E+02  0.19855670924E+02  0.66405950144E+02  0.74640455309E+02  0.41800000000E+01 0.  1.
         -5    1    3    3    0  502  0.24025028457E+02  0.17766208964E+02 -0.48628352671E+02  0.57227871329E+02  0.41800000000E+01 0.  1.
        -11    1    4    4    0    0  0.39379299227E+02 -0.13327945581E+02  0.46177535497E+02  0.62134757790E+02  0.00000000000E+00 0.  1.
         11    1    4    4    0    0 -0.36023179307E+02 -0.24293934306E+02 -0.29446442237E+01  0.43549232152E+02  0.00000000000E+00 0. -1.
</event>
<event>
 8    1  0.6627806E-009  0.1361105E+03  0.7561462E-02  0.1218661E+00
          1   -1    0    0  501    0  0.00000000000E+00  0.00000000000E+00  0.28243866263E+03  0.28243866263E+03  0.00000000000E+00 0. -1.
         -1   -1    0    0    0  501 -0.00000000000E+00 -0.00000000000E+00 -0.72298856303E+02  0.72298856303E+02  0.00000000000E+00 0.  1.
         25    2    1    2    0    0 -0.82089623200E+02  0.26489634709E+02  0.15895490752E+03  0.21992117700E+03  0.12513294723E+03 0.  0.
         23    2    1    2    0    0  0.82089623200E+02 -0.26489634709E+02  0.51184898803E+02  0.13481634193E+03  0.90084100719E+02 0.  0.
          5    1    3    3  502    0  0.26329900565E+02 -0.19230243298E+02  0.23270312551E+02  0.40274629325E+02  0.41800000000E+01 0.  1.
         -5    1    3    3    0  502 -0.10841952377E+03  0.45719878007E+02  0.13568459497E+03  0.17964654767E+03  0.41800000000E+01 0.  1.
        -11    1    4    4    0    0  0.79404557564E+02  0.14342658702E+02  0.47732070530E+02  0.93750446280E+02  0.00000000000E+00 0.  1.
         11    1    4    4    0    0  0.26850656363E+01 -0.40832293411E+02  0.34528282735E+01  0.41065895653E+02  0.00000000000E+00 0. -1.
</event>
<event>
 8    1  0.6627806E-009  0.2167906E+03  0.7561462E-02  0.1136299E+00
         -2   -1    0    0    0  501 -0.00000000000E+00  0.00000000000E+00  0.95467568417E+02  0.95467568417E+02  0.00000000000E+00 0.  1.
          2   -1    0    0  501    0  0.00000000000E+00 -0.00000000000E+00 -0.71098513180E+03  0.71098513180E+03  0.00000000000E+00 0. -1.
         25    2    1    2    0    0 -0.55102608874E+01  0.21651864791E+03 -0.46301600095E+03  0.52625538648E+03  0.12510086650E+03 0.  0.
         23    2    1    2    0    0  0.55102608874E+01 -0.21651864791E+03 -0.15250156244E+03  0.28019731374E+03  0.91340682114E+02 0.  0.
          5    1    3    3  502    0 -0.65436000523E+00  0.16743491921E+03 -0.44164776303E+03  0.47234002514E+03  0.41800000000E+01 0.  1.
         -5    1    3    3    0  502 -0.48559008822E+01  0.49083728706E+02 -0.21368237914E+02  0.53915361342E+02  0.41800000000E+01 0.  1.
        -11    1    4    4    0    0  0.26365514473E+01 -0.78674326960E+02 -0.11125137555E+03  0.13628451742E+03  0.00000000000E+00 0. -1.
         11    1    4    4    0    0  0.28737094401E+01 -0.13784432095E+03 -0.41250186885E+02  0.14391279632E+03  0.00000000000E+00 0.  1.
</event>
<event>
 8    1  0.6627806E-009  0.9697151E+02  0.7561462E-02  0.1286796E+00
          1   -1    0    0  501    0  0.00000000000E+00  0.00000000000E+00  0.14717145510E+03  0.14717145510E+03  0.00000000000E+00 0. -1.
         -1   -1    0    0    0  501 -0.00000000000E+00 -0.00000000000E+00 -0.13142573979E+03  0.13142573979E+03  0.00000000000E+00 0.  1.
         25    2    1    2    0    0  0.49687698444E+02 -0.64653165540E+02  0.32912569096E+02  0.15290485753E+03  0.12509100312E+03 0.  0.
         23    2    1    2    0    0 -0.49687698444E+02  0.64653165540E+02 -0.17166853783E+02  0.12569233735E+03  0.94100816196E+02 0.  0.
          5    1    3    3  502    0  0.31660629451E+02 -0.26023792460E+01  0.70920473792E+02  0.77822579229E+02  0.41800000000E+01 0.  1.
         -5    1    3    3    0  502  0.18027068994E+02 -0.62050786294E+02 -0.38007904696E+02  0.75082278306E+02  0.41800000000E+01 0.  1.
        -11    1    4    4    0    0  0.89030501591E+01  0.24642817808E+02  0.30506788908E+02  0.40214387241E+02  0.00000000000E+00 0. -1.
         11    1    4    4    0    0 -0.58590748603E+02  0.40010347732E+02 -0.47673642691E+02  0.85477950110E+02  0.00000000000E+00 0.  1.
</event>
<event>
 8    1  0.6627806E-009  0.7749276E+02  0.7561462E-02  0.1336321E+00
          2   -1    0    0  501    0  0.00000000000E+00  0.00000000000E+00  0.14590143949E+04  0.14590143949E+04  0.00000000000E+00 0.  1.
         -2   -1    0    0    0  501 -0.00000000000E+00 -0.00000000000E+00 -0.21933304364E+02  0.21933304364E+02  0.00000000000E+00 0. -1.
         25    2    1    2    0    0 -0.16567632100E+02  0.26366672550E+02  0.13284532240E+04  0.13346928802E+04  0.12508968064E+03 0.  0.
         23    2    1    2    0    0  0.16567632100E+02 -0.26366672550E+02  0.10862786659E+03  0.14625481913E+03  0.92848106417E+02 0.  0.
          5    1    3    3  502    0 -0.38723246658E+02 -0.20220789343E+00  0.12942820250E+03  0.13516161704E+03  0.41800000000E+01 0. -1.
         -5    1    3    3    0  502  0.22155614558E+02  0.26568880444E+02  0.11990250215E+04  0.11995312631E+04  0.41800000000E+01 0. -1.
        -11    1    4    4    0    0  0.45694834351E+02 -0.70378365962E+01  0.18881243627E+02  0.49940468472E+02  0.00000000000E+00 0. -1.
         11    1    4    4    0    0 -0.29127202250E+02 -0.19328835954E+02  0.89746622960E+02  0.96314350660E+02  0.00000000000E+00 0.  1.
</event>
<event>
 8    1  0.6627806E-009  0.9593117E+02  0.7561462E-02  0.1289093E+00
         -2   -1    0    0    0  501 -0.00000000000E+00  0.00000000000E+00  0.27783025524E+02  0.27783025524E+02  0.00000000000E+00 0.  1.
          2   -1    0    0  501    0  0.00000000000E+00 -0.00000000000E+00 -0.57545424385E+03  0.57545424385E+03  0.00000000000E+00 0. -1.
         25    2    1    2    0    0 -0.35749397097E+02 -0.42671900266E+01 -0.42309227126E+03  0.44266108237E+03  0.12508211518E+03 0.  0.
         23    2    1    2    0    0  0.35749397097E+02  0.42671900266E+01 -0.12457894706E+03  0.16057618700E+03  0.94702531529E+02 0.  0.
          5    1    3    3  502    0 -0.54279289822E+02  0.45881335707E+02 -0.30109886967E+03  0.30940158369E+03  0.41800000000E+01 0. -1.
         -5    1    3    3    0  502  0.18529892724E+02 -0.50148525734E+02 -0.12199340159E+03  0.13325949868E+03  0.41800000000E+01 0. -1.
        -11    1    4    4    0    0  0.33902390899E+02  0.27550168350E+02 -0.12953245895E+03  0.13670055525E+03  0.00000000000E+00 0. -1.
         11    1    4    4    0    0  0.18470061982E+01 -0.23282978323E+02  0.49535118870E+01  0.23875631751E+02  0.00000000000E+00 0.  1.
</event>
<event>
 8    1  0.6627806E-009  0.8770089E+02  0.7561462E-02  0.1308517E+00
          2   -1    0    0  501    0  0.00000000000E+00  0.00000000000E+00  0.46712193245E+02  0.46712193245E+02  0.00000000000E+00 0. -1.
         -2   -1    0    0    0  501 -0.00000000000E+00 -0.00000000000E+00 -0.31955298529E+03  0.31955298529E+03  0.00000000000E+00 0.  1.
         25    2    1    2    0    0 -0.22968644881E+02 -0.20362442407E+02 -0.83541513957E+02  0.15352265044E+03  0.12509129441E+03 0.  0.
         23    2    1    2    0    0  0.22968644881E+02  0.20362442407E+02 -0.18929927809E+03  0.21274252809E+03  0.92103088253E+02 0.  0.
          5    1    3    3  502    0 -0.42442725985E+02  0.82675394750E+01  0.17345795594E+02  0.46776983900E+02  0.41800000000E+01 0. -1.
         -5    1    3    3    0  502  0.19474081104E+02 -0.28629981882E+02 -0.10088730955E+03  0.10674566654E+03  0.41800000000E+01 0. -1.
        -11    1    4    4    0    0 -0.10093085039E+02 -0.32889029116E+02 -0.67331112634E+02  0.75611092641E+02  0.00000000000E+00 0.  1.
         11    1    4    4    0    0  0.33061729919E+02  0.53251471523E+02 -0.12196816546E+03  0.13713143545E+03  0.00000000000E+00 0. -1.
</event>
<event>
 8    1  0.6627806E-009  0.9333975E+02  0.7561462E-02  0.1294960E+00
         -2   -1    0    0    0  501 -0.00000000000E+00  0.00000000000E+00  0.20750407094E+03  0.20750407094E+03  0.00000000000E+00 0.  1.
          2   -1    0    0  501    0  0.00000000000E+00 -0.00000000000E+00 -0.78888655994E+02  0.78888655994E+02  0.00000000000E+00 0. -1.
         25    2    1    2    0    0  0.56776023210E+02  0.29073733751E+02  0.57423236856E+02  0.15170296775E+03  0.12509022139E+03 0.  0.
         23    2    1    2    0    0 -0.56776023210E+02 -0.29073733751E+02  0.71192178091E+02  0.13468975918E+03  0.94890495845E+02 0.  0.
          5    1    3    3  502    0  0.73718212230E+02  0.31311494632E+02 -0.11092263546E+02  0.80964777657E+02  0.41800000000E+01 0. -1.
         -5    1    3    3    0  502 -0.16942189019E+02 -0.22377608805E+01  0.68515500402E+02  0.70738190095E+02  0.41800000000E+01 0. -1.
        -11    1    4    4    0    0 -0.66637819967E+02 -0.99612224338E+01  0.85500293650E+02  0.10885828042E+03  0.00000000000E+00 0.  1.
         11    1    4    4    0    0  0.98617967566E+01 -0.19112511317E+02 -0.14308115559E+02  0.25831478761E+02  0.00000000000E+00 0. -1.
</event>
<event>
 8    1  0.6627806E-009  0.1250641E+03  0.7561462E-02  0.1234969E+00
          3   -1    0    0  501    0  0.00000000000E+00  0.00000000000E+00  0.32089014995E+03  0.32089014995E+03  0.00000000000E+00 0. -1.
         -3   -1    0    0    0  501 -0.00000000000E+00 -0.00000000000E+00 -0.61303553743E+02  0.61303553743E+02  0.00000000000E+00 0.  1.
         25    2    1    2    0    0 -0.50208482557E+02  0.71131353392E+02  0.13276248273E+03  0.20212682059E+03  0.12509521823E+03 0.  0.
         23    2    1    2    0    0  0.50208482557E+02 -0.71131353392E+02  0.12682411347E+03  0.18006688310E+03  0.93590413375E+02 0.  0.
          5    1    3    3  502    0 -0.58670264675E+02 -0.10144342908E+02  0.20291622345E+02  0.63042287295E+02  0.41800000000E+01 0. -1.
         -5    1    3    3    0  502  0.84617821179E+01  0.81275696299E+02  0.11247086038E+03  0.13908453329E+03  0.41800000000E+01 0. -1.
        -11    1    4    4    0    0 -0.39246815899E+01  0.10194629050E+02  0.61690181404E+02  0.62649916749E+02  0.00000000000E+00 0. -1.
         11    1    4    4    0    0  0.54133164147E+02 -0.81325982442E+02  0.65133932071E+02  0.11741696635E+03  0.00000000000E+00 0.  1.
</event>
<event>
 8    1  0.6627806E-009  0.1046024E+03  0.7561462E-02  0.1270905E+00
          2   -1    0    0  501    0  0.00000000000E+00  0.00000000000E+00  0.34347330975E+03  0.34347330975E+03  0.00000000000E+00 0. -1.
         -2   -1    0    0    0  501 -0.00000000000E+00 -0.00000000000E+00 -0.45720926741E+02  0.45720926741E+02  0.00000000000E+00 0.  1.
         25    2    1    2    0    0  0.47896787211E+02  0.26316196595E+02  0.16099322867E+03  0.21107429762E+03  0.12508754938E+03 0.  0.
         23    2    1    2    0    0 -0.47896787211E+02 -0.26316196595E+02  0.13675915434E+03  0.17811993888E+03  0.10018483868E+03 0.  0.
          5    1    3    3  502    0 -0.14642543349E+02  0.62297082622E+02  0.71638997664E+02  0.96150657643E+02  0.41800000000E+01 0.  1.
         -5    1    3    3    0  502  0.62539330560E+02 -0.35980886027E+02  0.89354231007E+02  0.11492363997E+03  0.41800000000E+01 0.  1.
        -11    1    4    4    0    0  0.43641959138E+01 -0.19636306179E+02  0.12166157047E+03  0.12331329392E+03  0.00000000000E+00 0. -1.
         11    1    4    4    0    0 -0.52260983125E+02 -0.66798904153E+01  0.15097583868E+02  0.54806644960E+02  0.00000000000E+00 0.  1.
</event>
<event>
 8    1  0.6627806E-009  0.1312911E+03  0.7561462E-02  0.1225552E+00
          2   -1    0    0  501    0  0.00000000000E+00  0.00000000000E+00  0.46698089161E+02  0.46698089161E+02  0.00000000000E+00 0. -1.
         -2   -1    0    0    0  501 -0.00000000000E+00 -0.00000000000E+00 -0.83795146755E+03  0.83795146755E+03  0.00000000000E+00 0.  1.
         25    2    1    2    0    0 -0.11504941686E+03 -0.20242299565E+02 -0.67285633418E+03  0.69428356765E+03  0.12509159384E+03 0.  0.
         23    2    1    2    0    0  0.11504941686E+03  0.20242299565E+02 -0.11839704422E+03  0.19036598907E+03  0.92602541555E+02 0.  0.
          5    1    3    3  502    0 -0.24830286990E+02 -0.27958035202E+02 -0.39796087760E+02  0.54766740686E+02  0.41800000000E+01 0. -1.
         -5    1    3    3    0  502 -0.90219129875E+02  0.77157356368E+01 -0.63306024642E+03  0.63951682696E+03  0.41800000000E+01 0. -1.
        -11    1    4    4    0    0 -0.32762741567E+01 -0.11373024154E+02 -0.47280809399E+02  0.48739661346E+02  0.00000000000E+00 0.  1.
         11    1    4    4    0    0  0.11832569102E+03  0.31615323720E+02 -0.71116234817E+02  0.14162632772E+03  0.00000000000E+00 0. -1.
</event>
<event>
 8    1  0.6627806E-009  0.1377375E+03  0.7561462E-02  0.1216406E+00
          2   -1    0    0  501    0  0.00000000000E+00  0.00000000000E+00  0.19937944710E+03  0.19937944710E+03  0.00000000000E+00 0.  1.
         -2   -1    0    0    0  501 -0.00000000000E+00 -0.00000000000E+00 -0.10330881353E+03  0.10330881353E+03  0.00000000000E+00 0. -1.
         25    2    1    2    0    0 -0.41147964404E+02 -0.65632256481E+02  0.37491485087E+02  0.15183444958E+03  0.12508933032E+03 0.  0.
         23    2    1    2    0    0  0.41147964404E+02  0.65632256481E+02  0.58579148482E+02  0.15085381106E+03  0.11543226416E+03 0.  0.
          5    1    3    3  502    0  0.27467899475E+02  0.14784648575E+02 -0.13676126699E+02  0.34315888107E+02  0.41800000000E+01 0. -1.
         -5    1    3    3    0  502 -0.68615863879E+02 -0.80416905056E+02  0.51167611786E+02  0.11751856147E+03  0.41800000000E+01 0. -1.
        -11    1    4    4    0    0  0.67059431894E+02 -0.62650077918E+00  0.36552353877E+02  0.76376923760E+02  0.00000000000E+00 0.  1.
         11    1    4    4    0    0 -0.25911467489E+02  0.66258757260E+02  0.22026794605E+02  0.74476887298E+02  0.00000000000E+00 0. -1.
</event>
<event>
 8    1  0.6627806E-009  0.1276238E+03  0.7561462E-02  0.1231025E+00
          1   -1    0    0  501    0  0.00000000000E+00  0.00000000000E+00  0.51864148332E+03  0.51864148332E+03  0.00000000000E+00 0. -1.
         -1   -1    0    0    0  501 -0.00000000000E+00 -0.00000000000E+00 -0.38513546075E+02  0.38513546075E+02  0.00000000000E+00 0.  1.
         25    2    1    2    0    0  0.22985641058E+02  0.74993839057E+02  0.34941019283E+03  0.37932475638E+03  0.12508945743E+03 0.  0.
         23    2    1    2    0    0 -0.22985641058E+02 -0.74993839057E+02  0.13071774441E+03  0.17783027301E+03  0.91564522078E+02 0.  0.
          5    1    3    3  502    0 -0.24454255352E+02 -0.20074416655E+02  0.14978868033E+03  0.15315062508E+03  0.41800000000E+01 0. -1.
         -5    1    3    3    0  502  0.47439896410E+02  0.95068255712E+02  0.19962151250E+03  0.22617413130E+03  0.41800000000E+01 0. -1.
        -11    1    4    4    0    0  0.27278806568E+02 -0.67918038883E+00  0.50871255381E+02  0.57727629414E+02  0.00000000000E+00 0.  1.
         11    1    4    4    0    0 -0.50264447626E+02 -0.74314658668E+02  0.79846489033E+02  0.12010264360E+03  0.00000000000E+00 0. -1.
</event>
<event>
 8    1  0.6627806E-009  0.1265406E+03  0.7561462E-02  0.1232681E+00
         -2   -1    0    0    0  501 -0.00000000000E+00  0.00000000000E+00  0.14029163829E+02  0.14029163829E+02  0.00000000000E+00 0. -1.
          2   -1    0    0  501    0  0.00000000000E+00 -0.00000000000E+00 -0.21398132210E+04  0.21398132210E+04  0.00000000000E+00 0.  1.
         25    2    1    2    0    0  0.16214735477E+02  0.10172743840E+03 -0.16667092724E+04  0.16745680666E+04  0.12508805508E+03 0.  0.
         23    2    1    2    0    0 -0.16214735477E+02 -0.10172743840E+03 -0.45907478472E+03  0.47927431820E+03  0.91339064764E+02 0.  0.
          5    1    3    3  502    0 -0.38620187484E+02  0.57187429092E+01 -0.20834055182E+03  0.21200820935E+03  0.41800000000E+01 0.  1.
         -5    1    3    3    0  502  0.54834922961E+02  0.96008695490E+02 -0.14583687206E+04  0.14625598573E+04  0.41800000000E+01 0.  1.
        -11    1    4    4    0    0 -0.15556463025E+02 -0.83681053324E+02 -0.45189520097E+03  0.45984105394E+03  0.00000000000E+00 0.  1.
         11    1    4    4    0    0 -0.65827245263E+00 -0.18046385076E+02 -0.71795837422E+01  0.19433264256E+02  0.00000000000E+00 0. -1.
</event>
<event>
 8    1  0.6627806E-009  0.9915499E+02  0.7561462E-02  0.1282083E+00
          2   -1    0    0  501    0  0.00000000000E+00  0.00000000000E+00  0.29400999975E+03  0.29400999975E+03  0.00000000000E+00 0. -1.
         -2   -1    0    0    0  501 -0.00000000000E+00 -0.00000000000E+00 -0.72720394372E+02  0.72720394372E+02  0.00000000000E+00 0.  1.
         25    2    1    2    0    0 -0.55444560071E+02  0.11794834536E+02  0.21476187756E+03  0.25491815467E+03  0.12508950461E+03 0.  0.
         23    2    1    2    0    0  0.55444560071E+02 -0.11794834536E+02  0.65277278189E+01  0.11181223946E+03  0.96156894181E+02 0.  0.
          5    1    3    3  502    0  0.26561065556E+02 -0.30889564100E+02  0.40440853288E+02  0.57555107405E+02  0.41800000000E+01 0. -1.
         -5    1    3    3    0  502 -0.82005625627E+02  0.42684398637E+02  0.17432102427E+03  0.19736304726E+03  0.41800000000E+01 0. -1.
        -11    1    4    4    0    0  0.34970108459E+02  0.84964046297E+01 -0.42036774090E+02  0.55337037806E+02  0.00000000000E+00 0.  1.
         11    1    4    4    0    0  0.20474451612E+02 -0.20291239166E+02  0.48564501909E+02  0.56475201650E+02  0.00000000000E+00 0. -1.
</event>
<event>
 8    1  0.6627806E-009  0.1048057E+03  0.7561462E-02  0.1270503E+00
         -1   -1    0    0    0  501 -0.00000000000E+00  0.00000000000E+00  0.36496842237E+03  0.36496842237E+03  0.00000000000E+00 0.  1.
          1   -1    0    0  501    0  0.00000000000E+00 -0.00000000000E+00 -0.67914559102E+02  0.67914559102E+02  0.00000000000E+00 0. -1.
         25    2    1    2    0    0 -0.11792706100E+02  0.71430986505E+02  0.38295826434E+02  0.14951629755E+03  0.12508836541E+03 0.  0.
         23    2    1    2    0    0  0.11792706100E+02 -0.71430986505E+02  0.25875803683E+03  0.28336668392E+03  0.89997234275E+02 0.  0.
          5    1    3    3  502    0  0.47132167808E+01 -0.95424398992E+01 -0.36332424826E+02  0.38089238184E+02  0.41800000000E+01 0. -1.
         -5    1    3    3    0  502 -0.16505922881E+02  0.80973426405E+02  0.74628251260E+02  0.11142705937E+03  0.41800000000E+01 0. -1.
        -11    1    4    4    0    0  0.30846642440E+02 -0.86053256435E+02  0.20883800500E+03  0.22796927562E+03  0.00000000000E+00 0. -1.
         11    1    4    4    0    0 -0.19053936340E+02  0.14622269930E+02  0.49920031833E+02  0.55397408298E+02  0.00000000000E+00 0.  1.
</event>
<event>
 8    1  0.6627806E-009  0.1093573E+03  0.7561462E-02  0.1261765E+00
          1   -1    0    0  501    0  0.00000000000E+00  0.00000000000E+00  0.45095183668E+03  0.45095183668E+03  0.00000000000E+00 0. -1.
         -1   -1    0    0    0  501 -0.00000000000E+00 -0.00000000000E+00 -0.52057833385E+02  0.52057833385E+02  0.00000000000E+00 0.  1.
         25    2    1    2    0    0  0.52620124774E+02  0.27509182192E+01  0.58991980777E+02  0.14801088420E+03  0.12510284954E+03 0.  0.
         23    2    1    2    0    0 -0.52620124774E+02 -0.27509182192E+01  0.33990202252E+03  0.35499878587E+03  0.87831133288E+02 0.  0.
          5    1    3    3  502    0  0.52082383278E+02 -0.55170666111E+02  0.21813060905E+02  0.79054785263E+02  0.41800000000E+01 0. -1.
         -5    1    3    3    0  502  0.53774149615E+00  0.57921584330E+02  0.37178919872E+02  0.68956098933E+02  0.41800000000E+01 0. -1.
        -11    1    4    4    0    0  0.15055066276E+02 -0.74857201323E+01  0.13334845639E+02  0.21459476571E+02  0.00000000000E+00 0.  1.
         11    1    4    4    0    0 -0.67675191050E+02  0.47348019131E+01  0.32656717688E+03  0.33353930930E+03  0.00000000000E+00 0. -1.
</event>
<event>
 8    1  0.6627806E-009  0.1133439E+03  0.7561462E-02  0.1254500E+00
         -1   -1    0    0    0  501 -0.00000000000E+00  0.00000000000E+00  0.14229270687E+03  0.14229270687E+03  0.00000000000E+00 0.  1.
          1   -1    0    0  501    0  0.00000000000E+00 -0.00000000000E+00 -0.10203396126E+03  0.10203396126E+03  0.00000000000E+00 0. -1.
         25    2    1    2    0    0 -0.32346396577E+02  0.39546561129E+02  0.88167652338E+01  0.13540854827E+03  0.12509004647E+03 0.  0.
         23    2    1    2    0    0  0.32346396577E+02 -0.39546561129E+02  0.31441980386E+02  0.10891811986E+03  0.90908409042E+02 0.  0.
          5    1    3    3  502    0 -0.77021027197E+02  0.27260550699E+02  0.25958625404E+02  0.85829475635E+02  0.41800000000E+01 0.  1.
         -5    1    3    3    0  502  0.44674630620E+02  0.12286010430E+02 -0.17141860171E+02  0.49579072636E+02  0.41800000000E+01 0.  1.
        -11    1    4    4    0    0 -0.25648987781E+02 -0.30184564175E+02  0.30787679820E+02  0.50168313877E+02  0.00000000000E+00 0. -1.
         11    1    4    4    0    0  0.57995384358E+02 -0.93619969546E+01  0.65430056606E+00  0.58749805983E+02  0.00000000000E+00 0.  1.
</event>
<event>
 8    1  0.6627806E-009  0.2148079E+03  0.7561462E-02  0.1137814E+00
         -1   -1    0    0    0  501 -0.00000000000E+00  0.00000000000E+00  0.53146007376E+03  0.53146007376E+03  0.00000000000E+00 0.  1.
          1   -1    0    0  501    0  0.00000000000E+00 -0.00000000000E+00 -0.11583016772E+03  0.11583016772E+03  0.00000000000E+00 0. -1.
         25    2    1    2    0    0  0.10618668067E+02 -0.21039639668E+03  0.31403762172E+03  0.39830511894E+03  0.12509172661E+03 0.  0.
         23    2    1    2    0    0 -0.10618668067E+02  0.21039639668E+03  0.10159228432E+03  0.24898512254E+03  0.85400229293E+02 0.  0.
          5    1    3    3  502    0 -0.22936762971E+02 -0.77449439272E+02  0.36543188594E+02  0.88754649296E+02  0.41800000000E+01 0.  1.
         -5    1    3    3    0  502  0.33555431038E+02 -0.13294695741E+03  0.27749443313E+03  0.30955046964E+03  0.41800000000E+01 0.  1.
        -11    1    4    4    0    0  0.34037437358E+01  0.12234649531E+03  0.10276917066E+03  0.15981787392E+03  0.00000000000E+00 0.  1.
         11    1    4    4    0    0 -0.14022411803E+02  0.88049901375E+02 -0.11768863427E+01  0.89167248620E+02  0.00000000000E+00 0. -1.
</event>
<event>
 8    1  0.6627806E-009  0.9470893E+02  0.7561462E-02  0.1291833E+00
         -1   -1    0    0    0  501 -0.00000000000E+00  0.00000000000E+00  0.42388401109E+02  0.42388401109E+02  0.00000000000E+00 0.  1.
          1   -1    0    0  501    0  0.00000000000E+00 -0.00000000000E+00 -0.38863027685E+03  0.38863027685E+03  0.00000000000E+00 0. -1.
         25    2    1    2    0    0  0.34674447447E+02  0.57998058157E+02 -0.18210181674E+03  0.23102924870E+03  0.12508936822E+03 0.  0.
         23    2    1    2    0    0 -0.34674447447E+02 -0.57998058157E+02 -0.16414005900E+03  0.19998942925E+03  0.92128827122E+02 0.  0.
          5    1    3    3  502    0  0.26594435384E+02  0.11410978517E+02  0.11704253527E+02  0.31495021428E+02  0.41800000000E+01 0. -1.
         -5    1    3    3    0  502  0.80800120630E+01  0.46587079641E+02 -0.19380607026E+03  0.19953422728E+03  0.41800000000E+01 0. -1.
        -11    1    4    4    0    0  0.28965484476E+02 -0.39814645673E+01 -0.58047614855E+02  0.64995207065E+02  0.00000000000E+00 0.  1.
         11    1    4    4    0    0 -0.63639931924E+02 -0.54016593590E+02 -0.10609244415E+03  0.13499422219E+03  0.00000000000E+00 0. -1.
</event>
<event>
 8    1  0.6627806E-009  0.1081687E+03  0.7561462E-02  0.1263999E+00
          1   -1    0    0  501    0  0.00000000000E+00  0.00000000000E+00  0.91211286730E+03  0.91211286730E+03  0.00000000000E+00 0. -1.
         -1   -1    0    0    0  501 -0.00000000000E+00 -0.00000000000E+00 -0.21151016692E+02  0.21151016692E+02  0.00000000000E+00 0.  1.
         25    2    1    2    0    0 -0.49969915602E+02  0.70358469500E+02  0.48742175155E+03  0.51056289904E+03  0.12508878169E+03 0.  0.
         23    2    1    2    0    0  0.49969915602E+02 -0.70358469500E+02  0.40354009906E+03  0.42270098495E+03  0.91565301449E+02 0.  0.
          5    1    3    3  502    0 -0.83590470219E+01 -0.13792651394E+02  0.30413587372E+03  0.30459187938E+03  0.41800000000E+01 0.  1.
         -5    1    3    3    0  502 -0.41610868580E+02  0.84151120893E+02  0.18328587783E+03  0.20597101967E+03  0.41800000000E+01 0.  1.
        -11    1    4    4    0    0  0.55857599872E+02 -0.27163410149E+02  0.34010583003E+03  0.34573096179E+03  0.00000000000E+00 0. -1.
         11    1    4    4    0    0 -0.58876842701E+01 -0.43195059351E+02  0.63434269026E+02  0.76970023160E+02  0.00000000000E+00 0.  1.
</event>
<event>
 8    1  0.6627806E-009  0.1219733E+03  0.7561462E-02  0.1239877E+00
          2   -1    0    0  501    0  0.00000000000E+00  0.00000000000E+00  0.71406391286E+03  0.71406391286E+03  0.00000000000E+00 0. -1.
         -2   -1    0    0    0  501 -0.00000000000E+00 -0.00000000000E+00 -0.35991938311E+02  0.35991938311E+02  0.00000000000E+00 0.  1.
         25    2    1    2    0    0 -0.53516004453E+02 -0.67306548283E+02  0.54976963699E+03  0.57034935793E+03  0.12513034069E+03 0.  0.
         23    2    1    2    0    0  0.53516004453E+02  0.67306548283E+02  0.12830233756E+03  0.17970649324E+03  0.91862939837E+02 0.  0.
          5    1    3    3  502    0  0.18426980480E+02 -0.75643253394E+02  0.24718137654E+03  0.25918634359E+03  0.41800000000E+01 0.  1.
         -5    1    3    3    0  502 -0.71942984933E+02  0.83367051110E+01  0.30258826044E+03  0.31116301434E+03  0.41800000000E+01 0.  1.
        -11    1    4    4    0    0 -0.28866502333E+01  0.18865489272E+02  0.97297423539E+02  0.99151540898E+02  0.00000000000E+00 0. -1.
         11    1    4    4    0    0  0.56402654686E+02  0.48441059011E+02  0.31004914022E+02  0.80554952345E+02  0.00000000000E+00 0.  1.
</event>
<event>
 8    1  0.6627806E-009  0.8510964E+02  0.7561462E-02  0.1315146E+00
          3   -1    0    0  501    0  0.00000000000E+00  0.00000000000E+00  0.23282069591E+03  0.23282069591E+03  0.00000000000E+00 0. -1.
         -3   -1    0    0    0  501 -0.00000000000E+00 -0.00000000000E+00 -0.67319220948E+02  0.67319220948E+02  0.00000000000E+00 0.  1.
         25    2    1    2    0    0  0.70264215426E+00  0.61479507697E+02  0.90699397692E+02  0.16629469495E+03  0.12508925315E+03 0.  0.
         23    2    1    2    0    0 -0.70264215426E+00 -0.61479507697E+02  0.74802077271E+02  0.13384522191E+03  0.92406542469E+02 0.  0.
          5    1    3    3  502    0 -0.13250847922E+02  0.40469872510E+02  0.12000501992E+03  0.12740515201E+03  0.41800000000E+01 0.  1.
         -5    1    3    3    0  502  0.13953490076E+02  0.21009635187E+02 -0.29305622230E+02  0.38889542943E+02  0.41800000000E+01 0.  1.
        -11    1    4    4    0    0 -0.10840024504E+02 -0.80011254479E+02  0.78254805172E+02  0.11244163600E+03  0.00000000000E+00 0.  1.
         11    1    4    4    0    0  0.10137382350E+02  0.18531746782E+02 -0.34527279010E+01  0.21403585906E+02  0.00000000000E+00 0. -1.
</event>
<event>
 8    1  0.6627806E-009  0.1928244E+03  0.7561462E-02  0.1155938E+00
         -2   -1    0    0    0  501 -0.00000000000E+00  0.00000000000E+00  0.57423390923E+02  0.57423390923E+02  0.00000000000E+00 0.  1.
          2   -1    0    0  501    0  0.00000000000E+00 -0.00000000000E+00 -0.81065624363E+03  0.81065624363E+03  0.00000000000E+00 0. -1.
         25    2    1    2    0    0 -0.15747500419E+03 -0.94391651531E+02 -0.45816501175E+03  0.50918900005E+03  0.12510035555E+03 0.  0.
         23    2    1    2    0    0  0.15747500419E+03  0.94391651531E+02 -0.29506784095E+03  0.35889063450E+03  0.89606338730E+02 0.  0.
          5    1    3    3  502    0 -0.15494385645E+03 -0.10502092579E+03 -0.32164969925E+03  0.37217333990E+03  0.41800000000E+01 0.  1.
         -5    1    3    3    0  502 -0.25311477417E+01  0.10629274260E+02 -0.13651531249E+03  0.13701566015E+03  0.41800000000E+01 0.  1.
        -11    1    4    4    0    0  0.79742769169E+02  0.67480204447E+02 -0.23457341883E+03  0.25678235152E+03  0.00000000000E+00 0. -1.
         11    1    4    4    0    0  0.77732235022E+02  0.26911447084E+02 -0.60494422122E+02  0.10210828298E+03  0.00000000000E+00 0.  1.
</event>
<event>
 8    1  0.6627806E-009  0.1181057E+03  0.7561462E-02  0.1246255E+00
         -1   -1    0    0    0  501 -0.00000000000E+00  0.00000000000E+00  0.26900136749E+03  0.26900136749E+03  0.00000000000E+00 0.  1.
          1   -1    0    0  501    0  0.00000000000E+00 -0.00000000000E+00 -0.10874372720E+03  0.10874372720E+03  0.00000000000E+00 0. -1.
         25    2    1    2    0    0 -0.43002197267E+02  0.11608878554E+02 -0.50590374456E+02  0.14209499351E+03  0.12509055185E+03 0.  0.
         23    2    1    2    0    0  0.43002197267E+02 -0.11608878554E+02  0.21084801474E+03  0.23565010118E+03  0.95342172371E+02 0.  0.
          5    1    3    3  502    0  0.42240354331E+02 -0.10711373193E+02 -0.95819099853E+01  0.44813685953E+02  0.41800000000E+01 0. -1.
         -5    1    3    3    0  502 -0.85242551599E+02  0.22320251748E+02 -0.41008464471E+02  0.97281307554E+02  0.41800000000E+01 0. -1.
        -11    1    4    4    0    0  0.58918994881E+02  0.25225818115E+02  0.14509676393E+03  0.15862175374E+03  0.00000000000E+00 0.  1.
         11    1    4    4    0    0 -0.15916797614E+02 -0.36834696669E+02  0.65751250815E+02  0.77028347436E+02  0.00000000000E+00 0. -1.
</event>
<event>
 8    1  0.6627806E-009  0.9259670E+02  0.7561462E-02  0.1296683E+00
         -2   -1    0    0    0  501 -0.00000000000E+00  0.00000000000E+00  0.96692913096E+01  0.96692913096E+01  0.00000000000E+00 0.  1.
          2   -1    0    0  501    0  0.00000000000E+00 -0.00000000000E+00 -0.16226615819E+04  0.16226615819E+04  0.00000000000E+00 0. -1.
         25    2    1    2    0    0 -0.32967254315E+01 -0.36276338836E+02 -0.13103736415E+04  0.13168346199E+04  0.12508994628E+03 0.  0.
         23    2    1    2    0    0  0.32967254315E+01  0.36276338836E+02 -0.30261864905E+03  0.31549625327E+03  0.81443218985E+02 0.  0.
          5    1    3    3  502    0  0.32467666357E+02  0.22549850270E+02 -0.17900193557E+03  0.18336251101E+03  0.41800000000E+01 0. -1.
         -5    1    3    3    0  502 -0.35764391788E+02 -0.58826189106E+02 -0.11313717059E+04  0.11334721089E+04  0.41800000000E+01 0. -1.
        -11    1    4    4    0    0  0.11853090936E+02 -0.17984799226E+02 -0.27418034572E+02  0.34866852277E+02  0.00000000000E+00 0.  1.
         11    1    4    4    0    0 -0.85563655040E+01  0.54261138062E+02 -0.27520061447E+03  0.28062940099E+03  0.00000000000E+00 0. -1.
</event>
<event>
 8    1  0.6627806E-009  0.1066231E+03  0.7561462E-02  0.1266954E+00
         -2   -1    0    0    0  501 -0.00000000000E+00  0.00000000000E+00  0.38658163280E+02  0.38658163280E+02  0.00000000000E+00 0.  1.
          2   -1    0    0  501    0  0.00000000000E+00 -0.00000000000E+00 -0.32499627410E+03  0.32499627410E+03  0.00000000000E+00 0. -1.
         25    2    1    2    0    0 -0.22995361162E+02 -0.13860583825E+02 -0.15349691689E+03  0.19982445037E+03  0.12509038752E+03 0.  0.
         23    2    1    2    0    0  0.22995361162E+02  0.13860583825E+02 -0.13284119392E+03  0.16382998701E+03  0.92046615485E+02 0.  0.
          5    1    3    3  502    0 -0.68385317133E+02 -0.24967857159E+02 -0.57098789993E+02  0.92615817813E+02  0.41800000000E+01 0. -1.
         -5    1    3    3    0  502  0.45389955971E+02  0.11107273334E+02 -0.96398126901E+02  0.10720863255E+03  0.41800000000E+01 0. -1.
        -11    1    4    4    0    0  0.50346592925E+02 -0.16084676561E+02 -0.93050707571E+02  0.10701369267E+03  0.00000000000E+00 0. -1.
         11    1    4    4    0    0 -0.27351231763E+02  0.29945260386E+02 -0.39790486349E+02  0.56816294339E+02  0.00000000000E+00 0.  1.
</event>
<event>
 8    1  0.6627806E-009  0.1040701E+03  0.7561462E-02  0.1271963E+00
         -1   -1    0    0    0  501 -0.00000000000E+00  0.00000000000E+00  0.30352128084E+02  0.30352128084E+02  0.00000000000E+00 0.  1.
          1   -1    0    0  501    0  0.00000000000E+00 -0.00000000000E+00 -0.45841700159E+03  0.45841700159E+03  0.00000000000E+00 0. -1.
         25    2    1    2    0    0  0.37965101599E+02 -0.29005929660E+02 -0.25652164143E+03  0.28936827564E+03  0.12509178043E+03 0.  0.
         23    2    1    2    0    0 -0.37965101599E+02  0.29005929660E+02 -0.17154323207E+03  0.19940085403E+03  0.89726959288E+02 0.  0.
          5    1    3    3  502    0 -0.29375221157E+02 -0.39805366284E+02 -0.18026778874E+03  0.18697946106E+03  0.41800000000E+01 0.  1.
         -5    1    3    3    0  502  0.67340322756E+02  0.10799436624E+02 -0.76253852693E+02  0.10238881458E+03  0.41800000000E+01 0.  1.
        -11    1    4    4    0    0 -0.32591735555E+02 -0.21712523748E+02 -0.31179097718E+02  0.50057876988E+02  0.00000000000E+00 0.  1.
         11    1    4    4    0    0 -0.53733660433E+01  0.50718453408E+02 -0.14036413436E+03  0.14934297704E+03  0.00000000000E+00 0. -1.
</event>
<event>
 8    1  0.6627806E-009  0.9383162E+02  0.7561462E-02  0.1293829E+00
         -1   -1    0    0    0  501 -0.00000000000E+00  0.00000000000E+00  0.25958802625E+02  0.25958802625E+02  0.00000000000E+00 0.  1.
          1   -1    0    0  501    0  0.00000000000E+00 -0.00000000000E+00 -0.41842439370E+03  0.41842439370E+03  0.00000000000E+00 0. -1.
         25    2    1    2    0    0 -0.28569177804E+02 -0.17835361846E+02 -0.27175523697E+03  0.30105326834E+03  0.12509142057E+03 0.  0.
         23    2    1    2    0    0  0.28569177804E+02  0.17835361846E+02 -0.12071035410E+03  0.14332992799E+03  0.69557031402E+02 0.  0.
          5    1    3    3  502    0  0.46214658655E+02  0.13471118564E+02 -0.10533938917E+03  0.11589273067E+03  0.41800000000E+01 0.  1.
         -5    1    3    3    0  502 -0.74783836459E+02 -0.31306480410E+02 -0.16641584780E+03  0.18516053767E+03  0.41800000000E+01 0.  1.
        -11    1    4    4    0    0  0.28557185748E+02  0.32634488265E+02 -0.33299708981E+02  0.54675344538E+02  0.00000000000E+00 0.  1.
         11    1    4    4    0    0  0.11992056202E-01 -0.14799126419E+02 -0.87410645117E+02  0.88654583448E+02  0.00000000000E+00 0. -1.
</event>
<event>
 8    1  0.6627806E-009  0.6464574E+02  0.7561462E-02  0.1379309E+00
          1   -1    0    0  501    0  0.00000000000E+00  0.00000000000E+00  0.23583000721E+03  0.23583000721E+03  0.00000000000E+00 0. -1.
         -1   -1    0    0    0  501 -0.00000000000E+00 -0.00000000000E+00 -0.55705490075E+02  0.55705490075E+02  0.00000000000E+00 0.  1.
         25    2    1    2    0    0 -0.23052458645E+02 -0.18980482008E+02  0.11630255928E+03  0.17339297047E+03  0.12508861805E+03 0.  0.
         23    2    1    2    0    0  0.23052458645E+02  0.18980482008E+02  0.63821957860E+02  0.11814252682E+03  0.94830057426E+02 0.  0.
          5    1    3    3  502    0 -0.42659238788E+02  0.26020943677E+02  0.11345956830E+03  0.12404614545E+03  0.41800000000E+01 0. -1.
         -5    1    3    3    0  502  0.19606780143E+02 -0.45001425685E+02  0.28429909820E+01  0.49346825014E+02  0.41800000000E+01 0. -1.
        -11    1    4    4    0    0  0.10812587066E+02  0.96479090964E+01 -0.24513343498E+02  0.28476274308E+02  0.00000000000E+00 0.  1.
         11    1    4    4    0    0  0.12239871579E+02  0.93325729114E+01  0.88335301359E+02  0.89666252512E+02  0.00000000000E+00 0. -1.
</event>
<event>
 8    1  0.6627806E-009  0.1112700E+03  0.7561462E-02  0.1258236E+00
          2   -1    0    0  501    0  0.00000000000E+00  0.00000000000E+00  0.83985184312E+03  0.83985184312E+03  0.00000000000E+00 0. -1.
         -2   -1    0    0    0  501 -0.00000000000E+00 -0.00000000000E+00 -0.20613628414E+02  0.20613628414E+02  0.00000000000E+00 0.  1.
         25    2    1    2    0    0 -0.25774967302E+02  0.69675830331E+02  0.42362479574E+03  0.44790322023E+03  0.12506101251E+03 0.  0.
         23    2    1    2    0    0  0.25774967302E+02 -0.69675830331E+02  0.39561341896E+03  0.41256225131E+03  0.90435411585E+02 0.  0.
          5    1    3    3  502    0  0.18004471460E+02  0.86084152499E+02  0.18730655719E+03  0.20696826102E+03  0.41800000000E+01 0.  1.
         -5    1    3    3    0  502 -0.43779438762E+02 -0.16408322168E+02  0.23631823855E+03  0.24093495920E+03  0.41800000000E+01 0.  1.
        -11    1    4    4    0    0 -0.11697489358E+02 -0.48212987410E+01  0.31812820282E+01  0.13045947041E+02  0.00000000000E+00 0.  1.
         11    1    4    4    0    0  0.37472456660E+02 -0.64854531590E+02  0.39243213693E+03  0.39951630427E+03  0.00000000000E+00 0. -1.
</event>
<event>
 8    1  0.6627806E-009  0.1094154E+03  0.7561462E-02  0.1261656E+00
          2   -1    0    0  501    0  0.00000000000E+00  0.00000000000E+00  0.30388649608E+03  0.30388649608E+03  0.00000000000E+00 0. -1.
         -2   -1    0    0    0  501 -0.00000000000E+00 -0.00000000000E+00 -0.49221663635E+02  0.49221663635E+02  0.00000000000E+00 0.  1.
         25    2    1    2    0    0 -0.15920527630E+01  0.54174115873E+02  0.17639304799E+03  0.22292881200E+03  0.12508148695E+03 0.  0.
         23    2    1    2    0    0  0.15920527630E+01 -0.54174115873E+02  0.78271784450E+02  0.13017934771E+03  0.88785251400E+02 0.  0.
          5    1    3    3  502    0 -0.24926158698E+02  0.86318123223E+02  0.87532911927E+02  0.12550543755E+03  0.41800000000E+01 0. -1.
         -5    1    3    3    0  502  0.23334105935E+02 -0.32144007350E+02  0.88860136066E+02  0.97423374453E+02  0.41800000000E+01 0. -1.
        -11    1    4    4    0    0  0.33046250497E+02 -0.96341656394E+01 -0.44136772271E+00  0.34424796658E+02  0.00000000000E+00 0.  1.
         11    1    4    4    0    0 -0.31454197734E+02 -0.44539950234E+02  0.78713152173E+02  0.95754551051E+02  0.00000000000E+00 0. -1.
</event>
<event>
 8    1  0.6627806E-009  0.1366990E+03  0.7561462E-02  0.1217841E+00
         -3   -1    0    0    0  501 -0.00000000000E+00  0.00000000000E+00  0.70945378208E+02  0.70945378208E+02  0.00000000000E+00 0.  1.
          3   -1    0    0  501    0  0.00000000000E+00 -0.00000000000E+00 -0.26423672153E+03  0.26423672153E+03  0.00000000000E+00 0. -1.
         25    2    1    2    0    0  0.81707938875E+02  0.34267369942E+01 -0.96857085958E+02  0.17809166242E+03  0.12508962915E+03 0.  0.
         23    2    1    2    0    0 -0.81707938875E+02 -0.34267369942E+01 -0.96434257368E+02  0.15709043732E+03  0.93219685161E+02 0.  0.
          5    1    3    3  502    0  0.30921798207E+02 -0.60240297798E+02 -0.46490729266E+02  0.82243002078E+02  0.41800000000E+01 0. -1.
         -5    1    3    3    0  502  0.50786140668E+02  0.63667034792E+02 -0.50366356692E+02  0.95848660343E+02  0.41800000000E+01 0. -1.
        -11    1    4    4    0    0 -0.10205534419E+03  0.45392442900E+01 -0.79449266386E+02  0.12941438848E+03  0.00000000000E+00 0.  1.
         11    1    4    4    0    0  0.20347405313E+02 -0.79659812841E+01 -0.16984990981E+02  0.27676048841E+02  0.00000000000E+00 0. -1.
</event>
<event>
 8    1  0.6627806E-009  0.1342795E+03  0.7561462E-02  0.1221240E+00
         -1   -1    0    0    0  501 -0.00000000000E+00  0.00000000000E+00  0.55002817713E+02  0.55002817713E+02  0.00000000000E+00 0. -1.
          1   -1    0    0  501    0  0.00000000000E+00 -0.00000000000E+00 -0.42074766907E+03  0.42074766907E+03  0.00000000000E+00 0.  1.
         25    2    1    2    0    0  0.34426749981E+02 -0.96798448862E+02 -0.15012731371E+03  0.22077750075E+03  0.12509737688E+03 0.  0.
         23    2    1    2    0    0 -0.34426749981E+02  0.96798448862E+02 -0.21561753765E+03  0.25497298603E+03  0.89247746447E+02 0.  0.
          5    1    3    3  502    0 -0.18922550087E+02 -0.90506406931E+02 -0.45602061131E+02  0.10318184422E+03  0.41800000000E+01 0.  1.
         -5    1    3    3    0  502  0.53349300068E+02 -0.62920419314E+01 -0.10452525258E+03  0.11759565653E+03  0.41800000000E+01 0.  1.
        -11    1    4    4    0    0  0.89107300556E+01  0.71264580550E+02 -0.17866064004E+03  0.19255561755E+03  0.00000000000E+00 0.  1.
         11    1    4    4    0    0 -0.43337480037E+02  0.25533868312E+02 -0.36956897615E+02  0.62417368482E+02  0.00000000000E+00 0. -1.
</event>
<event>
 8    1  0.6627806E-009  0.1113803E+03  0.7561462E-02  0.1258035E+00
          1   -1    0    0  501    0  0.00000000000E+00  0.00000000000E+00  0.10925481806E+04  0.10925481806E+04  0.00000000000E+00 0. -1.
         -1   -1    0    0    0  501 -0.00000000000E+00 -0.00000000000E+00 -0.12051178395E+02  0.12051178395E+02  0.00000000000E+00 0.  1.
         25    2    1    2    0    0 -0.28280900421E+02  0.33146521792E+02  0.62001409304E+03  0.63400577140E+03  0.12508933354E+03 0.  0.
         23    2    1    2    0    0  0.28280900421E+02 -0.33146521792E+02  0.46048290920E+03  0.47059358763E+03  0.86690909664E+02 0.  0.
          5    1    3    3  502    0 -0.66506060337E+01  0.78864840038E+02  0.43482364581E+03  0.44198752122E+03  0.41800000000E+01 0.  1.
         -5    1    3    3    0  502 -0.21630294387E+02 -0.45718318246E+02  0.18519044723E+03  0.19201825019E+03  0.41800000000E+01 0.  1.
        -11    1    4    4    0    0 -0.69411254381E+01  0.24354835379E+02  0.72530801598E+02  0.76824829379E+02  0.00000000000E+00 0.  1.
         11    1    4    4    0    0  0.35222025859E+02 -0.57501357171E+02  0.38795210761E+03  0.39376875825E+03  0.00000000000E+00 0. -1.
</event>
<event>
 8    1  0.6627806E-009  0.1680733E+03  0.7561462E-02  0.1179872E+00
         -2   -1    0    0    0  501 -0.00000000000E+00  0.00000000000E+00  0.13684786997E+03  0.13684786997E+03  0.00000000000E+00 0.  1.
          2   -1    0    0  501    0  0.00000000000E+00 -0.00000000000E+00 -0.23631031847E+03  0.23631031847E+03  0.00000000000E+00 0. -1.
         25    2    1    2    0    0  0.16942937101E+02  0.13270837219E+03 -0.10444526480E+03  0.21084324701E+03  0.12508991288E+03 0.  0.
         23    2    1    2    0    0 -0.16942937101E+02 -0.13270837219E+03  0.49828163003E+01  0.16231494142E+03  0.91775468309E+02 0.  0.
          5    1    3    3  502    0  0.58678945678E+02  0.23497768693E+02 -0.54784566028E+02  0.83750730589E+02  0.41800000000E+01 0. -1.
         -5    1    3    3    0  502 -0.41736008577E+02  0.10921060350E+03 -0.49660698772E+02  0.12709251642E+03  0.41800000000E+01 0. -1.
        -11    1    4    4    0    0  0.24461823981E+02 -0.10214772496E+02  0.18473629010E+02  0.32310948275E+02  0.00000000000E+00 0.  1.
         11    1    4    4    0    0 -0.41404761082E+02 -0.12249359970E+03 -0.13490812710E+02  0.13000399315E+03  0.00000000000E+00 0. -1.
</event>
<event>
 8    1  0.6627806E-009  0.1546795E+03  0.7561462E-02  0.1194838E+00
         -3   -1    0    0    0  501 -0.00000000000E+00  0.00000000000E+00  0.17123046314E+03  0.17123046314E+03  0.00000000000E+00 0.  1.
          3   -1    0    0  501    0  0.00000000000E+00 -0.00000000000E+00 -0.23271361754E+03  0.23271361754E+03  0.00000000000E+00 0. -1.
         25    2    1    2    0    0  0.85816606902E+02  0.91856368029E+02 -0.14246492836E+03  0.22748417589E+03  0.12510280613E+03 0.  0.
         23    2    1    2    0    0 -0.85816606902E+02 -0.91856368029E+02  0.80981773954E+02  0.17645990478E+03  0.93690810197E+02 0.  0.
          5    1    3    3  502    0  0.10426974642E+02 -0.31089209644E+02 -0.25491723490E+02  0.41743995052E+02  0.41800000000E+01 0. -1.
         -5    1    3    3    0  502  0.75389632260E+02  0.12294557767E+03 -0.11697320487E+03  0.18574018084E+03  0.41800000000E+01 0. -1.
        -11    1    4    4    0    0 -0.30628724380E+02 -0.62291518490E+02 -0.55702142317E+01  0.69637485017E+02  0.00000000000E+00 0. -1.
         11    1    4    4    0    0 -0.55187882522E+02 -0.29564849539E+02  0.86551988186E+02  0.10682241977E+03  0.00000000000E+00 0.  1.
</event>
<event>
 8    1  0.6627806E-009  0.1433200E+03  0.7561462E-02  0.1208930E+00
         -2   -1    0    0    0  501 -0.00000000000E+00  0.00000000000E+00  0.24236631582E+03  0.24236631582E+03  0.00000000000E+00 0.  1.
          2   -1    0    0  501    0  0.00000000000E+00 -0.00000000000E+00 -0.87807767050E+02  0.87807767050E+02  0.00000000000E+00 0. -1.
         25    2    1    2    0    0 -0.23511750511E+02 -0.94202740371E+02  0.77282045674E+02  0.17620192276E+03  0.12509054438E+03 0.  0.
         23    2    1    2    0    0  0.23511750511E+02  0.94202740371E+02  0.77276503101E+02  0.15397216012E+03  0.91152671133E+02 0.  0.
          5    1    3    3  502    0  0.45275414652E+02 -0.66780505375E+02  0.22104571805E+02  0.83759080491E+02  0.41800000000E+01 0.  1.
         -5    1    3    3    0  502 -0.68787165163E+02 -0.27422234996E+02  0.55177473869E+02  0.92442842264E+02  0.41800000000E+01 0.  1.
        -11    1    4    4    0    0 -0.19125363657E+02  0.86203574769E+02  0.40695144937E+02  0.97226182993E+02  0.00000000000E+00 0.  1.
         11    1    4    4    0    0  0.42637114168E+02  0.79991656027E+01  0.36581358164E+02  0.56745977126E+02  0.00000000000E+00 0. -1.
</event>
<event>
 8    1  0.6627806E-009  0.2780146E+03  0.7561462E-02  0.1096778E+00
          2   -1    0    0  501    0  0.00000000000E+00  0.00000000000E+00  0.11249135641E+04  0.11249135641E+04  0.00000000000E+00 0. -1.
         -2   -1    0    0    0  501 -0.00000000000E+00 -0.00000000000E+00 -0.80504049753E+02  0.80504049753E+02  0.00000000000E+00 0.  1.
         25    2    1    2    0    0  0.10700699220E+03  0.24898943304E+03  0.67672951073E+03  0.73963274834E+03  0.12509011786E+03 0.  0.
         23    2    1    2    0    0 -0.10700699220E+03 -0.24898943304E+03  0.36768000364E+03  0.46578486553E+03  0.91217990188E+02 0.  0.
          5    1    3    3  502    0  0.92948532770E+02  0.15176153401E+03  0.55670905221E+03  0.58447706042E+03  0.41800000000E+01 0.  1.
         -5    1    3    3    0  502  0.14058459433E+02  0.97227899029E+02  0.12002045852E+03  0.15515568792E+03  0.41800000000E+01 0.  1.
        -11    1    4    4    0    0 -0.98250847842E+02 -0.14394273039E+03  0.18010628074E+03  0.25062125029E+03  0.00000000000E+00 0. -1.
         11    1    4    4    0    0 -0.87561443620E+01 -0.10504670265E+03  0.18757372290E+03  0.21516361524E+03  0.00000000000E+00 0.  1.
</event>
<event>
 8    1  0.6627806E-009  0.1016176E+03  0.7561462E-02  0.1276931E+00
         -2   -1    0    0    0  501 -0.00000000000E+00  0.00000000000E+00  0.42875389209E+02  0.42875389209E+02  0.00000000000E+00 0.  1.
          2   -1    0    0  501    0  0.00000000000E+00 -0.00000000000E+00 -0.37587513930E+03  0.37587513930E+03  0.00000000000E+00 0. -1.
         25    2    1    2    0    0 -0.41056023588E+02 -0.34100765507E+02 -0.25048667115E+03  0.28502199690E+03  0.12508200114E+03 0.  0.
         23    2    1    2    0    0  0.41056023588E+02  0.34100765507E+02 -0.82513078935E+02  0.13372853161E+03  0.90699794320E+02 0.  0.
          5    1    3    3  502    0 -0.67022111517E+02 -0.66286196750E+02 -0.17807206653E+03  0.20152656547E+03  0.41800000000E+01 0. -1.
         -5    1    3    3    0  502  0.25966087928E+02  0.32185431243E+02 -0.72414604623E+02  0.83495431427E+02  0.41800000000E+01 0. -1.
        -11    1    4    4    0    0  0.31955745487E+02 -0.65644545323E-01  0.10966833792E+02  0.33785284108E+02  0.00000000000E+00 0.  1.
         11    1    4    4    0    0  0.91002781014E+01  0.34166410053E+02 -0.93479912727E+02  0.99943247500E+02  0.00000000000E+00 0. -1.
</event>
<event>
 8    1  0.6627806E-009  0.8421224E+02  0.7561462E-02  0.1317506E+00
          1   -1    0    0  501    0  0.00000000000E+00  0.00000000000E+00  0.28970143927E+02  0.28970143927E+02  0.00000000000E+00 0. -1.
         -1   -1    0    0    0  501 -0.00000000000E+00 -0.00000000000E+00 -0.51863230604E+03  0.51863230604E+03  0.00000000000E+00 0.  1.
         25    2    1    2    0    0 -0.13907576856E+02  0.41974164800E+02 -0.21397011106E+03  0.25176621349E+03  0.12509103335E+03 0.  0.
         23    2    1    2    0    0  0.13907576856E+02 -0.41974164800E+02 -0.27569205105E+03  0.29583623647E+03  0.97763595439E+02 0.  0.
          5    1    3    3  502    0 -0.39540125530E+02  0.48582362265E+02 -0.37192023867E+02  0.72968393771E+02  0.41800000000E+01 0.  1.
         -5    1    3    3    0  502  0.25632548674E+02 -0.66081974652E+01 -0.17677808719E+03  0.17879781972E+03  0.41800000000E+01 0.  1.
        -11    1    4    4    0    0  0.37857529585E+02 -0.39592578411E+02 -0.26296555677E+03  0.26861058963E+03  0.00000000000E+00 0.  1.
         11    1    4    4    0    0 -0.23949952729E+02 -0.23815863890E+01 -0.12726494275E+02  0.27225646842E+02  0.00000000000E+00 0. -1.
</event>
<event>
 8    1  0.6627806E-009  0.7399899E+02  0.7561462E-02  0.1346999E+00
          2   -1    0    0  501    0  0.00000000000E+00  0.00000000000E+00  0.44731870912E+03  0.44731870912E+03  0.00000000000E+00 0.  1.
         -2   -1    0    0    0  501 -0.00000000000E+00 -0.00000000000E+00 -0.28874578164E+02  0.28874578164E+02  0.00000000000E+00 0. -1.
         25    2    1    2    0    0 -0.18965780534E+02 -0.29548962098E+00  0.29625176644E+03  0.32213942625E+03  0.12509561415E+03 0.  0.
         23    2    1    2    0    0  0.18965780534E+02  0.29548962098E+00  0.12219236452E+03  0.15405386104E+03  0.91879431913E+02 0.  0.
          5    1    3    3  502    0 -0.40254548173E+02 -0.19453106704E+02  0.29286732489E+02  0.53610046716E+02  0.41800000000E+01 0.  1.
         -5    1    3    3    0  502  0.21288767639E+02  0.19157617083E+02  0.26696503395E+03  0.26852937953E+03  0.41800000000E+01 0.  1.
        -11    1    4    4    0    0  0.22513808205E+02  0.33716716026E+02  0.11172345194E+03  0.11885208544E+03  0.00000000000E+00 0.  1.
         11    1    4    4    0    0 -0.35480276713E+01 -0.33421226405E+02  0.10468912577E+02  0.35201775599E+02  0.00000000000E+00 0. -1.
</event>
<event>
 8    1  0.6627806E-009  0.1186390E+03  0.7561462E-02  0.1245359E+00
          2   -1    0    0  501    0  0.00000000000E+00  0.00000000000E+00  0.61485479305E+03  0.61485479305E+03  0.00000000000E+00 0. -1.
         -2   -1    0    0    0  501 -0.00000000000E+00 -0.00000000000E+00 -0.31542007761E+02  0.31542007761E+02  0.00000000000E+00 0.  1.
         25    2    1    2    0    0 -0.11065877319E+02 -0.48737608738E+02  0.16706889114E+03  0.21461083251E+03  0.12509191380E+03 0.  0.
         23    2    1    2    0    0  0.11065877319E+02  0.48737608738E+02  0.41624389414E+03  0.43178596830E+03  0.10335538138E+03 0.  0.
          5    1    3    3  502    0 -0.50189917276E+00 -0.90667112735E+02  0.12142118119E+03  0.15159601867E+03  0.41800000000E+01 0. -1.
         -5    1    3    3    0  502 -0.10563978146E+02  0.41929503997E+02  0.45647709957E+02  0.63014813846E+02  0.41800000000E+01 0. -1.
        -11    1    4    4    0    0 -0.21857835029E+02  0.63376814779E+02  0.35013631551E+03  0.35649659892E+03  0.00000000000E+00 0.  1.
         11    1    4    4    0    0  0.32923712348E+02 -0.14639206041E+02  0.66107578637E+02  0.75289369379E+02  0.00000000000E+00 0. -1.
</event>
<event>
 8    1  0.6627806E-009  0.1371968E+03  0.7561462E-02  0.1217151E+00
          2   -1    0    0  501    0  0.00000000000E+00  0.00000000000E+00  0.15047947190E+03  0.15047947190E+03  0.00000000000E+00 0. -1.
         -2   -1    0    0    0  501 -0.00000000000E+00 -0.00000000000E+00 -0.29631231279E+03  0.29631231279E+03  0.00000000000E+00 0.  1.
         25    2    1    2    0    0 -0.92876119950E+02 -0.22354792400E+02  0.86495099146E+02  0.17960264802E+03  0.12509995443E+03 0.  0.
         23    2    1    2    0    0  0.92876119950E+02  0.22354792400E+02 -0.23232794003E+03  0.26718913668E+03  0.91038742511E+02 0.  0.
          5    1    3    3  502    0 -0.67210379295E+02 -0.73075835920E+02  0.64703732478E+02  0.11858059823E+03  0.41800000000E+01 0.  1.
         -5    1    3    3    0  502 -0.25665740654E+02  0.50721043520E+02  0.21791366668E+02  0.61022049788E+02  0.41800000000E+01 0.  1.
        -11    1    4    4    0    0  0.56503843454E+02 -0.22023282444E+02 -0.17847481374E+03  0.18849660059E+03  0.00000000000E+00 0.  1.
         11    1    4    4    0    0  0.36372276496E+02  0.44378074844E+02 -0.53853126298E+02  0.78692536092E+02  0.00000000000E+00 0. -1.
</event>
<event>
 8    1  0.6627806E-009  0.1041107E+03  0.7561462E-02  0.1271882E+00
         -3   -1    0    0    0  501 -0.00000000000E+00  0.00000000000E+00  0.32996314819E+02  0.32996314819E+02  0.00000000000E+00 0.  1.
          3   -1    0    0  501    0  0.00000000000E+00 -0.00000000000E+00 -0.43949975253E+03  0.43949975253E+03  0.00000000000E+00 0. -1.
         25    2    1    2    0    0  0.42697974987E+02  0.15430483537E+02 -0.18249501187E+03  0.22585617449E+03  0.12508143471E+03 0.  0.
         23    2    1    2    0    0 -0.42697974987E+02 -0.15430483537E+02 -0.22400842584E+03  0.24663989286E+03  0.92683574658E+02 0.  0.
          5    1    3    3  502    0  0.77505527976E+02 -0.29665657430E+01 -0.63121644354E+02  0.10008856960E+03  0.41800000000E+01 0.  1.
         -5    1    3    3    0  502 -0.34807552989E+02  0.18397049280E+02 -0.11937336751E+03  0.12576760488E+03  0.41800000000E+01 0.  1.
        -11    1    4    4    0    0 -0.66014717536E+02 -0.14674288366E+02 -0.20700671058E+03  0.21777294574E+03  0.00000000000E+00 0.  1.
         11    1    4    4    0    0  0.23316742549E+02 -0.75619517032E+00 -0.17001715261E+02  0.28866947120E+02  0.00000000000E+00 0. -1.
</event>
<event>
 8    1  0.6627806E-009  0.1552505E+03  0.7561462E-02  0.1194166E+00
          1   -1    0    0  501    0  0.00000000000E+00  0.00000000000E+00  0.12377099943E+03  0.12377099943E+03  0.00000000000E+00 0. -1.
         -1   -1    0    0    0  501 -0.00000000000E+00 -0.00000000000E+00 -0.21644519519E+03  0.21644519519E+03  0.00000000000E+00 0.  1.
         25    2    1    2    0    0 -0.11309546945E+03 -0.27954821790E+02 -0.10785276230E+02  0.17128040166E+03  0.12509435055E+03 0.  0.
         23    2    1    2    0    0  0.11309546945E+03  0.27954821790E+02 -0.81888919533E+02  0.16893579296E+03  0.90892517459E+02 0.  0.
          5    1    3    3  502    0 -0.19366235022E+02 -0.60328527622E+02  0.21294687679E+02  0.66974013075E+02  0.41800000000E+01 0. -1.
         -5    1    3    3    0  502 -0.93729234428E+02  0.32373705832E+02 -0.32079963909E+02  0.10430638859E+03  0.41800000000E+01 0. -1.
        -11    1    4    4    0    0 -0.35641101206E+01 -0.20953811383E+02 -0.12467060081E+02  0.24641279989E+02  0.00000000000E+00 0. -1.
         11    1    4    4    0    0  0.11665957957E+03  0.48908633173E+02 -0.69421859452E+02  0.14429451297E+03  0.00000000000E+00 0.  1.
</event>
<event>
 8    1  0.6627806E-009  0.1874257E+03  0.7561462E-02  0.1160804E+00
         -3   -1    0    0    0  501 -0.00000000000E+00  0.00000000000E+00  0.31688907365E+03  0.31688907365E+03  0.00000000000E+00 0.  1.
          3   -1    0    0  501    0  0.00000000000E+00 -0.00000000000E+00 -0.14199843924E+03  0.14199843924E+03  0.00000000000E+00 0. -1.
         25    2    1    2    0    0  0.17435035288E+03 -0.53421575766E+02  0.10772018288E+03  0.24597318476E+03  0.12508900636E+03 0.  0.
         23    2    1    2    0    0 -0.17435035288E+03  0.53421575766E+02  0.67170451524E+02  0.21291432814E+03  0.86998455523E+02 0.  0.
          5    1    3    3  502    0  0.15320552959E+03 -0.22816979709E+02  0.27395921554E+02  0.15735487846E+03  0.41800000000E+01 0. -1.
         -5    1    3    3    0  502  0.21144823291E+02 -0.30604596057E+02  0.80324261328E+02  0.88618306290E+02  0.41800000000E+01 0. -1.
        -11    1    4    4    0    0 -0.13940966384E+03  0.45415507653E+02  0.88444109587E+02  0.17123078937E+03  0.00000000000E+00 0.  1.
         11    1    4    4    0    0 -0.34940689033E+02  0.80060681131E+01 -0.21273658063E+02  0.41683538767E+02  0.00000000000E+00 0. -1.
</event>
<event>
 8    1  0.6627806E-009  0.1922638E+03  0.7561462E-02  0.1156435E+00
         -2   -1    0    0    0  501 -0.00000000000E+00  0.00000000000E+00  0.31157934380E+02  0.31157934380E+02  0.00000000000E+00 0.  1.
          2   -1    0    0  501    0  0.00000000000E+00 -0.00000000000E+00 -0.14649289886E+04  0.14649289886E+04  0.00000000000E+00 0. -1.
         25    2    1    2    0    0 -0.78700620696E+02 -0.13802419792E+03 -0.42176087580E+03  0.46773226021E+03  0.12508702560E+03 0.  0.
         23    2    1    2    0    0  0.78700620696E+02  0.13802419792E+03 -0.10120101784E+04  0.10283546628E+04  0.90023576406E+02 0.  0.
          5    1    3    3  502    0 -0.64036577657E+02 -0.87442465456E+00 -0.13836446572E+03  0.15252424617E+03  0.41800000000E+01 0. -1.
         -5    1    3    3    0  502 -0.14664043039E+02 -0.13714977327E+03 -0.28339641009E+03  0.31520801404E+03  0.41800000000E+01 0. -1.
        -11    1    4    4    0    0 -0.19490701152E+02  0.34805579839E+02 -0.19940913507E+03  0.20336007220E+03  0.00000000000E+00 0.  1.
         11    1    4    4    0    0  0.98191321847E+02  0.10321861808E+03 -0.81260104335E+03  0.82499459056E+03  0.00000000000E+00 0. -1.
</event>
<event>
 8    1  0.6627806E-009  0.2338546E+03  0.7561462E-02  0.1123956E+00
          1   -1    0    0  501    0  0.00000000000E+00  0.00000000000E+00  0.96575117911E+03  0.96575117911E+03  0.00000000000E+00 0. -1.
         -1   -1    0    0    0  501 -0.00000000000E+00 -0.00000000000E+00 -0.68672840322E+02  0.68672840322E+02  0.00000000000E+00 0.  1.
         25    2    1    2    0    0  0.14148410852E+03  0.15482116303E+03  0.66284867858E+03  0.70640102958E+03  0.12508676357E+03 0.  0.
         23    2    1    2    0    0 -0.14148410852E+03 -0.15482116303E+03  0.23422966021E+03  0.32802298985E+03  0.93531826991E+02 0.  0.
          5    1    3    3  502    0  0.13998717505E+02  0.10658681832E+03  0.30820817167E+03  0.32644519206E+03  0.41800000000E+01 0.  1.
         -5    1    3    3    0  502  0.12748539102E+03  0.48234344706E+02  0.35464050691E+03  0.37995583753E+03  0.41800000000E+01 0.  1.
        -11    1    4    4    0    0 -0.90526905633E+02 -0.14637106334E+03  0.20838068188E+03  0.27026305225E+03  0.00000000000E+00 0. -1.
         11    1    4    4    0    0 -0.50957202891E+02 -0.84500996849E+01  0.25848978329E+02  0.57759937602E+02  0.00000000000E+00 0.  1.
</event>
<event>
 8    1  0.6627806E-009  0.1152107E+03  0.7561462E-02  0.1251214E+00
          2   -1    0    0  501    0  0.00000000000E+00  0.00000000000E+00  0.88920460547E+03  0.88920460547E+03  0.00000000000E+00 0. -1.
         -2   -1    0    0    0  501 -0.00000000000E+00 -0.00000000000E+00 -0.17590194897E+02  0.17590194897E+02  0.00000000000E+00 0.  1.
         25    2    1    2    0    0  0.59320841638E+02  0.19120483939E+02  0.47948445737E+03  0.49943721478E+03  0.12509049322E+03 0.  0.
         23    2    1    2    0    0 -0.59320841638E+02 -0.19120483939E+02  0.39212995321E+03  0.40735758558E+03  0.91048048705E+02 0.  0.
          5    1    3    3  502    0  0.92953354128E+02 -0.91751282751E+01  0.36354868395E+03  0.37537931086E+03  0.41800000000E+01 0. -1.
         -5    1    3    3    0  502 -0.33632512490E+02  0.28295612214E+02  0.11593577342E+03  0.12405790392E+03  0.41800000000E+01 0. -1.
        -11    1    4    4    0    0 -0.60591652462E+02  0.11880420382E+02  0.34786005009E+03  0.35329747690E+03  0.00000000000E+00 0. -1.
         11    1    4    4    0    0  0.12708108238E+01 -0.31000904321E+02  0.44269903116E+02  0.54060108682E+02  0.00000000000E+00 0.  1.
</event>
<event>
 8    1  0.6627806E-009  0.2325948E+03  0.7561462E-02  0.1124827E+00
          1   -1    0    0  501    0  0.00000000000E+00  0.00000000000E+00  0.42391336701E+03  0.42391336701E+03  0.00000000000E+00 0.  1.
         -1   -1    0    0    0  501 -0.00000000000E+00 -0.00000000000E+00 -0.17180684680E+03  0.17180684680E+03  0.00000000000E+00 0. -1.
         25    2    1    2    0    0 -0.19444441032E+03  0.11861078782E+03  0.23383176021E+03  0.34957406894E+03  0.12509032698E+03 0.  0.
         23    2    1    2    0    0  0.19444441032E+03 -0.11861078782E+03  0.18274760009E+02  0.24614614486E+03  0.91524915124E+02 0.  0.
          5    1    3    3  502    0 -0.11005326706E+03  0.28596415533E+02  0.18420632854E+03  0.21651540464E+03  0.41800000000E+01 0. -1.
         -5    1    3    3    0  502 -0.84391143258E+02  0.90014372286E+02  0.49625431671E+02  0.13305866431E+03  0.41800000000E+01 0. -1.
        -11    1    4    4    0    0  0.36222493502E+02 -0.18031386074E+02  0.40621075936E+02  0.57334734057E+02  0.00000000000E+00 0.  1.
         11    1    4    4    0    0  0.15822191681E+03 -0.10057940175E+03 -0.22346315927E+02  0.18881141081E+03  0.00000000000E+00 0. -1.
</event>
<event>
 8    1  0.6627806E-009  0.1171504E+03  0.7561462E-02  0.1247873E+00
          1   -1    0    0  501    0  0.00000000000E+00  0.00000000000E+00  0.20150709213E+02  0.20150709213E+02  0.00000000000E+00 0. -1.
         -1   -1    0    0    0  501 -0.00000000000E+00 -0.00000000000E+00 -0.73652168246E+03  0.73652168246E+03  0.00000000000E+00 0.  1.
         25    2    1    2    0    0  0.21227751911E+02 -0.47428158857E+02 -0.45734930737E+03  0.47698765867E+03  0.12509512328E+03 0.  0.
         23    2    1    2    0    0 -0.21227751911E+02  0.47428158857E+02 -0.25902166588E+03  0.27968473300E+03  0.91821995063E+02 0.  0.
          5    1    3    3  502    0 -0.19092785269E+02  0.34305817069E+02 -0.86568032714E+02  0.95146835060E+02  0.41800000000E+01 0.  1.
         -5    1    3    3    0  502  0.40320537180E+02 -0.81733975926E+02 -0.37078127466E+03  0.38184082361E+03  0.41800000000E+01 0.  1.
        -11    1    4    4    0    0  0.33729294821E+02  0.32020321276E+02 -0.14320675246E+03  0.15056938684E+03  0.00000000000E+00 0.  1.
         11    1    4    4    0    0 -0.54957046732E+02  0.15407837581E+02 -0.11581491342E+03  0.12911534616E+03  0.00000000000E+00 0. -1.
</event>
<event>
 8    1  0.6627806E-009  0.1682944E+03  0.7561462E-02  0.1179638E+00
          1   -1    0    0  501    0  0.00000000000E+00  0.00000000000E+00  0.69846412598E+03  0.69846412598E+03  0.00000000000E+00 0. -1.
         -1   -1    0    0    0  501 -0.00000000000E+00 -0.00000000000E+00 -0.51644868520E+02  0.51644868520E+02  0.00000000000E+00 0.  1.
         25    2    1    2    0    0 -0.10441240237E+03 -0.93228894525E+02  0.47719970607E+03  0.51279584091E+03  0.12508572436E+03 0.  0.
         23    2    1    2    0    0  0.10441240237E+03  0.93228894525E+02  0.16961955139E+03  0.23731315359E+03  0.89180514189E+02 0.  0.
          5    1    3    3  502    0 -0.64850842118E+02  0.12333303327E+02  0.10704419222E+03  0.12583192592E+03  0.41800000000E+01 0. -1.
         -5    1    3    3    0  502 -0.39561560251E+02 -0.10556219785E+03  0.37015551385E+03  0.38696391498E+03  0.41800000000E+01 0. -1.
        -11    1    4    4    0    0  0.11737575254E+02  0.56891649575E+02  0.28731824911E+02  0.64807007545E+02  0.00000000000E+00 0.  1.
         11    1    4    4    0    0  0.92674827115E+02  0.36337244951E+02  0.14088772648E+03  0.17250614605E+03  0.00000000000E+00 0. -1.
</event>
<event>
 8    1  0.6627806E-009  0.2168270E+03  0.7561462E-02  0.1136271E+00
         -1   -1    0    0    0  501 -0.00000000000E+00  0.00000000000E+00  0.35666395762E+03  0.35666395762E+03  0.00000000000E+00 0.  1.
          1   -1    0    0  501    0  0.00000000000E+00 -0.00000000000E+00 -0.20851187214E+03  0.20851187214E+03  0.00000000000E+00 0. -1.
         25    2    1    2    0    0 -0.18237540778E+03  0.83198194652E+02  0.23008910217E+03  0.32980521757E+03  0.12509099746E+03 0.  0.
         23    2    1    2    0    0  0.18237540778E+03 -0.83198194652E+02 -0.81937016686E+02  0.23537061219E+03  0.92211286855E+02 0.  0.
          5    1    3    3  502    0 -0.14165579175E+03  0.10778875662E+03  0.21618887788E+03  0.28007121007E+03  0.41800000000E+01 0.  1.
         -5    1    3    3    0  502 -0.40719616026E+02 -0.24590561965E+02  0.13900224285E+02  0.49734007503E+02  0.41800000000E+01 0.  1.
        -11    1    4    4    0    0  0.10366163164E+03 -0.17094176133E+02 -0.80860478110E+02  0.13257587131E+03  0.00000000000E+00 0. -1.
         11    1    4    4    0    0  0.78713776137E+02 -0.66104018519E+02 -0.10765385758E+01  0.10279474088E+03  0.00000000000E+00 0.  1.
</event>
<event>
 8    1  0.6627806E-009  0.1068516E+03  0.7561462E-02  0.1266514E+00
          1   -1    0    0  501    0  0.00000000000E+00  0.00000000000E+00  0.47077197911E+03  0.47077197911E+03  0.00000000000E+00 0. -1.
         -1   -1    0    0    0  501 -0.00000000000E+00 -0.00000000000E+00 -0.37002906741E+02  0.37002906741E+02  0.00000000000E+00 0.  1.
         25    2    1    2    0    0 -0.21200642718E+02 -0.97292356741E+01  0.37666304811E+03  0.39757390560E+03  0.12508330554E+03 0.  0.
         23    2    1    2    0    0  0.21200642718E+02  0.97292356741E+01  0.57106024257E+02  0.11020098025E+03  0.91318304644E+02 0.  0.
          5    1    3    3  502    0  0.51356558151E+02 -0.68037090424E+01  0.19712462439E+03  0.20386116959E+03  0.41800000000E+01 0. -1.
         -5    1    3    3    0  502 -0.72557200869E+02 -0.29255266317E+01  0.17953842372E+03  0.19371273602E+03  0.41800000000E+01 0. -1.
        -11    1    4    4    0    0  0.54824768158E+02  0.53512940549E+01  0.16929399299E+02  0.57628084406E+02  0.00000000000E+00 0.  1.
         11    1    4    4    0    0 -0.33624125439E+02  0.43779416192E+01  0.40176624958E+02  0.52572895844E+02  0.00000000000E+00 0. -1.
</event>
<event>
 8    1  0.6627806E-009  0.1162422E+03  0.7561462E-02  0.1249428E+00
         -1   -1    0    0    0  501 -0.00000000000E+00  0.00000000000E+00  0.67044347486E+02  0.67044347486E+02  0.00000000000E+00 0.  1.
          1   -1    0    0  501    0  0.00000000000E+00 -0.00000000000E+00 -0.26912262669E+03  0.26912262669E+03  0.00000000000E+00 0. -1.
         25    2    1    2    0    0 -0.40037260468E+02 -0.70233079392E+02 -0.11170379404E+03  0.18617202839E+03  0.12508644565E+03 0.  0.
         23    2    1    2    0    0  0.40037260468E+02  0.70233079392E+02 -0.90374485158E+02  0.14999494578E+03  0.88290817907E+02 0.  0.
          5    1    3    3  502    0  0.19396818106E+02 -0.59071300580E+02 -0.10892598875E+03  0.12549102968E+03  0.41800000000E+01 0.  1.
         -5    1    3    3    0  502 -0.59434078574E+02 -0.11161778812E+02 -0.27778052934E+01  0.60680998710E+02  0.41800000000E+01 0.  1.
        -11    1    4    4    0    0 -0.21619522098E+02  0.25187258365E+02 -0.58477871864E+02  0.67241826399E+02  0.00000000000E+00 0. -1.
         11    1    4    4    0    0  0.61656782566E+02  0.45045821026E+02 -0.31896613294E+02  0.82753119385E+02  0.00000000000E+00 0.  1.
</event>
<event>
 8    1  0.6627806E-009  0.8169764E+02  0.7561462E-02  0.1324302E+00
         -1   -1    0    0    0  501 -0.00000000000E+00  0.00000000000E+00  0.25201302604E+03  0.25201302604E+03  0.00000000000E+00 0.  1.
          1   -1    0    0  501    0  0.00000000000E+00 -0.00000000000E+00 -0.40531890336E+02  0.40531890336E+02  0.00000000000E+00 0. -1.
         25    2    1    2    0    0  0.90238098913E+00 -0.76738988114E+01  0.13518479200E+03  0.18434649778E+03  0.12509596413E+03 0.  0.
         23    2    1    2    0    0 -0.90238098913E+00  0.76738988114E+01  0.76296343709E+02  0.10819841860E+03  0.76328649340E+02 0.  0.
          5    1    3    3  502    0  0.70214327154E+01  0.45959063486E+02  0.11901342874E+03  0.12784054386E+03  0.41800000000E+01 0. -1.
         -5    1    3    3    0  502 -0.61190517262E+01 -0.53632962297E+02  0.16171363262E+02  0.56505953921E+02  0.41800000000E+01 0. -1.
        -11    1    4    4    0    0 -0.68717298306E+01  0.34455545542E+02  0.10125392533E+02  0.36564037843E+02  0.00000000000E+00 0. -1.
         11    1    4    4    0    0  0.59693488414E+01 -0.26781646730E+02  0.66170951176E+02  0.71634380759E+02  0.00000000000E+00 0.  1.
</event>
<event>
 8    1  0.6627806E-009  0.1191484E+03  0.7561462E-02  0.1244509E+00
          1   -1    0    0  501    0  0.00000000000E+00  0.00000000000E+00  0.55719343223E+03  0.55719343223E+03  0.00000000000E+00 0. -1.
         -1   -1    0    0    0  501 -0.00000000000E+00 -0.00000000000E+00 -0.38520720769E+02  0.38520720769E+02  0.00000000000E+00 0.  1.
         25    2    1    2    0    0 -0.61672501086E+02 -0.67710411452E+02  0.20957669192E+03  0.26068726746E+03  0.12508902595E+03 0.  0.
         23    2    1    2    0    0  0.61672501086E+02  0.67710411452E+02  0.30909601954E+03  0.33502688553E+03  0.91183702087E+02 0.  0.
          5    1    3    3  502    0  0.43365077043E+01  0.28950911434E+02  0.83596598942E+02  0.88672568061E+02  0.41800000000E+01 0.  1.
         -5    1    3    3    0  502 -0.66009008790E+02 -0.96661322886E+02  0.12598009298E+03  0.17201469940E+03  0.41800000000E+01 0.  1.
        -11    1    4    4    0    0  0.14628120310E+02  0.17108158497E+02  0.48391167945E+01  0.23023640944E+02  0.00000000000E+00 0.  1.
         11    1    4    4    0    0  0.47044380776E+02  0.50602252955E+02  0.30425690275E+03  0.31200324459E+03  0.00000000000E+00 0. -1.
</event>
<event>
 8    1  0.6627806E-009  0.6438145E+02  0.7561462E-02  0.1380313E+00
         -1   -1    0    0    0  501 -0.00000000000E+00  0.00000000000E+00  0.82017349613E+02  0.82017349613E+02  0.00000000000E+00 0.  1.
          1   -1    0    0  501    0  0.00000000000E+00 -0.00000000000E+00 -0.20283291277E+03  0.20283291277E+03  0.00000000000E+00 0. -1.
         25    2    1    2    0    0  0.11316933452E+02 -0.25772858473E+02 -0.13811006372E+03  0.18845254090E+03  0.12509059618E+03 0.  0.
         23    2    1    2    0    0 -0.11316933452E+02  0.25772858473E+02  0.17294500566E+02  0.96397721484E+02  0.90559967650E+02 0.  0.
          5    1    3    3  502    0 -0.13570987867E+02 -0.41700557776E+02 -0.14999536149E+03  0.15633038444E+03  0.41800000000E+01 0.  1.
         -5    1    3    3    0  502  0.24887921319E+02  0.15927699303E+02  0.11885297766E+02  0.32122156460E+02  0.41800000000E+01 0.  1.
        -11    1    4    4    0    0  0.17054096785E+02  0.80117357287E+00  0.45916342772E+02  0.48987698760E+02  0.00000000000E+00 0.  1.
         11    1    4    4    0    0 -0.28371030237E+02  0.24971684900E+02 -0.28621842206E+02  0.47410022724E+02  0.00000000000E+00 0. -1.
</event>
<event>
 8    1  0.6627806E-009  0.1102675E+03  0.7561462E-02  0.1260075E+00
          1   -1    0    0  501    0  0.00000000000E+00  0.00000000000E+00  0.24805247651E+02  0.24805247651E+02  0.00000000000E+00 0.  1.
         -1   -1    0    0    0  501 -0.00000000000E+00 -0.00000000000E+00 -0.68993150773E+03  0.68993150773E+03  0.00000000000E+00 0. -1.
         25    2    1    2    0    0  0.17065964155E+02  0.68484628466E+02 -0.32793462787E+03  0.35800998285E+03  0.12509450904E+03 0.  0.
         23    2    1    2    0    0 -0.17065964155E+02 -0.68484628466E+02 -0.33719163221E+03  0.35672677254E+03  0.92598066625E+02 0.  0.
          5    1    3    3  502    0  0.50726775721E+02  0.64534218064E+01 -0.23875692431E+03  0.24420727617E+03  0.41800000000E+01 0. -1.
         -5    1    3    3    0  502 -0.33660811566E+02  0.62031206660E+02 -0.89177703563E+02  0.11380270668E+03  0.41800000000E+01 0. -1.
        -11    1    4    4    0    0  0.13953990288E+02  0.79362039799E+01 -0.91535943817E+01  0.18479325439E+02  0.00000000000E+00 0.  1.
         11    1    4    4    0    0 -0.31019954443E+02 -0.76420832446E+02 -0.32803803783E+03  0.33824744710E+03  0.00000000000E+00 0. -1.
</event>
<event>
 8    1  0.6627806E-009  0.9720090E+02  0.7561462E-02  0.1286295E+00
         -1   -1    0    0    0  501 -0.00000000000E+00  0.00000000000E+00  0.11753375647E+03  0.11753375647E+03  0.00000000000E+00 0.  1.
          1   -1    0    0  501    0  0.00000000000E+00 -0.00000000000E+00 -0.11272438755E+03  0.11272438755E+03  0.00000000000E+00 0. -1.
         25    2    1    2    0    0  0.90573205898E+01 -0.30064378739E+02 -0.20337087765E+02  0.13056411427E+03  0.12508992314E+03 0.  0.
         23    2    1    2    0    0 -0.90573205898E+01  0.30064378739E+02  0.25146456686E+02  0.99694029753E+02  0.91217615401E+02 0.  0.
          5    1    3    3  502    0  0.87610393193E+01  0.38094154685E+02 -0.43334181023E+02  0.58508495760E+02  0.41800000000E+01 0.  1.
         -5    1    3    3    0  502  0.29628127051E+00 -0.68158533424E+02  0.22997093258E+02  0.72055618514E+02  0.41800000000E+01 0.  1.
        -11    1    4    4    0    0  0.26432602154E+02  0.41771417768E+02  0.35566520463E+02  0.60897546558E+02  0.00000000000E+00 0.  1.
         11    1    4    4    0    0 -0.35489922744E+02 -0.11707039029E+02 -0.10420063778E+02  0.38796483195E+02  0.00000000000E+00 0. -1.
</event>
<event>
 8    1  0.6627806E-009  0.6879683E+02  0.7561462E-02  0.1364233E+00
          1   -1    0    0  501    0  0.00000000000E+00  0.00000000000E+00  0.86879003537E+03  0.86879003537E+03  0.00000000000E+00 0. -1.
         -1   -1    0    0    0  501 -0.00000000000E+00 -0.00000000000E+00 -0.15991289689E+02  0.15991289689E+02  0.00000000000E+00 0.  1.
         25    2    1    2    0    0  0.20411824249E+02 -0.12923735424E+02  0.65080767823E+03  0.66315852106E+03  0.12507967259E+03 0.  0.
         23    2    1    2    0    0 -0.20411824249E+02  0.12923735424E+02  0.20199106745E+03  0.22162280400E+03  0.87935262660E+02 0.  0.
          5    1    3    3  502    0  0.24217596195E+02 -0.24007418897E+02  0.64976525710E+03  0.65067289006E+03  0.41800000000E+01 0.  1.
         -5    1    3    3    0  502 -0.38057719466E+01  0.11083683473E+02  0.10424211315E+01  0.12485630991E+02  0.41800000000E+01 0.  1.
        -11    1    4    4    0    0 -0.45426717409E+02  0.35067859925E+02  0.13741148854E+03  0.14891359453E+03  0.00000000000E+00 0.  1.
         11    1    4    4    0    0  0.25014893160E+02 -0.22144124501E+02  0.64579578912E+02  0.72709209473E+02  0.00000000000E+00 0. -1.
</event>
<event>
 8    1  0.6627806E-009  0.1098211E+03  0.7561462E-02  0.1260901E+00
          2   -1    0    0  501    0  0.00000000000E+00  0.00000000000E+00  0.39325445569E+03  0.39325445569E+03  0.00000000000E+00 0.  1.
         -2   -1    0    0    0  501 -0.00000000000E+00 -0.00000000000E+00 -0.54888255916E+02  0.54888255916E+02  0.00000000000E+00 0. -1.
         25    2    1    2    0    0 -0.53691116817E+02 -0.19427761499E+02  0.61074258420E+02  0.15045919792E+03  0.12509089197E+03 0.  0.
         23    2    1    2    0    0  0.53691116817E+02  0.19427761499E+02  0.27729194136E+03  0.29768351369E+03  0.92002606697E+02 0.  0.
          5    1    3    3  502    0  0.61770937700E+01 -0.58638593483E+02  0.50991480496E+02  0.78065642996E+02  0.41800000000E+01 0.  1.
         -5    1    3    3    0  502 -0.59868210587E+02  0.39210831984E+02  0.10082777923E+02  0.72393554923E+02  0.41800000000E+01 0.  1.
        -11    1    4    4    0    0  0.87749458221E+01  0.38907599881E+02  0.44326139171E+02  0.59628915943E+02  0.00000000000E+00 0. -1.
         11    1    4    4    0    0  0.44916170995E+02 -0.19479838382E+02  0.23296580219E+03  0.23805459775E+03  0.00000000000E+00 0.  1.
</event>
<event>
 8    1  0.6627806E-009  0.9820892E+02  0.7561462E-02  0.1284108E+00
         -1   -1    0    0    0  501 -0.00000000000E+00  0.00000000000E+00  0.14001616883E+03  0.14001616883E+03  0.00000000000E+00 0.  1.
          1   -1    0    0  501    0  0.00000000000E+00 -0.00000000000E+00 -0.90447226833E+02  0.90447226833E+02  0.00000000000E+00 0. -1.
         25    2    1    2    0    0  0.30641022692E+02  0.76891371690E+01  0.26374650029E+02  0.13168752839E+03  0.12509191768E+03 0.  0.
         23    2    1    2    0    0 -0.30641022692E+02 -0.76891371690E+01  0.23194291969E+02  0.98775867270E+02  0.90668085195E+02 0.  0.
          5    1    3    3  502    0 -0.31123029659E+02 -0.14847662619E+02  0.50701928584E+02  0.61459368876E+02  0.41800000000E+01 0. -1.
         -5    1    3    3    0  502  0.61764052351E+02  0.22536799788E+02 -0.24327278555E+02  0.70228159519E+02  0.41800000000E+01 0. -1.
        -11    1    4    4    0    0  0.30112580235E+02 -0.16621521152E+02  0.51946555072E+01  0.34785440915E+02  0.00000000000E+00 0. -1.
         11    1    4    4    0    0 -0.60753602927E+02  0.89323839832E+01  0.17999636462E+02  0.63990426355E+02  0.00000000000E+00 0.  1.
</event>
<event>
 8    1  0.6627806E-009  0.1050945E+03  0.7561462E-02  0.1269934E+00
          1   -1    0    0  501    0  0.00000000000E+00  0.00000000000E+00  0.36272379966E+03  0.36272379966E+03  0.00000000000E+00 0. -1.
         -1   -1    0    0    0  501 -0.00000000000E+00 -0.00000000000E+00 -0.60522746410E+02  0.60522746410E+02  0.00000000000E+00 0.  1.
         25    2    1    2    0    0 -0.13530674886E+01  0.84561011774E+02  0.86184075311E+02  0.17384372191E+03  0.12506617971E+03 0.  0.
         23    2    1    2    0    0  0.13530674886E+01 -0.84561011774E+02  0.21601697794E+03  0.24940282416E+03  0.91575315655E+02 0.  0.
          5    1    3    3  502    0  0.99316452747E+00  0.71420384867E+02 -0.13815083193E+02  0.72871027671E+02  0.41800000000E+01 0. -1.
         -5    1    3    3    0  502 -0.23462320161E+01  0.13140626907E+02  0.99999158504E+02  0.10097269424E+03  0.41800000000E+01 0. -1.
        -11    1    4    4    0    0 -0.33871671722E+02 -0.82711918723E+02  0.15540539847E+03  0.17927462039E+03  0.00000000000E+00 0. -1.
         11    1    4    4    0    0  0.35224739211E+02 -0.18490930505E+01  0.60611579469E+02  0.70128203765E+02  0.00000000000E+00 0.  1.
</event>
<event>
 8    1  0.6627806E-009  0.1917643E+03  0.7561462E-02  0.1156880E+00
          1   -1    0    0  501    0  0.00000000000E+00  0.00000000000E+00  0.80170814287E+03  0.80170814287E+03  0.00000000000E+00 0. -1.
         -1   -1    0    0    0  501 -0.00000000000E+00 -0.00000000000E+00 -0.59133318356E+02  0.59133318356E+02  0.00000000000E+00 0.  1.
         25    2    1    2    0    0 -0.64173833652E+02  0.15488421982E+03  0.55408997896E+03  0.59225691642E+03  0.12508056519E+03 0.  0.
         23    2    1    2    0    0  0.64173833652E+02 -0.15488421982E+03  0.18848484555E+03  0.26858454481E+03  0.92215607304E+02 0.  0.
          5    1    3    3  502    0  0.32214459300E+02  0.82101530982E+02  0.23830914898E+03  0.25414003160E+03  0.41800000000E+01 0.  1.
         -5    1    3    3    0  502 -0.96388292952E+02  0.72782688839E+02  0.31578082999E+03  0.33811688482E+03  0.41800000000E+01 0.  1.
        -11    1    4    4    0    0  0.71540018236E+02 -0.12946571547E+03  0.10604856493E+03  0.18200451592E+03  0.00000000000E+00 0.  1.
         11    1    4    4    0    0 -0.73661845836E+01 -0.25418504349E+02  0.82436280626E+02  0.86580028887E+02  0.00000000000E+00 0. -1.
</event>
<event>
 8    1  0.6627806E-009  0.4622903E+02  0.7561462E-02  0.1466812E+00
          1   -1    0    0  501    0  0.00000000000E+00  0.00000000000E+00  0.43353465395E+03  0.43353465395E+03  0.00000000000E+00 0. -1.
         -1   -1    0    0    0  501 -0.00000000000E+00 -0.00000000000E+00 -0.29890728682E+02  0.29890728682E+02  0.00000000000E+00 0.  1.
         25    2    1    2    0    0  0.21430673737E+02 -0.16466645065E+02  0.21068111932E+03  0.24650385111E+03  0.12508873008E+03 0.  0.
         23    2    1    2    0    0 -0.21430673737E+02  0.16466645065E+02  0.19296280595E+03  0.21692153153E+03  0.95340873634E+02 0.  0.
          5    1    3    3  502    0  0.80748794668E+01  0.53934255588E+01  0.21899412607E+03  0.21924915592E+03  0.41800000000E+01 0.  1.
         -5    1    3    3    0  502  0.13355794270E+02 -0.21860070624E+02 -0.83130067509E+01  0.27254695183E+02  0.41800000000E+01 0.  1.
        -11    1    4    4    0    0 -0.75963438558E+01 -0.17595825669E+02 -0.13008234263E+01  0.19209624216E+02  0.00000000000E+00 0.  1.
         11    1    4    4    0    0 -0.13834329881E+02  0.34062470734E+02  0.19426362937E+03  0.19771190731E+03  0.00000000000E+00 0. -1.
</event>
<event>
 8    1  0.6627806E-009  0.1003739E+03  0.7561462E-02  0.1279512E+00
         -2   -1    0    0    0  501 -0.00000000000E+00  0.00000000000E+00  0.25347637121E+02  0.25347637121E+02  0.00000000000E+00 0.  1.
          2   -1    0    0  501    0  0.00000000000E+00 -0.00000000000E+00 -0.56259415438E+03  0.56259415438E+03  0.00000000000E+00 0. -1.
         25    2    1    2    0    0  0.32842968958E+01 -0.44853908641E+02 -0.36745027743E+03  0.39075555606E+03  0.12509012142E+03 0.  0.
         23    2    1    2    0    0 -0.32842968958E+01  0.44853908641E+02 -0.16979623983E+03  0.19718623545E+03  0.89604624121E+02 0.  0.
          5    1    3    3  502    0  0.42385706084E+02  0.56437320151E+01 -0.27485825122E+03  0.27819584910E+03  0.41800000000E+01 0.  1.
         -5    1    3    3    0  502 -0.39101409188E+02 -0.50497640656E+02 -0.92592026211E+02  0.11255970696E+03  0.41800000000E+01 0.  1.
        -11    1    4    4    0    0 -0.22834878006E+02  0.63059378965E+02 -0.14877454923E+03  0.16319247356E+03  0.00000000000E+00 0. -1.
         11    1    4    4    0    0  0.19550581110E+02 -0.18205470324E+02 -0.21021690598E+02  0.33993761885E+02  0.00000000000E+00 0.  1.
</event>
<event>
 8    1  0.6627806E-009  0.1618505E+03  0.7561462E-02  0.1186623E+00
          2   -1    0    0  501    0  0.00000000000E+00  0.00000000000E+00  0.54891773332E+03  0.54891773332E+03  0.00000000000E+00 0.  1.
         -2   -1    0    0    0  501 -0.00000000000E+00 -0.00000000000E+00 -0.52763261614E+02  0.52763261614E+02  0.00000000000E+00 0. -1.
         25    2    1    2    0    0 -0.87789724507E+02  0.92004269502E+02  0.21103512783E+03  0.27632581959E+03  0.12509321347E+03 0.  0.
         23    2    1    2    0    0  0.87789724507E+02 -0.92004269502E+02  0.28511934388E+03  0.32535517535E+03  0.91603103320E+02 0.  0.
          5    1    3    3  502    0  0.26053164754E+02  0.15755200631E+02  0.87243768017E+01  0.31946531755E+02  0.41800000000E+01 0. -1.
         -5    1    3    3    0  502 -0.11384288926E+03  0.76249068871E+02  0.20231075103E+03  0.24437928783E+03  0.41800000000E+01 0. -1.
        -11    1    4    4    0    0  0.32563655278E+02 -0.95152868069E+02  0.16740677467E+03  0.19529333873E+03  0.00000000000E+00 0.  1.
         11    1    4    4    0    0  0.55226069229E+02  0.31485985670E+01  0.11771256921E+03  0.13006183662E+03  0.00000000000E+00 0. -1.
</event>
<event>
 8    1  0.6627806E-009  0.8437940E+02  0.7561462E-02  0.1317063E+00
         -1   -1    0    0    0  501 -0.00000000000E+00  0.00000000000E+00  0.30630797679E+02  0.30630797679E+02  0.00000000000E+00 0.  1.
          1   -1    0    0  501    0  0.00000000000E+00 -0.00000000000E+00 -0.53547518591E+03  0.53547518591E+03  0.00000000000E+00 0. -1.
         25    2    1    2    0    0 -0.65374091171E+01 -0.16689952950E+02 -0.42349076071E+03  0.44194194723E+03  0.12508784142E+03 0.  0.
         23    2    1    2    0    0  0.65374091171E+01  0.16689952950E+02 -0.81353627521E+02  0.12416403635E+03  0.92070641171E+02 0.  0.
          5    1    3    3  502    0 -0.26491726834E+02 -0.45167307835E+02 -0.74269244348E+02  0.90968622853E+02  0.41800000000E+01 0. -1.
         -5    1    3    3    0  502  0.19954317716E+02  0.28477354885E+02 -0.34922151636E+03  0.35097332438E+03  0.41800000000E+01 0. -1.
        -11    1    4    4    0    0 -0.21478627453E+02 -0.23742290905E+02 -0.64775022148E+02  0.72255320281E+02  0.00000000000E+00 0. -1.
         11    1    4    4    0    0  0.28016036570E+02  0.40432243856E+02 -0.16578605373E+02  0.51908716074E+02  0.00000000000E+00 0.  1.
</event>
<event>
 8    1  0.6627806E-009  0.1114796E+03  0.7561462E-02  0.1257854E+00
         -1   -1    0    0    0  501 -0.00000000000E+00  0.00000000000E+00  0.46982849411E+02  0.46982849411E+02  0.00000000000E+00 0.  1.
          1   -1    0    0  501    0  0.00000000000E+00 -0.00000000000E+00 -0.31573954512E+03  0.31573954512E+03  0.00000000000E+00 0. -1.
         25    2    1    2    0    0  0.51133873374E+02 -0.37727941207E+02 -0.18022994331E+03  0.22840448537E+03  0.12509079071E+03 0.  0.
         23    2    1    2    0    0 -0.51133873374E+02  0.37727941207E+02 -0.88526752406E+02  0.13431790916E+03  0.78525437129E+02 0.  0.
          5    1    3    3  502    0  0.88145938999E+02 -0.11918119463E+02 -0.14826246328E+03  0.17294790705E+03  0.41800000000E+01 0.  1.
         -5    1    3    3    0  502 -0.37012065625E+02 -0.25809821744E+02 -0.31967480022E+02  0.55456578322E+02  0.41800000000E+01 0.  1.
        -11    1    4    4    0    0 -0.65662609753E+01 -0.16879396440E+02  0.34516277139E+01  0.18437557898E+02  0.00000000000E+00 0.  1.
         11    1    4    4    0    0 -0.44567612398E+02  0.54607337646E+02 -0.91978380120E+02  0.11588035126E+03  0.00000000000E+00 0. -1.
</event>
<event>
 8    1  0.6627806E-009  0.8579017E+02  0.7561462E-02  0.1313379E+00
          1   -1    0    0  501    0  0.00000000000E+00  0.00000000000E+00  0.11084461678E+03  0.11084461678E+03  0.00000000000E+00 0. -1.
         -1   -1    0    0    0  501 -0.00000000000E+00 -0.00000000000E+00 -0.11286936036E+03  0.11286936036E+03  0.00000000000E+00 0.  1.
         25    2    1    2    0    0 -0.88735708910E+01  0.21207743445E+02 -0.18587018385E+02  0.12853470862E+03  0.12508871022E+03 0.  0.
         23    2    1    2    0    0  0.88735708910E+01 -0.21207743445E+02  0.16562274809E+02  0.95179268526E+02  0.90864049920E+02 0.  0.
          5    1    3    3  502    0 -0.36474298965E+02  0.52960920712E+02  0.23772026403E+02  0.68686354153E+02  0.41800000000E+01 0. -1.
         -5    1    3    3    0  502  0.27600728074E+02 -0.31753177266E+02 -0.42359044788E+02  0.59848354464E+02  0.41800000000E+01 0. -1.
        -11    1    4    4    0    0  0.12074123127E+02  0.20089393352E+02 -0.26534760744E+02  0.35404261075E+02  0.00000000000E+00 0.  1.
         11    1    4    4    0    0 -0.32005522357E+01 -0.41297136798E+02  0.43097035553E+02  0.59775007451E+02  0.00000000000E+00 0. -1.
</event>
<event>
 8    1  0.6627806E-009  0.1092989E+03  0.7561462E-02  0.1261874E+00
         -2   -1    0    0    0  501 -0.00000000000E+00  0.00000000000E+00  0.19776490020E+03  0.19776490020E+03  0.00000000000E+00 0.  1.
          2   -1    0    0  501    0  0.00000000000E+00 -0.00000000000E+00 -0.79662084593E+02  0.79662084593E+02  0.00000000000E+00 0. -1.
         25    2    1    2    0    0 -0.54031829447E+02 -0.31814578966E+02  0.68244722342E+02  0.15568023568E+03  0.12508951845E+03 0.  0.
         23    2    1    2    0    0  0.54031829447E+02  0.31814578966E+02  0.49858093266E+02  0.12174674911E+03  0.91677889523E+02 0.  0.
          5    1    3    3  502    0  0.16637869690E+02  0.15837067085E+02 -0.21571913408E+02  0.31787595848E+02  0.41800000000E+01 0. -1.
         -5    1    3    3    0  502 -0.70669699137E+02 -0.47651646051E+02  0.89816635750E+02  0.12389263983E+03  0.41800000000E+01 0. -1.
        -11    1    4    4    0    0  0.21792703670E+02  0.62018730455E+02  0.21124845063E+02  0.69047113911E+02  0.00000000000E+00 0.  1.
         11    1    4    4    0    0  0.32239125778E+02 -0.30204151490E+02  0.28733248204E+02  0.52699635202E+02  0.00000000000E+00 0. -1.
</event>
<event>
 8    1  0.6627806E-009  0.7619592E+02  0.7561462E-02  0.1340207E+00
          1   -1    0    0  501    0  0.00000000000E+00  0.00000000000E+00  0.33501805052E+03  0.33501805052E+03  0.00000000000E+00 0. -1.
         -1   -1    0    0    0  501 -0.00000000000E+00 -0.00000000000E+00 -0.37937676571E+02  0.37937676571E+02  0.00000000000E+00 0.  1.
         25    2    1    2    0    0 -0.23309063312E+02 -0.32710879912E+01  0.21620803119E+03  0.25089535775E+03  0.12509418589E+03 0.  0.
         23    2    1    2    0    0  0.23309063312E+02  0.32710879912E+01  0.80872342762E+02  0.12206036934E+03  0.88342433122E+02 0.  0.
          5    1    3    3  502    0 -0.26924934893E+02  0.50864380318E+02  0.16993442228E+03  0.17946397293E+03  0.41800000000E+01 0.  1.
         -5    1    3    3    0  502  0.36158715805E+01 -0.54135468310E+02  0.46273608903E+02  0.71431384820E+02  0.41800000000E+01 0.  1.
        -11    1    4    4    0    0  0.87802417582E+01  0.17723592347E+02  0.95085517839E+02  0.97120925004E+02  0.00000000000E+00 0. -1.
         11    1    4    4    0    0  0.14528821554E+02 -0.14452504356E+02 -0.14213175077E+02  0.24939444334E+02  0.00000000000E+00 0.  1.
</event>
<event>
 8    1  0.6627806E-009  0.1877201E+03  0.7561462E-02  0.1160534E+00
          1   -1    0    0  501    0  0.00000000000E+00  0.00000000000E+00  0.13425084823E+03  0.13425084823E+03  0.00000000000E+00 0. -1.
         -1   -1    0    0    0  501 -0.00000000000E+00 -0.00000000000E+00 -0.31272219685E+03  0.31272219685E+03  0.00000000000E+00 0.  1.
         25    2    1    2    0    0  0.16398696875E+03  0.14817588916E+02 -0.32987878261E+02  0.20940089741E+03  0.12509695784E+03 0.  0.
         23    2    1    2    0    0 -0.16398696875E+03 -0.14817588916E+02 -0.14548347036E+03  0.23757214767E+03  0.90353740039E+02 0.  0.
          5    1    3    3  502    0  0.42514669551E+02 -0.48666373390E+02 -0.32094090470E+02  0.72273204364E+02  0.41800000000E+01 0.  1.
         -5    1    3    3    0  502  0.12147229920E+03  0.63483962306E+02 -0.89378779151E+00  0.13712769304E+03  0.41800000000E+01 0.  1.
        -11    1    4    4    0    0 -0.59088919350E+02 -0.32102548510E+02 -0.14355011084E+02  0.68761474345E+02  0.00000000000E+00 0. -1.
         11    1    4    4    0    0 -0.10489804940E+03  0.17284959594E+02 -0.13112845928E+03  0.16881067333E+03  0.00000000000E+00 0.  1.
</event>
<event>
 8    1  0.6627806E-009  0.9766963E+02  0.7561462E-02  0.1285274E+00
         -3   -1    0    0    0  501 -0.00000000000E+00  0.00000000000E+00  0.13888418265E+03  0.13888418265E+03  0.00000000000E+00 0.  1.
          3   -1    0    0  501    0  0.00000000000E+00 -0.00000000000E+00 -0.11992524492E+03  0.11992524492E+03  0.00000000000E+00 0. -1.
         25    2    1    2    0    0  0.67445417312E+01 -0.61810667637E+02 -0.17419200116E+02  0.14077542072E+03  0.12509293773E+03 0.  0.
         23    2    1    2    0    0 -0.67445417312E+01  0.61810667637E+02  0.36378137841E+02  0.11803400684E+03  0.93501927153E+02 0.  0.
          5    1    3    3  502    0  0.73491587078E+00  0.12809745109E+02 -0.55193293829E+02  0.56819026345E+02  0.41800000000E+01 0. -1.
         -5    1    3    3    0  502  0.60096258604E+01 -0.74620412746E+02  0.37774093714E+02  0.83956394380E+02  0.41800000000E+01 0. -1.
        -11    1    4    4    0    0 -0.35499107260E+01  0.84187539499E+02  0.12552658744E+02  0.85192211584E+02  0.00000000000E+00 0.  1.
         11    1    4    4    0    0 -0.31946310052E+01 -0.22376871861E+02  0.23825479097E+02  0.32841795258E+02  0.00000000000E+00 0. -1.
</event>
<event>
 8    1  0.6627806E-009  0.1159883E+03  0.7561462E-02  0.1249866E+00
         -1   -1    0    0    0  501 -0.00000000000E+00  0.00000000000E+00  0.23374609137E+02  0.23374609137E+02  0.00000000000E+00 0.  1.
          1   -1    0    0  501    0  0.00000000000E+00 -0.00000000000E+00 -0.10923656756E+04  0.10923656756E+04  0.00000000000E+00 0. -1.
         25    2    1    2    0    0 -0.10332753527E+03  0.81265678126E+01 -0.75985263743E+03  0.77702400665E+03  0.12509058978E+03 0.  0.
         23    2    1    2    0    0  0.10332753527E+03 -0.81265678126E+01 -0.30913842902E+03  0.33871627807E+03  0.91757986497E+02 0.  0.
          5    1    3    3  502    0 -0.48571944910E+02 -0.24693989172E+02 -0.62899909283E+03  0.63136863884E+03  0.41800000000E+01 0.  1.
         -5    1    3    3    0  502 -0.54755590362E+02  0.32820556985E+02 -0.13085354460E+03  0.14565536781E+03  0.41800000000E+01 0.  1.
        -11    1    4    4    0    0  0.69300414550E+02 -0.27079261590E+02 -0.93017971102E+02  0.11911413356E+03  0.00000000000E+00 0.  1.
         11    1    4    4    0    0  0.34027120721E+02  0.18952693777E+02 -0.21612045792E+03  0.21960214452E+03  0.00000000000E+00 0. -1.
</event>
<event>
 8    1  0.6627806E-009  0.9073656E+02  0.7561462E-02  0.1301078E+00
          1   -1    0    0  501    0  0.00000000000E+00  0.00000000000E+00  0.91521687116E+02  0.91521687116E+02  0.00000000000E+00 0. -1.
         -1   -1    0    0    0  501 -0.00000000000E+00 -0.00000000000E+00 -0.16689199319E+03  0.16689199319E+03  0.00000000000E+00 0.  1.
         25    2    1    2    0    0  0.35356093389E+02  0.34824583694E+02 -0.71876610593E+01  0.13477461524E+03  0.12509887878E+03 0.  0.
         23    2    1    2    0    0 -0.35356093389E+02 -0.34824583694E+02 -0.68182645011E+02  0.12363906507E+03  0.90415376793E+02 0.  0.
          5    1    3    3  502    0  0.11260575958E+02 -0.23107810688E+02 -0.51593171332E+02  0.57793591459E+02  0.41800000000E+01 0. -1.
         -5    1    3    3    0  502  0.24095517431E+02  0.57932394382E+02  0.44405510272E+02  0.76981023777E+02  0.41800000000E+01 0. -1.
        -11    1    4    4    0    0  0.28290458879E+01  0.23043279192E+02 -0.44822686513E+02  0.50478405708E+02  0.00000000000E+00 0.  1.
         11    1    4    4    0    0 -0.38185139277E+02 -0.57867862886E+02 -0.23359958497E+02  0.73160659358E+02  0.00000000000E+00 0. -1.
</event>
<event>
 7    1  0.6627806E-009  0.1772192E+03  0.7561462E-02  0.1170522E+00
          1   -1    0    0  501    0  0.00000000000E+00  0.00000000000E+00  0.16662004223E+03  0.16662004223E+03  0.00000000000E+00 0. -1.
         -1   -1    0    0    0  501 -0.00000000000E+00 -0.00000000000E+00 -0.23359791202E+03  0.23359791202E+03  0.00000000000E+00 0.  1.
         25    2    1    2    0    0  0.20355129143E+02  0.16827587378E+03 -0.73434696628E+02  0.22310502157E+03  0.12510833308E+03 0.  0.
          5    1    3    3  502    0 -0.13554756246E+02  0.10893474841E+03  0.15415492433E+02  0.11093070195E+03  0.41800000000E+01 0. -1.
         -5    1    3    3    0  502  0.33909885388E+02  0.59341125362E+02 -0.88850189060E+02  0.11217431962E+03  0.41800000000E+01 0. -1.
        -11    1    1    2    0    0 -0.35699569988E+02 -0.10154640955E+03 -0.46877558055E+01  0.10774092836E+03  0.00000000000E+00 0.  1.
         11    1    1    2    0    0  0.15344440845E+02 -0.66729464224E+02  0.11144582635E+02  0.69372004314E+02  0.00000000000E+00 0. -1.
</event>
<event>
 8    1  0.6627806E-009  0.4871756E+02  0.7561462E-02  0.1452384E+00
          2   -1    0    0  501    0  0.00000000000E+00  0.00000000000E+00  0.10666544995E+03  0.10666544995E+03  0.00000000000E+00 0. -1.
         -2   -1    0    0    0  501 -0.00000000000E+00 -0.00000000000E+00 -0.16863962152E+03  0.16863962152E+03  0.00000000000E+00 0.  1.
         25    2    1    2    0    0 -0.40865433284E+02  0.12115692465E+02  0.34037795332E+02  0.13647804339E+03  0.12510360177E+03 0.  0.
         23    2    1    2    0    0  0.40865433284E+02 -0.12115692465E+02 -0.96011966895E+02  0.13882702808E+03  0.90762725262E+02 0.  0.
          5    1    3    3  502    0 -0.89380968340E+01 -0.59254911074E+01  0.78131832335E+02  0.78975038106E+02  0.41800000000E+01 0.  1.
         -5    1    3    3    0  502 -0.31927336450E+02  0.18041183572E+02 -0.44094037003E+02  0.57503005284E+02  0.41800000000E+01 0.  1.
        -11    1    4    4    0    0  0.31510591040E+02 -0.19536208548E+02 -0.11251000598E+03  0.11846131115E+03  0.00000000000E+00 0.  1.
         11    1    4    4    0    0  0.93548422438E+01  0.74205160839E+01  0.16498039090E+02  0.20365716932E+02  0.00000000000E+00 0. -1.
</event>
<event>
 8    1  0.6627806E-009  0.1077904E+03  0.7561462E-02  0.1264717E+00
          1   -1    0    0  501    0  0.00000000000E+00  0.00000000000E+00  0.75392079087E+03  0.75392079087E+03  0.00000000000E+00 0. -1.
         -1   -1    0    0    0  501 -0.00000000000E+00 -0.00000000000E+00 -0.20874509003E+02  0.20874509003E+02  0.00000000000E+00 0.  1.
         25    2    1    2    0    0 -0.35075388909E+02 -0.15703882657E+02  0.59525782052E+03  0.60947204866E+03  0.12508960939E+03 0.  0.
         23    2    1    2    0    0  0.35075388909E+02  0.15703882657E+02  0.13778846135E+03  0.16532325121E+03  0.82880772631E+02 0.  0.
          5    1    3    3  502    0  0.37830629392E+02  0.20766955530E+02  0.30083962173E+03  0.30394797806E+03  0.41800000000E+01 0. -1.
         -5    1    3    3    0  502 -0.72906018302E+02 -0.36470838186E+02  0.29441819879E+03  0.30552407061E+03  0.41800000000E+01 0. -1.
        -11    1    4    4    0    0  0.51148841615E+02 -0.17210847133E+02  0.71408945156E+02  0.89507847175E+02  0.00000000000E+00 0.  1.
         11    1    4    4    0    0 -0.16073452705E+02  0.32914729790E+02  0.66379516191E+02  0.75815404033E+02  0.00000000000E+00 0. -1.
</event>
<event>
 8    1  0.6627806E-009  0.1153128E+03  0.7561462E-02  0.1251036E+00
          1   -1    0    0  501    0  0.00000000000E+00  0.00000000000E+00  0.54815012142E+03  0.54815012142E+03  0.00000000000E+00 0. -1.
         -1   -1    0    0    0  501 -0.00000000000E+00 -0.00000000000E+00 -0.46009918623E+02  0.46009918623E+02  0.00000000000E+00 0.  1.
         25    2    1    2    0    0  0.48975071527E+02  0.87840396803E+02  0.37618716840E+03  0.40899580098E+03  0.12508511744E+03 0.  0.
         23    2    1    2    0    0 -0.48975071527E+02 -0.87840396803E+02  0.12595303440E+03  0.18516423906E+03  0.91143489143E+02 0.  0.
          5    1    3    3  502    0 -0.15629616673E+02  0.13494633094E+02  0.23972809668E+03  0.24065207827E+03  0.41800000000E+01 0. -1.
         -5    1    3    3    0  502  0.64604688200E+02  0.74345763710E+02  0.13645907172E+03  0.16834372271E+03  0.41800000000E+01 0. -1.
        -11    1    4    4    0    0  0.41267618805E+00 -0.46685807534E+02  0.34469337531E+01  0.46814701527E+02  0.00000000000E+00 0.  1.
         11    1    4    4    0    0 -0.49387747715E+02 -0.41154589270E+02  0.12250610064E+03  0.13834953754E+03  0.00000000000E+00 0. -1.
</event>
<event>
 8    1  0.6627806E-009  0.1759616E+03  0.7561462E-02  0.1171770E+00
          1   -1    0    0  501    0  0.00000000000E+00  0.00000000000E+00  0.40087835947E+03  0.40087835947E+03  0.00000000000E+00 0. -1.
         -1   -1    0    0    0  501 -0.00000000000E+00 -0.00000000000E+00 -0.12876158763E+03  0.12876158763E+03  0.00000000000E+00 0.  1.
         25    2    1    2    0    0  0.84186895026E+02 -0.12168838993E+03  0.29795820669E+03  0.35541701881E+03  0.12508663712E+03 0.  0.
         23    2    1    2    0    0 -0.84186895026E+02  0.12168838993E+03 -0.25841434840E+02  0.17422292829E+03  0.88262967603E+02 0.  0.
          5    1    3    3  502    0  0.11332619225E+02 -0.11980856112E+03  0.17511367881E+03  0.21252009900E+03  0.41800000000E+01 0. -1.
         -5    1    3    3    0  502  0.72854275801E+02 -0.18798288151E+01  0.12284452788E+03  0.14289691980E+03  0.41800000000E+01 0. -1.
        -11    1    4    4    0    0 -0.28858828810E+02  0.90513007533E+02  0.18475391635E+02  0.96782109034E+02  0.00000000000E+00 0.  1.
         11    1    4    4    0    0 -0.55328066215E+02  0.31175382400E+02 -0.44316826474E+02  0.77440819260E+02  0.00000000000E+00 0. -1.
</event>
<event>
 8    1  0.6627806E-009  0.1048223E+03  0.7561462E-02  0.1270470E+00
          2   -1    0    0  501    0  0.00000000000E+00  0.00000000000E+00  0.47542925560E+02  0.47542925560E+02  0.00000000000E+00 0. -1.
         -2   -1    0    0    0  501 -0.00000000000E+00 -0.00000000000E+00 -0.30451171813E+03  0.30451171813E+03  0.00000000000E+00 0.  1.
         25    2    1    2    0    0  0.50432581452E+02  0.34008568927E+02 -0.18093852044E+03  0.22822485610E+03  0.12509120166E+03 0.  0.
         23    2    1    2    0    0 -0.50432581452E+02 -0.34008568927E+02 -0.76030272134E+02  0.12382978759E+03  0.76506117278E+02 0.  0.
          5    1    3    3  502    0 -0.25863214800E+02  0.23591287524E+02 -0.43380968809E+01  0.35521067149E+02  0.41800000000E+01 0. -1.
         -5    1    3    3    0  502  0.76295796251E+02  0.10417281403E+02 -0.17660042355E+03  0.19270378895E+03  0.41800000000E+01 0. -1.
        -11    1    4    4    0    0 -0.61738565120E+02 -0.32224310828E+00 -0.53989988773E+02  0.82016298084E+02  0.00000000000E+00 0.  1.
         11    1    4    4    0    0  0.11305983668E+02 -0.33686325819E+02 -0.22040283361E+02  0.41813489504E+02  0.00000000000E+00 0. -1.
</event>
<event>
 8    1  0.6627806E-009  0.1518789E+03  0.7561462E-02  0.1198183E+00
         -1   -1    0    0    0  501 -0.00000000000E+00  0.00000000000E+00  0.15991774786E+03  0.15991774786E+03  0.00000000000E+00 0.  1.
          1   -1    0    0  501    0  0.00000000000E+00 -0.00000000000E+00 -0.15156930708E+03  0.15156930708E+03  0.00000000000E+00 0. -1.
         25    2    1    2    0    0 -0.75986951834E+02 -0.80060157484E+02  0.17255349463E+02  0.16773734085E+03  0.12511763571E+03 0.  0.
         23    2    1    2    0    0  0.75986951834E+02  0.80060157484E+02 -0.89069086773E+01  0.14374971409E+03  0.91656977992E+02 0.  0.
          5    1    3    3  502    0  0.32717992710E+02 -0.29328954317E+02  0.18091726077E+02  0.47701546734E+02  0.41800000000E+01 0.  1.
         -5    1    3    3    0  502 -0.10870494454E+03 -0.50731203167E+02 -0.83637661450E+00  0.12003579412E+03  0.41800000000E+01 0.  1.
        -11    1    4    4    0    0  0.86661712464E+02  0.35305943869E+02 -0.21565612615E+02  0.96030400015E+02  0.00000000000E+00 0.  1.
         11    1    4    4    0    0 -0.10674760630E+02  0.44754213615E+02  0.12658703937E+02  0.47719314079E+02  0.00000000000E+00 0. -1.
</event>
<event>
 8    1  0.6627806E-009  0.9776636E+02  0.7561462E-02  0.1285064E+00
          2   -1    0    0  501    0  0.00000000000E+00  0.00000000000E+00  0.10766837358E+03  0.10766837358E+03  0.00000000000E+00 0. -1.
         -2   -1    0    0    0  501 -0.00000000000E+00 -0.00000000000E+00 -0.15583182951E+03  0.15583182951E+03  0.00000000000E+00 0.  1.
         25    2    1    2    0    0 -0.42091233836E+02  0.86991287793E+01  0.31598970443E+02  0.13599046793E+03  0.12509022995E+03 0.  0.
         23    2    1    2    0    0  0.42091233836E+02 -0.86991287793E+01 -0.79762426379E+02  0.12750973515E+03  0.89718120186E+02 0.  0.
          5    1    3    3  502    0 -0.19539746168E+02 -0.53465162538E+02 -0.97255420714E+01  0.57899774215E+02  0.41800000000E+01 0.  1.
         -5    1    3    3    0  502 -0.22551487668E+02  0.62164291318E+02  0.41324512515E+02  0.78090693720E+02  0.41800000000E+01 0.  1.
        -11    1    4    4    0    0 -0.11004808619E+02  0.11002753010E+02 -0.67882822205E+02  0.69643692730E+02  0.00000000000E+00 0.  1.
         11    1    4    4    0    0  0.53096042455E+02 -0.19701881789E+02 -0.11879604174E+02  0.57866042424E+02  0.00000000000E+00 0. -1.
</event>
<event>
 8    1  0.6627806E-009  0.1621476E+03  0.7561462E-02  0.1186293E+00
         -1   -1    0    0    0  501 -0.00000000000E+00  0.00000000000E+00  0.46375952160E+02  0.46375952160E+02  0.00000000000E+00 0.  1.
          1   -1    0    0  501    0  0.00000000000E+00 -0.00000000000E+00 -0.64623861989E+03  0.64623861989E+03  0.00000000000E+00 0. -1.
         25    2    1    2    0    0 -0.17514263777E+01 -0.13346169479E+03 -0.34886467123E+03  0.39391405619E+03  0.12508650351E+03 0.  0.
         23    2    1    2    0    0  0.17514263777E+01  0.13346169479E+03 -0.25099799650E+03  0.29870051586E+03  0.91689216711E+02 0.  0.
          5    1    3    3  502    0 -0.60606836047E+02 -0.93809909532E+02 -0.20777201016E+03  0.23592407318E+03  0.41800000000E+01 0.  1.
         -5    1    3    3    0  502  0.58855409669E+02 -0.39651785254E+02 -0.14109266108E+03  0.15798998301E+03  0.41800000000E+01 0.  1.
        -11    1    4    4    0    0 -0.21763486546E+02  0.46219045280E+02 -0.16946043479E+03  0.17699347009E+03  0.00000000000E+00 0. -1.
         11    1    4    4    0    0  0.23514912924E+02  0.87242649505E+02 -0.81537561706E+02  0.12170704578E+03  0.00000000000E+00 0.  1.
</event>
<event>
 8    1  0.6627806E-009  0.1451623E+03  0.7561462E-02  0.1206547E+00
         -1   -1    0    0    0  501 -0.00000000000E+00  0.00000000000E+00  0.17282865387E+02  0.17282865387E+02  0.00000000000E+00 0.  1.
          1   -1    0    0  501    0  0.00000000000E+00 -0.00000000000E+00 -0.14699751963E+04  0.14699751963E+04  0.00000000000E+00 0. -1.
         25    2    1    2    0    0  0.68531838994E+02  0.76424779802E+02 -0.10395631498E+04  0.10520781280E+04  0.12505792718E+03 0.  0.
         23    2    1    2    0    0 -0.68531838994E+02 -0.76424779802E+02 -0.41312918112E+03  0.43517993366E+03  0.90379723609E+02 0.  0.
          5    1    3    3  502    0  0.78317664128E+02  0.10036903568E+03 -0.95744524699E+03  0.96588119001E+03  0.41800000000E+01 0.  1.
         -5    1    3    3    0  502 -0.97858251341E+01 -0.23944255876E+02 -0.82117902823E+02  0.86196938038E+02  0.41800000000E+01 0.  1.
        -11    1    4    4    0    0 -0.63635205537E+02 -0.35804488044E+01 -0.18843062366E+03  0.19891797035E+03  0.00000000000E+00 0.  1.
         11    1    4    4    0    0 -0.48966334567E+01 -0.72844330998E+02 -0.22469855747E+03  0.23626196331E+03  0.00000000000E+00 0. -1.
</event>
<event>
 8    1  0.6627806E-009  0.2627260E+03  0.7561462E-02  0.1105516E+00
         -1   -1    0    0    0  501 -0.00000000000E+00  0.00000000000E+00  0.48040386938E+03  0.48040386938E+03  0.00000000000E+00 0.  1.
          1   -1    0    0  501    0  0.00000000000E+00 -0.00000000000E+00 -0.15689582037E+03  0.15689582037E+03  0.00000000000E+00 0. -1.
         25    2    1    2    0    0 -0.18701505982E+03  0.16279950568E+03  0.21978243309E+03  0.35415747858E+03  0.12507953505E+03 0.  0.
         23    2    1    2    0    0  0.18701505982E+03 -0.16279950568E+03  0.10372561592E+03  0.28314221117E+03  0.89062880606E+02 0.  0.
          5    1    3    3  502    0 -0.15622874966E+03  0.18282942416E+03  0.19518578804E+03  0.30975633135E+03  0.41800000000E+01 0. -1.
         -5    1    3    3    0  502 -0.30786310157E+02 -0.20029918477E+02  0.24596645046E+02  0.44401147224E+02  0.41800000000E+01 0. -1.
        -11    1    4    4    0    0  0.90239498704E+02 -0.76763878772E+02  0.97616204514E+02  0.15350825253E+03  0.00000000000E+00 0.  1.
         11    1    4    4    0    0  0.96775561115E+02 -0.86035626910E+02  0.61094114066E+01  0.12963395865E+03  0.00000000000E+00 0. -1.
</event>
<event>
 8    1  0.6627806E-009  0.1373272E+03  0.7561462E-02  0.1216971E+00
         -2   -1    0    0    0  501 -0.00000000000E+00  0.00000000000E+00  0.79632309331E+02  0.79632309331E+02  0.00000000000E+00 0.  1.
          2   -1    0    0  501    0  0.00000000000E+00 -0.00000000000E+00 -0.32364956929E+03  0.32364956929E+03  0.00000000000E+00 0. -1.
         25    2    1    2    0    0 -0.76619346751E+02 -0.86952862153E+02 -0.14130847668E+03  0.22146380178E+03  0.12508719112E+03 0.  0.
         23    2    1    2    0    0  0.76619346751E+02  0.86952862153E+02 -0.10270878327E+03  0.18181807684E+03  0.95275360778E+02 0.  0.
          5    1    3    3  502    0 -0.37559672520E+02  0.36225722512E+00 -0.11661456813E+03  0.12258584800E+03  0.41800000000E+01 0. -1.
         -5    1    3    3    0  502 -0.39059674232E+02 -0.87315119378E+02 -0.24693908551E+02  0.98877953774E+02  0.41800000000E+01 0. -1.
        -11    1    4    4    0    0  0.50475494239E+02  0.16445648252E+00 -0.68162829064E+02  0.84817296765E+02  0.00000000000E+00 0.  1.
         11    1    4    4    0    0  0.26143852512E+02  0.86788405670E+02 -0.34545954210E+02  0.97000780075E+02  0.00000000000E+00 0. -1.
</event>
<event>
 8    1  0.6627806E-009  0.8109224E+02  0.7561462E-02  0.1325980E+00
         -1   -1    0    0    0  501 -0.00000000000E+00  0.00000000000E+00  0.46271521315E+02  0.46271521315E+02  0.00000000000E+00 0.  1.
          1   -1    0    0  501    0  0.00000000000E+00 -0.00000000000E+00 -0.50530605310E+03  0.50530605310E+03  0.00000000000E+00 0. -1.
         25    2    1    2    0    0  0.12908368088E+01  0.10111541841E+02 -0.71343159630E+02  0.14436495934E+03  0.12508990975E+03 0.  0.
         23    2    1    2    0    0 -0.12908368088E+01 -0.10111541841E+02 -0.38769137215E+03  0.40721261507E+03  0.12415153762E+03 0.  0.
          5    1    3    3  502    0 -0.16805077074E+02  0.17468156750E+01 -0.10423425098E+03  0.10567740277E+03  0.41800000000E+01 0. -1.
         -5    1    3    3    0  502  0.18095913883E+02  0.83647261658E+01  0.32891091347E+02  0.38687556566E+02  0.41800000000E+01 0. -1.
        -11    1    4    4    0    0 -0.51878901724E+02  0.29929631521E+02 -0.19693696456E+03  0.20584307444E+03  0.00000000000E+00 0. -1.
         11    1    4    4    0    0  0.50588064915E+02 -0.40041173362E+02 -0.19075440760E+03  0.20136954063E+03  0.00000000000E+00 0.  1.
</event>
<event>
 8    1  0.6627806E-009  0.2153226E+03  0.7561462E-02  0.1137419E+00
         -2   -1    0    0    0  501 -0.00000000000E+00  0.00000000000E+00  0.33176225725E+02  0.33176225725E+02  0.00000000000E+00 0.  1.
          2   -1    0    0  501    0  0.00000000000E+00 -0.00000000000E+00 -0.21369750368E+04  0.21369750368E+04  0.00000000000E+00 0. -1.
         25    2    1    2    0    0 -0.17685980002E+03  0.96732993794E+02 -0.16296867417E+04  0.16468645106E+04  0.12508868554E+03 0.  0.
         23    2    1    2    0    0  0.17685980002E+03 -0.96732993794E+02 -0.47411206939E+03  0.52328675194E+03  0.91706648964E+02 0.  0.
          5    1    3    3  502    0 -0.12156352425E+03  0.68849847956E+01 -0.11023427382E+04  0.11090545876E+04  0.41800000000E+01 0.  1.
         -5    1    3    3    0  502 -0.55296275765E+02  0.89848008998E+02 -0.52734400347E+03  0.53780992296E+03  0.41800000000E+01 0.  1.
        -11    1    4    4    0    0  0.47417362463E+02 -0.39443873242E+02 -0.61631919253E+02  0.87193571266E+02  0.00000000000E+00 0.  1.
         11    1    4    4    0    0  0.12944243756E+03 -0.57289120552E+02 -0.41248015014E+03  0.43609318068E+03  0.00000000000E+00 0. -1.
</event>
<event>
 8    1  0.6627806E-009  0.1003960E+03  0.7561462E-02  0.1279465E+00
          2   -1    0    0  501    0  0.00000000000E+00  0.00000000000E+00  0.44486212886E+03  0.44486212886E+03  0.00000000000E+00 0.  1.
         -2   -1    0    0    0  501 -0.00000000000E+00 -0.00000000000E+00 -0.37129464683E+02  0.37129464683E+02  0.00000000000E+00 0. -1.
         25    2    1    2    0    0 -0.29309144004E+02  0.37537778238E+00  0.11542558009E+03  0.17272454727E+03  0.12510610641E+03 0.  0.
         23    2    1    2    0    0  0.29309144004E+02 -0.37537778238E+00  0.29230708409E+03  0.30926704627E+03  0.96661821157E+02 0.  0.
          5    1    3    3  502    0  0.38366952114E+02  0.33629672002E+02  0.32858896105E+02  0.60828918343E+02  0.41800000000E+01 0. -1.
         -5    1    3    3    0  502 -0.67676096118E+02 -0.33254294219E+02  0.82566683982E+02  0.11189562893E+03  0.41800000000E+01 0. -1.
        -11    1    4    4    0    0  0.44695828176E+02  0.19651944050E+02  0.27338126777E+03  0.27770710024E+03  0.00000000000E+00 0.  1.
         11    1    4    4    0    0 -0.15386684172E+02 -0.20027321832E+02  0.18925816323E+02  0.31559946025E+02  0.00000000000E+00 0. -1.
</event>
<event>
 8    1  0.6627806E-009  0.9720042E+02  0.7561462E-02  0.1286296E+00
         -3   -1    0    0    0  501 -0.00000000000E+00  0.00000000000E+00  0.86042136794E+03  0.86042136794E+03  0.00000000000E+00 0.  1.
          3   -1    0    0  501    0  0.00000000000E+00 -0.00000000000E+00 -0.22095000879E+02  0.22095000879E+02  0.00000000000E+00 0. -1.
         25    2    1    2    0    0  0.20835694233E+01 -0.45827406319E+02  0.66245513695E+03  0.67572103099E+03  0.12509041055E+03 0.  0.
         23    2    1    2    0    0 -0.20835694233E+01  0.45827406319E+02  0.17587123010E+03  0.20679533783E+03  0.98636350997E+02 0.  0.
          5    1    3    3  502    0 -0.57799424080E+02 -0.23210160862E+02  0.43265842133E+03  0.43713872734E+03  0.41800000000E+01 0.  1.
         -5    1    3    3    0  502  0.59882993503E+02 -0.22617245458E+02  0.22979671562E+03  0.23858230365E+03  0.41800000000E+01 0.  1.
        -11    1    4    4    0    0  0.23946086459E+02  0.20828102007E+02  0.16651438776E+03  0.16951184684E+03  0.00000000000E+00 0.  1.
         11    1    4    4    0    0 -0.26029655882E+02  0.24999304313E+02  0.93568423474E+01  0.37283490987E+02  0.00000000000E+00 0. -1.
</event>
<event>
 8    1  0.6627806E-009  0.7946306E+02  0.7561462E-02  0.1330582E+00
          2   -1    0    0  501    0  0.00000000000E+00  0.00000000000E+00  0.47461805939E+02  0.47461805939E+02  0.00000000000E+00 0. -1.
         -2   -1    0    0    0  501 -0.00000000000E+00 -0.00000000000E+00 -0.24877591352E+03  0.24877591352E+03  0.00000000000E+00 0.  1.
         25    2    1    2    0    0 -0.59649975776E+01 -0.77229957374E+01 -0.11074305664E+03  0.16735425779E+03  0.12509275417E+03 0.  0.
         23    2    1    2    0    0  0.59649975776E+01  0.77229957374E+01 -0.90571050938E+02  0.12888346167E+03  0.91173491571E+02 0.  0.
          5    1    3    3  502    0 -0.46655633230E+01  0.30092975822E+02  0.16256302066E+02  0.34772035198E+02  0.41800000000E+01 0. -1.
         -5    1    3    3    0  502 -0.12994342546E+01 -0.37815971559E+02 -0.12699935871E+03  0.13258222259E+03  0.41800000000E+01 0. -1.
        -11    1    4    4    0    0 -0.40011771216E+02 -0.93248298181E+01 -0.53272283832E+02  0.67274293097E+02  0.00000000000E+00 0. -1.
         11    1    4    4    0    0  0.45976768794E+02  0.17047825555E+02 -0.37298767106E+02  0.61609168575E+02  0.00000000000E+00 0.  1.
</event>
<event>
 8    1  0.6627806E-009  0.1438758E+03  0.7561462E-02  0.1208207E+00
         -2   -1    0    0    0  501 -0.00000000000E+00  0.00000000000E+00  0.23945150096E+03  0.23945150096E+03  0.00000000000E+00 0.  1.
          2   -1    0    0  501    0  0.00000000000E+00 -0.00000000000E+00 -0.13696287423E+03  0.13696287423E+03  0.00000000000E+00 0. -1.
         25    2    1    2    0    0 -0.94151093774E+02 -0.10577728795E+03  0.84504694596E+02  0.20698275322E+03  0.12509018195E+03 0.  0.
         23    2    1    2    0    0  0.94151093774E+02  0.10577728795E+03  0.17983932127E+02  0.16943162197E+03  0.91270968021E+02 0.  0.
          5    1    3    3  502    0 -0.25950634022E+02 -0.50055027323E+02 -0.28772151721E+02  0.63436978815E+02  0.41800000000E+01 0.  1.
         -5    1    3    3    0  502 -0.68200459752E+02 -0.55722260623E+02  0.11327684632E+03  0.14354577441E+03  0.41800000000E+01 0.  1.
        -11    1    4    4    0    0  0.48217897498E+02  0.69129149594E+02 -0.34089258435E+02  0.90916898888E+02  0.00000000000E+00 0.  1.
         11    1    4    4    0    0  0.45933196275E+02  0.36648138352E+02  0.52073190562E+02  0.78514723079E+02  0.00000000000E+00 0. -1.
</event>
<event>
 8    1  0.6627806E-009  0.1690735E+03  0.7561462E-02  0.1178818E+00
          1   -1    0    0  501    0  0.00000000000E+00  0.00000000000E+00  0.32304089743E+03  0.32304089743E+03  0.00000000000E+00 0. -1.
         -1   -1    0    0    0  501 -0.00000000000E+00 -0.00000000000E+00 -0.10857013668E+03  0.10857013668E+03  0.00000000000E+00 0.  1.
         25    2    1    2    0    0 -0.76149005490E+01 -0.15189816739E+03  0.11341321989E+03  0.22724683774E+03  0.12509007493E+03 0.  0.
         23    2    1    2    0    0  0.76149005490E+01  0.15189816739E+03  0.10105754087E+03  0.20436419637E+03  0.91766324025E+02 0.  0.
          5    1    3    3  502    0  0.39085498181E+02 -0.25764247248E+02  0.72857780746E+02  0.86701794789E+02  0.41800000000E+01 0.  1.
         -5    1    3    3    0  502 -0.46700398730E+02 -0.12613392015E+03  0.40555439146E+02  0.14054504295E+03  0.41800000000E+01 0.  1.
        -11    1    4    4    0    0 -0.14188250599E+02  0.86186485006E+02  0.10306680945E+03  0.13510064346E+03  0.00000000000E+00 0. -1.
         11    1    4    4    0    0  0.21803151148E+02  0.65711682388E+02 -0.20092685810E+01  0.69263552915E+02  0.00000000000E+00 0.  1.
</event>
<event>
 8    1  0.6627806E-009  0.1871332E+03  0.7561462E-02  0.1161073E+00
          2   -1    0    0  501    0  0.00000000000E+00  0.00000000000E+00  0.44834560624E+03  0.44834560624E+03  0.00000000000E+00 0.  1.
         -2   -1    0    0    0  501 -0.00000000000E+00 -0.00000000000E+00 -0.10263265743E+03  0.10263265743E+03  0.00000000000E+00 0. -1.
         25    2    1    2    0    0  0.23591289016E+02  0.16531132100E+03  0.28087842343E+03  0.34989152198E+03  0.12508799556E+03 0.  0.
         23    2    1    2    0    0 -0.23591289016E+02 -0.16531132100E+03  0.64834525375E+02  0.20108674169E+03  0.91367282075E+02 0.  0.
          5    1    3    3  502    0  0.70718633654E+02  0.94255556992E+02  0.20071980607E+03  0.23278992272E+03  0.41800000000E+01 0. -1.
         -5    1    3    3    0  502 -0.47127344637E+02  0.71055764013E+02  0.80158617357E+02  0.11710159926E+03  0.41800000000E+01 0. -1.
        -11    1    4    4    0    0  0.96731766055E+01 -0.52226014477E+02  0.64050168404E+02  0.83207878271E+02  0.00000000000E+00 0.  1.
         11    1    4    4    0    0 -0.33264465622E+02 -0.11308530653E+03  0.78435697145E+00  0.11787886342E+03  0.00000000000E+00 0. -1.
</event>
<event>
 8    1  0.6627806E-009  0.9041224E+02  0.7561462E-02  0.1301856E+00
         -1   -1    0    0    0  501 -0.00000000000E+00  0.00000000000E+00  0.77560110027E+02  0.77560110027E+02  0.00000000000E+00 0.  1.
          1   -1    0    0  501    0  0.00000000000E+00 -0.00000000000E+00 -0.21350832473E+03  0.21350832473E+03  0.00000000000E+00 0. -1.
         25    2    1    2    0    0  0.45914637747E+02 -0.52901360247E+02 -0.81209681625E+02  0.16476885170E+03  0.12508818580E+03 0.  0.
         23    2    1    2    0    0 -0.45914637747E+02  0.52901360247E+02 -0.54738533073E+02  0.12629958305E+03  0.89713821679E+02 0.  0.
          5    1    3    3  502    0  0.76305133652E+01 -0.39466652274E+02 -0.10844038278E+03  0.11572653280E+03  0.41800000000E+01 0. -1.
         -5    1    3    3    0  502  0.38284124382E+02 -0.13434707974E+02  0.27230701155E+02  0.49042318904E+02  0.41800000000E+01 0. -1.
        -11    1    4    4    0    0 -0.36656031531E+02  0.70656102291E+02 -0.65932914896E+02  0.10335907655E+03  0.00000000000E+00 0.  1.
         11    1    4    4    0    0 -0.92586062161E+01 -0.17754742044E+02  0.11194381823E+02  0.22940506501E+02  0.00000000000E+00 0. -1.
</event>
<event>
 8    1  0.6627806E-009  0.2351429E+02  0.7561462E-02  0.1683307E+00
         -1   -1    0    0    0  501 -0.00000000000E+00  0.00000000000E+00  0.90951203139E+02  0.90951203139E+02  0.00000000000E+00 0.  1.
          1   -1    0    0  501    0  0.00000000000E+00 -0.00000000000E+00 -0.17743033051E+03  0.17743033051E+03  0.00000000000E+00 0. -1.
         25    2    1    2    0    0 -0.99293722365E+01  0.75105157083E+01  0.20074232058E+02  0.12729917042E+03  0.12508838362E+03 0.  0.
         23    2    1    2    0    0  0.99293722365E+01 -0.75105157083E+01 -0.10655335943E+03  0.14108236323E+03  0.91627586077E+02 0.  0.
          5    1    3    3  502    0 -0.41603941714E+01  0.39433932160E+01  0.73218295078E+02  0.73561201484E+02  0.41800000000E+01 0.  1.
         -5    1    3    3    0  502 -0.57689780651E+01  0.35671224923E+01 -0.53144063020E+02  0.53737968933E+02  0.41800000000E+01 0.  1.
        -11    1    4    4    0    0  0.20044676418E+02 -0.85625636442E+01 -0.12125912532E+03  0.12320260558E+03  0.00000000000E+00 0. -1.
         11    1    4    4    0    0 -0.10115304181E+02  0.10520479359E+01  0.14705765885E+02  0.17879757655E+02  0.00000000000E+00 0.  1.
</event>
<event>
 8    1  0.6627806E-009  0.1268301E+03  0.7561462E-02  0.1232237E+00
          2   -1    0    0  501    0  0.00000000000E+00  0.00000000000E+00  0.13513145493E+04  0.13513145493E+04  0.00000000000E+00 0. -1.
         -2   -1    0    0    0  501 -0.00000000000E+00 -0.00000000000E+00 -0.34659930833E+02  0.34659930833E+02  0.00000000000E+00 0.  1.
         25    2    1    2    0    0 -0.82426770529E+02  0.24447565151E+02  0.12144107286E+04  0.12238605394E+04  0.12509734696E+03 0.  0.
         23    2    1    2    0    0  0.82426770529E+02 -0.24447565151E+02  0.10224388985E+03  0.16211394072E+03  0.91843676003E+02 0.  0.
          5    1    3    3  502    0 -0.11295294983E+03  0.36326779547E+02  0.93733720638E+03  0.94482618224E+03  0.41800000000E+01 0.  1.
         -5    1    3    3    0  502  0.30526179304E+02 -0.11879214395E+02  0.27707352219E+03  0.27903435712E+03  0.41800000000E+01 0.  1.
        -11    1    4    4    0    0  0.95737510161E+00 -0.20317466917E+02  0.72479422621E+02  0.75279364586E+02  0.00000000000E+00 0.  1.
         11    1    4    4    0    0  0.81469395427E+02 -0.41300982348E+01  0.29764467231E+02  0.86834576133E+02  0.00000000000E+00 0. -1.
</event>
<event>
 8    1  0.6627806E-009  0.1207561E+03  0.7561462E-02  0.1241855E+00
         -1   -1    0    0    0  501 -0.00000000000E+00  0.00000000000E+00  0.36212385795E+03  0.36212385795E+03  0.00000000000E+00 0. -1.
          1   -1    0    0  501    0  0.00000000000E+00 -0.00000000000E+00 -0.44160953156E+02  0.44160953156E+02  0.00000000000E+00 0.  1.
         25    2    1    2    0    0  0.48024546406E+02  0.42028960488E+02  0.15747073545E+03  0.21099120522E+03  0.12508983004E+03 0.  0.
         23    2    1    2    0    0 -0.48024546406E+02 -0.42028960488E+02  0.16049216934E+03  0.19529360589E+03  0.91154075621E+02 0.  0.
          5    1    3    3  502    0  0.82774671669E+02 -0.34546212023E+01  0.89447481899E+02  0.12199141402E+03  0.41800000000E+01 0. -1.
         -5    1    3    3    0  502 -0.34750125263E+02  0.45483581690E+02  0.68023253549E+02  0.88999791193E+02  0.41800000000E+01 0. -1.
        -11    1    4    4    0    0  0.66663531342E+01 -0.45861546882E+02  0.34144092741E+02  0.57563363484E+02  0.00000000000E+00 0.  1.
         11    1    4    4    0    0 -0.54690899540E+02  0.38325863942E+01  0.12634807660E+03  0.13773024240E+03  0.00000000000E+00 0. -1.
</event>
<event>
 8    1  0.6627806E-009  0.7812817E+02  0.7561462E-02  0.1334449E+00
         -1   -1    0    0    0  501 -0.00000000000E+00  0.00000000000E+00  0.30976937262E+02  0.30976937262E+02  0.00000000000E+00 0.  1.
          1   -1    0    0  501    0  0.00000000000E+00 -0.00000000000E+00 -0.49517128135E+03  0.49517128135E+03  0.00000000000E+00 0. -1.
         25    2    1    2    0    0  0.57077692852E+02 -0.42898110844E+01 -0.22205659472E+03  0.26121061045E+03  0.12508231791E+03 0.  0.
         23    2    1    2    0    0 -0.57077692852E+02  0.42898110844E+01 -0.24213774937E+03  0.26493760816E+03  0.91021871266E+02 0.  0.
          5    1    3    3  502    0 -0.33040301670E+01 -0.27103028665E+02 -0.18420935705E+03  0.18626875852E+03  0.41800000000E+01 0. -1.
         -5    1    3    3    0  502  0.60381723019E+02  0.22813217580E+02 -0.37847237676E+02  0.74941851931E+02  0.41800000000E+01 0. -1.
        -11    1    4    4    0    0 -0.40920983143E+01  0.98587460886E+01  0.52376441449E+01  0.11890040338E+02  0.00000000000E+00 0.  1.
         11    1    4    4    0    0 -0.52985594538E+02 -0.55689350042E+01 -0.24737539351E+03  0.25304756782E+03  0.00000000000E+00 0. -1.
</event>
<event>
 8    1  0.6627806E-009  0.1470669E+03  0.7561462E-02  0.1204124E+00
          1   -1    0    0  501    0  0.00000000000E+00  0.00000000000E+00  0.14750554711E+04  0.14750554711E+04  0.00000000000E+00 0. -1.
         -1   -1    0    0    0  501 -0.00000000000E+00 -0.00000000000E+00 -0.20438326353E+02  0.20438326353E+02  0.00000000000E+00 0.  1.
         25    2    1    2    0    0 -0.10401354851E+03 -0.86281828382E+02  0.74661365835E+03  0.76898808750E+03  0.12508937486E+03 0.  0.
         23    2    1    2    0    0  0.10401354851E+03  0.86281828382E+02  0.70800348644E+03  0.72650570999E+03  0.90984821043E+02 0.  0.
          5    1    3    3  502    0 -0.76843474834E+02 -0.68479477051E+02  0.71843673531E+03  0.72578452273E+03  0.41800000000E+01 0.  1.
         -5    1    3    3    0  502 -0.27170073674E+02 -0.17802351332E+02  0.28176923039E+02  0.43203564764E+02  0.41800000000E+01 0.  1.
        -11    1    4    4    0    0  0.24132413535E+02 -0.15727630676E+02  0.74206197046E+02  0.79600825559E+02  0.00000000000E+00 0.  1.
         11    1    4    4    0    0  0.79881134973E+02  0.10200945906E+03  0.63379728939E+03  0.64690488443E+03  0.00000000000E+00 0. -1.
</event>
<event>
 8    1  0.6627806E-009  0.1495890E+03  0.7561462E-02  0.1200979E+00
         -1   -1    0    0    0  501 -0.00000000000E+00  0.00000000000E+00  0.66982234589E+02  0.66982234589E+02  0.00000000000E+00 0.  1.
          1   -1    0    0  501    0  0.00000000000E+00 -0.00000000000E+00 -0.46223744149E+03  0.46223744149E+03  0.00000000000E+00 0. -1.
         25    2    1    2    0    0  0.35737550778E+02  0.13218088250E+03 -0.23645275246E+03  0.30051083015E+03  0.12509155309E+03 0.  0.
         23    2    1    2    0    0 -0.35737550778E+02 -0.13218088250E+03 -0.15880245444E+03  0.22870884593E+03  0.91326657858E+02 0.  0.
          5    1    3    3  502    0 -0.20763232827E+02  0.82879420190E+02 -0.49023426716E+02  0.98594517573E+02  0.41800000000E+01 0. -1.
         -5    1    3    3    0  502  0.56500783605E+02  0.49301462314E+02 -0.18742932575E+03  0.20191631258E+03  0.41800000000E+01 0. -1.
        -11    1    4    4    0    0 -0.16124913888E+02 -0.26295765540E+02  0.64048083925E+01  0.31503995045E+02  0.00000000000E+00 0.  1.
         11    1    4    4    0    0 -0.19612636890E+02 -0.10588511696E+03 -0.16520726283E+03  0.19720485089E+03  0.00000000000E+00 0. -1.
</event>
<event>
 8    1  0.6627806E-009  0.9047527E+02  0.7561462E-02  0.1301705E+00
          2   -1    0    0  501    0  0.00000000000E+00  0.00000000000E+00  0.15307761462E+03  0.15307761462E+03  0.00000000000E+00 0. -1.
         -2   -1    0    0    0  501 -0.00000000000E+00 -0.00000000000E+00 -0.10699076770E+03  0.10699076770E+03  0.00000000000E+00 0.  1.
         25    2    1    2    0    0  0.15587330633E+02 -0.61138231402E+02  0.48717179764E+02  0.14834166575E+03  0.12510410856E+03 0.  0.
         23    2    1    2    0    0 -0.15587330633E+02  0.61138231402E+02 -0.26303328443E+01  0.11172671658E+03  0.92168825161E+02 0.  0.
          5    1    3    3  502    0  0.14763898028E+02 -0.64090609926E+02 -0.27889165787E+02  0.71560163037E+02  0.41800000000E+01 0. -1.
         -5    1    3    3    0  502  0.82343260479E+00  0.29523785239E+01  0.76606345551E+02  0.76781502713E+02  0.41800000000E+01 0. -1.
        -11    1    4    4    0    0 -0.38873317461E+01 -0.23804920405E+02 -0.90016310727E+01  0.25745192669E+02  0.00000000000E+00 0.  1.
         11    1    4    4    0    0 -0.11699998886E+02  0.84943151807E+02  0.63712982284E+01  0.85981523910E+02  0.00000000000E+00 0. -1.
</event>
<event>
 8    1  0.6627806E-009  0.1338017E+03  0.7561462E-02  0.1221921E+00
          2   -1    0    0  501    0  0.00000000000E+00  0.00000000000E+00  0.97117072386E+03  0.97117072386E+03  0.00000000000E+00 0.  1.
         -2   -1    0    0    0  501 -0.00000000000E+00 -0.00000000000E+00 -0.26888872471E+02  0.26888872471E+02  0.00000000000E+00 0. -1.
         25    2    1    2    0    0 -0.22685673153E+02  0.11458393529E+03  0.58237266975E+03  0.60700006127E+03  0.12508808859E+03 0.  0.
         23    2    1    2    0    0  0.22685673153E+02 -0.11458393529E+03  0.36190918164E+03  0.39105953507E+03  0.91132794430E+02 0.  0.
          5    1    3    3  502    0  0.60001862936E+01  0.37943965885E+02  0.44765949155E+03  0.44932420318E+03  0.41800000000E+01 0.  1.
         -5    1    3    3    0  502 -0.28685859447E+02  0.76639969408E+02  0.13471317820E+03  0.15767585809E+03  0.41800000000E+01 0.  1.
        -11    1    4    4    0    0  0.55857237643E+02 -0.52627451823E+02  0.16470124386E+03  0.18170354816E+03  0.00000000000E+00 0.  1.
         11    1    4    4    0    0 -0.33171564490E+02 -0.61956483469E+02  0.19720793777E+03  0.20935598691E+03  0.00000000000E+00 0. -1.
</event>
<event>
 8    1  0.6627806E-009  0.9892446E+02  0.7561462E-02  0.1282574E+00
          2   -1    0    0  501    0  0.00000000000E+00  0.00000000000E+00  0.10217894412E+03  0.10217894412E+03  0.00000000000E+00 0. -1.
         -2   -1    0    0    0  501 -0.00000000000E+00 -0.00000000000E+00 -0.15857007577E+03  0.15857007577E+03  0.00000000000E+00 0.  1.
         25    2    1    2    0    0  0.59969342397E+02 -0.15835569245E+01 -0.25672681056E+02  0.14108683626E+03  0.12509028393E+03 0.  0.
         23    2    1    2    0    0 -0.59969342397E+02  0.15835569245E+01 -0.30718450597E+02  0.11966218362E+03  0.98876616559E+02 0.  0.
          5    1    3    3  502    0  0.23349259110E+02  0.27976011962E+02 -0.68252748314E+02  0.77483902836E+02  0.41800000000E+01 0. -1.
         -5    1    3    3    0  502  0.36620083287E+02 -0.29559568886E+02  0.42580067258E+02  0.63602933426E+02  0.41800000000E+01 0. -1.
        -11    1    4    4    0    0 -0.33032883592E+02 -0.47545662531E+02 -0.25908028707E+02  0.63427024015E+02  0.00000000000E+00 0. -1.
         11    1    4    4    0    0 -0.26936458805E+02  0.49129219456E+02 -0.48104218907E+01  0.56235159607E+02  0.00000000000E+00 0.  1.
</event>
<event>
 8    1  0.6627806E-009  0.1118746E+03  0.7561462E-02  0.1257137E+00
         -2   -1    0    0    0  501 -0.00000000000E+00  0.00000000000E+00  0.13912236768E+03  0.13912236768E+03  0.00000000000E+00 0.  1.
          2   -1    0    0  501    0  0.00000000000E+00 -0.00000000000E+00 -0.10501327461E+03  0.10501327461E+03  0.00000000000E+00 0. -1.
         25    2    1    2    0    0  0.35985605079E+02 -0.37755316532E+02  0.37536399871E+01  0.13557888295E+03  0.12508843268E+03 0.  0.
         23    2    1    2    0    0 -0.35985605079E+02  0.37755316532E+02  0.30355453092E+02  0.10855675934E+03  0.90236848160E+02 0.  0.
          5    1    3    3  502    0 -0.17195104886E+02  0.32691109764E+02 -0.22430247879E+02  0.43416226339E+02  0.41800000000E+01 0. -1.
         -5    1    3    3    0  502  0.53180709966E+02 -0.70446426296E+02  0.26183887866E+02  0.92162656614E+02  0.41800000000E+01 0. -1.
        -11    1    4    4    0    0 -0.37011235157E+02 -0.18892229570E+02 -0.48756945632E+01  0.41839219202E+02  0.00000000000E+00 0. -1.
         11    1    4    4    0    0  0.10256300783E+01  0.56647546102E+02  0.35231147655E+02  0.66717540134E+02  0.00000000000E+00 0.  1.
</event>
<event>
 8    1  0.6627806E-009  0.9415444E+02  0.7561462E-02  0.1293092E+00
         -1   -1    0    0    0  501 -0.00000000000E+00  0.00000000000E+00  0.66461319821E+02  0.66461319821E+02  0.00000000000E+00 0.  1.
          1   -1    0    0  501    0  0.00000000000E+00 -0.00000000000E+00 -0.20919693645E+03  0.20919693645E+03  0.00000000000E+00 0. -1.
         25    2    1    2    0    0  0.13007571739E+02  0.35923598241E+02 -0.10891828793E+03  0.17020662912E+03  0.12508957318E+03 0.  0.
         23    2    1    2    0    0 -0.13007571739E+02 -0.35923598241E+02 -0.33817328706E+02  0.10545162715E+03  0.92286142597E+02 0.  0.
          5    1    3    3  502    0  0.23553090665E+02 -0.43635895077E+02 -0.50130725854E+02  0.70635695606E+02  0.41800000000E+01 0. -1.
         -5    1    3    3    0  502 -0.10545518926E+02  0.79559493318E+02 -0.58787562071E+02  0.99570933513E+02  0.41800000000E+01 0. -1.
        -11    1    4    4    0    0  0.16294759544E+02 -0.10471412545E+02 -0.57028287794E+02  0.60227861310E+02  0.00000000000E+00 0. -1.
         11    1    4    4    0    0 -0.29302331283E+02 -0.25452185695E+02  0.23210959088E+02  0.45223765844E+02  0.00000000000E+00 0.  1.
</event>
<event>
 8    1  0.6627806E-009  0.1264380E+03  0.7561462E-02  0.1232839E+00
         -1   -1    0    0    0  501 -0.00000000000E+00  0.00000000000E+00  0.10875311631E+03  0.10875311631E+03  0.00000000000E+00 0.  1.
          1   -1    0    0  501    0  0.00000000000E+00 -0.00000000000E+00 -0.21280472996E+03  0.21280472996E+03  0.00000000000E+00 0. -1.
         25    2    1    2    0    0 -0.72531898335E+02  0.86448291477E+02 -0.49338911081E+02  0.17554543615E+03  0.12509072160E+03 0.  0.
         23    2    1    2    0    0  0.72531898335E+02 -0.86448291477E+02 -0.54712702564E+02  0.14601241012E+03  0.74779413684E+02 0.  0.
          5    1    3    3  502    0 -0.90500336921E+02  0.74260387992E+02  0.46183645739E+01  0.11723360397E+03  0.41800000000E+01 0. -1.
         -5    1    3    3    0  502  0.17968438586E+02  0.12187903485E+02 -0.53957275655E+02  0.58311832184E+02  0.41800000000E+01 0. -1.
        -11    1    4    4    0    0  0.63885699097E+02 -0.68308420312E+02 -0.64692590733E+01  0.93751128780E+02  0.00000000000E+00 0.  1.
         11    1    4    4    0    0  0.86461992386E+01 -0.18139871165E+02 -0.48243443491E+02  0.52261281337E+02  0.00000000000E+00 0. -1.
</event>
<event>
 8    1  0.6627806E-009  0.1241487E+03  0.7561462E-02  0.1236406E+00
         -2   -1    0    0    0  501 -0.00000000000E+00  0.00000000000E+00  0.42419494695E+03  0.42419494695E+03  0.00000000000E+00 0.  1.
          2   -1    0    0  501    0  0.00000000000E+00 -0.00000000000E+00 -0.59464690125E+02  0.59464690125E+02  0.00000000000E+00 0. -1.
         25    2    1    2    0    0 -0.89989710080E+02  0.36518796478E+02  0.27841203427E+03  0.32030013171E+03  0.12508854116E+03 0.  0.
         23    2    1    2    0    0  0.89989710080E+02 -0.36518796478E+02  0.86318222552E+02  0.16335950537E+03  0.99013746684E+02 0.  0.
          5    1    3    3  502    0 -0.43639770364E+02  0.45297032968E+02  0.34555486096E+02  0.71887445165E+02  0.41800000000E+01 0. -1.
         -5    1    3    3    0  502 -0.46349939716E+02 -0.87782364899E+01  0.24385654818E+03  0.24841268655E+03  0.41800000000E+01 0. -1.
        -11    1    4    4    0    0  0.78920816535E+02  0.19093771673E+02  0.59311806510E+02  0.10055325848E+03  0.00000000000E+00 0. -1.
         11    1    4    4    0    0  0.11068893545E+02 -0.55612568150E+02  0.27006416042E+02  0.62806246887E+02  0.00000000000E+00 0.  1.
</event>
<event>
 8    1  0.6627806E-009  0.1074050E+03  0.7561462E-02  0.1265452E+00
         -2   -1    0    0    0  501 -0.00000000000E+00  0.00000000000E+00  0.10124341496E+04  0.10124341496E+04  0.00000000000E+00 0.  1.
          2   -1    0    0  501    0  0.00000000000E+00 -0.00000000000E+00 -0.14868378488E+02  0.14868378488E+02  0.00000000000E+00 0. -1.
         25    2    1    2    0    0 -0.56842061776E+02  0.51089351997E+01  0.52603486948E+03  0.54370343148E+03  0.12507444300E+03 0.  0.
         23    2    1    2    0    0  0.56842061776E+02 -0.51089351997E+01  0.47153090160E+03  0.48359909658E+03  0.90937197222E+02 0.  0.
          5    1    3    3  502    0 -0.48229046432E+02 -0.42040496813E+02  0.13205994496E+03  0.14680172259E+03  0.41800000000E+01 0. -1.
         -5    1    3    3    0  502 -0.86130153440E+01  0.47149432013E+02  0.39397492452E+03  0.39690170889E+03  0.41800000000E+01 0. -1.
        -11    1    4    4    0    0  0.79031553951E+02 -0.10556549133E+02  0.41563322167E+03  0.42321200621E+03  0.00000000000E+00 0.  1.
         11    1    4    4    0    0 -0.22189492175E+02  0.54476139332E+01  0.55897679935E+02  0.60387090364E+02  0.00000000000E+00 0. -1.
</event>
<event>
 8    1  0.6627806E-009  0.2104655E+03  0.7561462E-02  0.1141198E+00
         -2   -1    0    0    0  501 -0.00000000000E+00  0.00000000000E+00  0.10259644689E+03  0.10259644689E+03  0.00000000000E+00 0.  1.
          2   -1    0    0  501    0  0.00000000000E+00 -0.00000000000E+00 -0.53839880408E+03  0.53839880408E+03  0.00000000000E+00 0. -1.
         25    2    1    2    0    0 -0.16172998096E+03 -0.84038437494E+02 -0.36213774946E+03  0.42427699718E+03  0.12509266580E+03 0.  0.
         23    2    1    2    0    0  0.16172998096E+03  0.84038437494E+02 -0.73664607723E+02  0.21671825379E+03  0.91221057736E+02 0.  0.
          5    1    3    3  502    0  0.11865476547E+02  0.13669166543E+02 -0.14413170914E+02  0.23512710253E+02  0.41800000000E+01 0. -1.
         -5    1    3    3    0  502 -0.17359545751E+03 -0.97707604037E+02 -0.34772457854E+03  0.40076428693E+03  0.41800000000E+01 0. -1.
        -11    1    4    4    0    0  0.84840208380E+02  0.92779166835E+02 -0.54304822152E+02  0.13694834232E+03  0.00000000000E+00 0.  1.
         11    1    4    4    0    0  0.76889772582E+02 -0.87407293409E+01 -0.19359785571E+02  0.79769911461E+02  0.00000000000E+00 0. -1.
</event>
<event>
 8    1  0.6627806E-009  0.1717231E+03  0.7561462E-02  0.1176063E+00
          2   -1    0    0  501    0  0.00000000000E+00  0.00000000000E+00  0.13436689730E+03  0.13436689730E+03  0.00000000000E+00 0. -1.
         -2   -1    0    0    0  501 -0.00000000000E+00 -0.00000000000E+00 -0.22128603527E+03  0.22128603527E+03  0.00000000000E+00 0.  1.
         25    2    1    2    0    0  0.10750565680E+03  0.82856130188E+02 -0.43113751694E+02  0.18954560530E+03  0.12508451683E+03 0.  0.
         23    2    1    2    0    0 -0.10750565680E+03 -0.82856130188E+02 -0.43805386273E+02  0.16610732727E+03  0.85147682023E+02 0.  0.
          5    1    3    3  502    0  0.13245817594E+02 -0.32358288761E+02 -0.13491189568E+02  0.37709350713E+02  0.41800000000E+01 0. -1.
         -5    1    3    3    0  502  0.94259839204E+02  0.11521441895E+03 -0.29622562126E+02  0.15183625459E+03  0.41800000000E+01 0. -1.
        -11    1    4    4    0    0 -0.11954165298E+03 -0.85525464771E+02 -0.45003147529E+02  0.15372083531E+03  0.00000000000E+00 0.  1.
         11    1    4    4    0    0  0.12035996179E+02  0.26693345828E+01  0.11977612563E+01  0.12386491963E+02  0.00000000000E+00 0. -1.
</event>
<event>
 8    1  0.6627806E-009  0.1174428E+03  0.7561462E-02  0.1247376E+00
          2   -1    0    0  501    0  0.00000000000E+00  0.00000000000E+00  0.89749520205E+03  0.89749520205E+03  0.00000000000E+00 0. -1.
         -2   -1    0    0    0  501 -0.00000000000E+00 -0.00000000000E+00 -0.24219978821E+02  0.24219978821E+02  0.00000000000E+00 0.  1.
         25    2    1    2    0    0  0.41401490667E+01 -0.66832491458E+02  0.67940261384E+03  0.69405958564E+03  0.12508826474E+03 0.  0.
         23    2    1    2    0    0 -0.41401490667E+01  0.66832491458E+02  0.19387260938E+03  0.22765559522E+03  0.98776305963E+02 0.  0.
          5    1    3    3  502    0  0.37805480788E+02 -0.75118979732E+02  0.26196973460E+03  0.27516854787E+03  0.41800000000E+01 0.  1.
         -5    1    3    3    0  502 -0.33665331722E+02  0.82864882740E+01  0.41743287925E+03  0.41889103777E+03  0.41800000000E+01 0.  1.
        -11    1    4    4    0    0 -0.49329844837E+02  0.35475335516E+02  0.12907066610E+03  0.14265752651E+03  0.00000000000E+00 0. -1.
         11    1    4    4    0    0  0.45189695770E+02  0.31357155942E+02  0.64801943281E+02  0.84998068716E+02  0.00000000000E+00 0.  1.
</event>
<event>
 8    1  0.6627806E-009  0.1156340E+03  0.7561462E-02  0.1250478E+00
         -2   -1    0    0    0  501 -0.00000000000E+00  0.00000000000E+00  0.60131091599E+02  0.60131091599E+02  0.00000000000E+00 0.  1.
          2   -1    0    0  501    0  0.00000000000E+00 -0.00000000000E+00 -0.28506504488E+03  0.28506504488E+03  0.00000000000E+00 0. -1.
         25    2    1    2    0    0  0.35439293658E+02 -0.54581981697E+02 -0.15777092428E+03  0.21159893686E+03  0.12508920526E+03 0.  0.
         23    2    1    2    0    0 -0.35439293658E+02  0.54581981697E+02 -0.67163028998E+02  0.13359719962E+03  0.95405466405E+02 0.  0.
          5    1    3    3  502    0  0.67455084237E+02 -0.24856395668E+02 -0.32767510868E+02  0.79115175305E+02  0.41800000000E+01 0. -1.
         -5    1    3    3    0  502 -0.32015790580E+02 -0.29725586029E+02 -0.12500341342E+03  0.13248376156E+03  0.41800000000E+01 0. -1.
        -11    1    4    4    0    0  0.27742855429E+02 -0.53854592261E+01 -0.13899270863E+02  0.31493791911E+02  0.00000000000E+00 0.  1.
         11    1    4    4    0    0 -0.63182149087E+02  0.59967440923E+02 -0.53263758135E+02  0.10210340770E+03  0.00000000000E+00 0. -1.
</event>
<event>
 8    1  0.6627806E-009  0.1587994E+03  0.7561462E-02  0.1190059E+00
          1   -1    0    0  501    0  0.00000000000E+00  0.00000000000E+00  0.49854494569E+02  0.49854494569E+02  0.00000000000E+00 0. -1.
         -1   -1    0    0    0  501 -0.00000000000E+00 -0.00000000000E+00 -0.52495032745E+03  0.52495032745E+03  0.00000000000E+00 0.  1.
         25    2    1    2    0    0  0.30585109281E+02 -0.11601521886E+03 -0.22381672669E+03  0.28308185225E+03  0.12508568266E+03 0.  0.
         23    2    1    2    0    0 -0.30585109281E+02  0.11601521886E+03 -0.25127910619E+03  0.29172296977E+03  0.86983458023E+02 0.  0.
          5    1    3    3  502    0 -0.42238028971E+02 -0.11044259407E+02 -0.75202109812E+02  0.87056627992E+02  0.41800000000E+01 0.  1.
         -5    1    3    3    0  502  0.72823138252E+02 -0.10497095945E+03 -0.14861461688E+03  0.19602522425E+03  0.41800000000E+01 0.  1.
        -11    1    4    4    0    0  0.27495895121E+02  0.21181545510E+02 -0.83600857927E+02  0.90519531400E+02  0.00000000000E+00 0.  1.
         11    1    4    4    0    0 -0.58081004401E+02  0.94833673350E+02 -0.16767824826E+03  0.20120343837E+03  0.00000000000E+00 0. -1.
</event>
<event>
 8    1  0.6627806E-009  0.2948206E+03  0.7561462E-02  0.1087859E+00
         -1   -1    0    0    0  501 -0.00000000000E+00  0.00000000000E+00  0.86466065192E+02  0.86466065192E+02  0.00000000000E+00 0.  1.
          1   -1    0    0  501    0  0.00000000000E+00 -0.00000000000E+00 -0.18559023483E+04  0.18559023483E+04  0.00000000000E+00 0. -1.
         25    2    1    2    0    0 -0.25242018661E+03  0.12331807778E+03 -0.15330610962E+04  0.15636019540E+04  0.12510574226E+03 0.  0.
         23    2    1    2    0    0  0.25242018661E+03 -0.12331807778E+03 -0.23637518693E+03  0.37876645958E+03  0.93099425298E+02 0.  0.
          5    1    3    3  502    0 -0.94007294339E+02  0.10010858101E+03 -0.90862861050E+03  0.91895730239E+03  0.41800000000E+01 0. -1.
         -5    1    3    3    0  502 -0.15841289227E+03  0.23209496773E+02 -0.62443248572E+03  0.64464465157E+03  0.41800000000E+01 0. -1.
        -11    1    4    4    0    0  0.10972272344E+03 -0.10578885599E+02 -0.11956463072E+03  0.16262438248E+03  0.00000000000E+00 0. -1.
         11    1    4    4    0    0  0.14269746317E+03 -0.11273919218E+03 -0.11681055621E+03  0.21614207710E+03  0.00000000000E+00 0.  1.
</event>
<event>
 8    1  0.6627806E-009  0.8896511E+02  0.7561462E-02  0.1305377E+00
         -2   -1    0    0    0  501 -0.00000000000E+00  0.00000000000E+00  0.99150137700E+02  0.99150137700E+02  0.00000000000E+00 0.  1.
          2   -1    0    0  501    0  0.00000000000E+00 -0.00000000000E+00 -0.13584619765E+03  0.13584619765E+03  0.00000000000E+00 0. -1.
         25    2    1    2    0    0  0.37773536207E+02 -0.43086312524E+02 -0.71840778069E+01  0.13778577949E+03  0.12510011867E+03 0.  0.
         23    2    1    2    0    0 -0.37773536207E+02  0.43086312524E+02 -0.29511982140E+02  0.97210555855E+02  0.72771317944E+02 0.  0.
          5    1    3    3  502    0 -0.17313547367E+02  0.35101951190E+01  0.45078682355E+02  0.48596711772E+02  0.41800000000E+01 0. -1.
         -5    1    3    3    0  502  0.55087083574E+02 -0.46596507643E+02 -0.52262760162E+02  0.89189067721E+02  0.41800000000E+01 0. -1.
        -11    1    4    4    0    0 -0.53522174740E+02  0.15469961525E+02 -0.33749586719E+02  0.65138141685E+02  0.00000000000E+00 0. -1.
         11    1    4    4    0    0  0.15748638533E+02  0.27616350999E+02  0.42376045784E+01  0.32072414170E+02  0.00000000000E+00 0.  1.
</event>
<event>
 8    1  0.6627806E-009  0.1305399E+03  0.7561462E-02  0.1226657E+00
         -1   -1    0    0    0  501 -0.00000000000E+00  0.00000000000E+00  0.40567035177E+02  0.40567035177E+02  0.00000000000E+00 0.  1.
          1   -1    0    0  501    0  0.00000000000E+00 -0.00000000000E+00 -0.95298266014E+03  0.95298266014E+03  0.00000000000E+00 0. -1.
         25    2    1    2    0    0  0.80499485385E+02 -0.87865915314E+02 -0.75031337778E+03  0.76994701403E+03  0.12509058047E+03 0.  0.
         23    2    1    2    0    0 -0.80499485385E+02  0.87865915314E+02 -0.16210224719E+03  0.22360268129E+03  0.97572712960E+02 0.  0.
          5    1    3    3  502    0 -0.48532666568E+01 -0.73620837777E+01  0.72730580988E+00  0.97854917369E+01  0.41800000000E+01 0. -1.
         -5    1    3    3    0  502  0.85352752041E+02 -0.80503831537E+02 -0.75104068359E+03  0.76016152230E+03  0.41800000000E+01 0. -1.
        -11    1    4    4    0    0  0.52486852199E+01  0.30038029500E+02 -0.96315739152E+02  0.10102748894E+03  0.00000000000E+00 0. -1.
         11    1    4    4    0    0 -0.85748170604E+02  0.57827885815E+02 -0.65786508035E+02  0.12257519235E+03  0.00000000000E+00 0.  1.
</event>
<event>
 8    1  0.6627806E-009  0.1503120E+03  0.7561462E-02  0.1200090E+00
          3   -1    0    0  501    0  0.00000000000E+00  0.00000000000E+00  0.94377834513E+02  0.94377834513E+02  0.00000000000E+00 0. -1.
         -3   -1    0    0    0  501 -0.00000000000E+00 -0.00000000000E+00 -0.27114241526E+03  0.27114241526E+03  0.00000000000E+00 0.  1.
         25    2    1    2    0    0 -0.15227074859E+02  0.10413265912E+03 -0.32997815094E+02  0.16676586142E+03  0.12508605929E+03 0.  0.
         23    2    1    2    0    0  0.15227074859E+02 -0.10413265912E+03 -0.14376676566E+03  0.19875438836E+03  0.88084899272E+02 0.  0.
          5    1    3    3  502    0 -0.44632272897E+02  0.12116480972E+03 -0.27569315818E+02  0.13210030459E+03  0.41800000000E+01 0. -1.
         -5    1    3    3    0  502  0.29405198038E+02 -0.17032150601E+02 -0.54284992765E+01  0.34665556827E+02  0.41800000000E+01 0. -1.
        -11    1    4    4    0    0  0.50729220747E+02 -0.43002882689E+02 -0.72203519556E+02  0.98163384179E+02  0.00000000000E+00 0.  1.
         11    1    4    4    0    0 -0.35502145888E+02 -0.61129776430E+02 -0.71563246099E+02  0.10059100418E+03  0.00000000000E+00 0. -1.
</event>
<event>
 8    1  0.6627806E-009  0.9370085E+02  0.7561462E-02  0.1294129E+00
          2   -1    0    0  501    0  0.00000000000E+00  0.00000000000E+00  0.92781347150E+03  0.92781347150E+03  0.00000000000E+00 0.  1.
         -2   -1    0    0    0  501 -0.00000000000E+00 -0.00000000000E+00 -0.13419434196E+02  0.13419434196E+02  0.00000000000E+00 0. -1.
         25    2    1    2    0    0 -0.20736917149E+02 -0.48646061332E+01  0.50825163070E+03  0.52385042908E+03  0.12508344341E+03 0.  0.
         23    2    1    2    0    0  0.20736917149E+02  0.48646061332E+01  0.40614240661E+03  0.41738247662E+03  0.93823201907E+02 0.  0.
          5    1    3    3  502    0  0.36577230405E+02  0.89524769440E+00  0.50671904308E+02  0.62640318795E+02  0.41800000000E+01 0. -1.
         -5    1    3    3    0  502 -0.57314147554E+02 -0.57598538276E+01  0.45757972639E+03  0.46121011028E+03  0.41800000000E+01 0. -1.
        -11    1    4    4    0    0 -0.10000657254E+02 -0.38438384450E+02  0.23018515756E+03  0.23358666338E+03  0.00000000000E+00 0.  1.
         11    1    4    4    0    0  0.30737574403E+02  0.43302990583E+02  0.17595724905E+03  0.18379581324E+03  0.00000000000E+00 0. -1.
</event>
<event>
 8    1  0.6627806E-009  0.6460318E+02  0.7561462E-02  0.1379470E+00
          2   -1    0    0  501    0  0.00000000000E+00  0.00000000000E+00  0.13467354696E+03  0.13467354696E+03  0.00000000000E+00 0. -1.
         -2   -1    0    0    0  501 -0.00000000000E+00 -0.00000000000E+00 -0.12047204766E+03  0.12047204766E+03  0.00000000000E+00 0.  1.
         25    2    1    2    0    0  0.50396704461E+02  0.21863825613E+02 -0.16371181809E+02  0.13759873294E+03  0.12509013160E+03 0.  0.
         23    2    1    2    0    0 -0.50396704461E+02 -0.21863825613E+02  0.30572681105E+02  0.11754686168E+03  0.99321302696E+02 0.  0.
          5    1    3    3  502    0  0.29274838810E+02  0.34684133944E+02 -0.67042849192E+02  0.81069238078E+02  0.41800000000E+01 0.  1.
         -5    1    3    3    0  502  0.21121865650E+02 -0.12820308331E+02  0.50671667383E+02  0.56529494864E+02  0.41800000000E+01 0.  1.
        -11    1    4    4    0    0 -0.42964670411E+02 -0.92836069877E+01 -0.31306979911E+02  0.53965500585E+02  0.00000000000E+00 0.  1.
         11    1    4    4    0    0 -0.74320340493E+01 -0.12580218626E+02  0.61879661017E+02  0.63581361092E+02  0.00000000000E+00 0. -1.
</event>
<event>
 8    1  0.6627806E-009  0.1008696E+03  0.7561462E-02  0.1278478E+00
         -2   -1    0    0    0  501 -0.00000000000E+00  0.00000000000E+00  0.24890134163E+02  0.24890134163E+02  0.00000000000E+00 0.  1.
          2   -1    0    0  501    0  0.00000000000E+00 -0.00000000000E+00 -0.47239343503E+03  0.47239343503E+03  0.00000000000E+00 0. -1.
         25    2    1    2    0    0  0.19562096139E+02  0.19726677694E+02 -0.26163299410E+03  0.29132736340E+03  0.12509193277E+03 0.  0.
         23    2    1    2    0    0 -0.19562096139E+02 -0.19726677694E+02 -0.18587030677E+03  0.20595620580E+03  0.84251826987E+02 0.  0.
          5    1    3    3  502    0  0.69709766638E+02  0.53746027025E+01 -0.19088915230E+03  0.20333341778E+03  0.41800000000E+01 0.  1.
         -5    1    3    3    0  502 -0.50147670499E+02  0.14352074991E+02 -0.70743841797E+02  0.87993945616E+02  0.41800000000E+01 0.  1.
        -11    1    4    4    0    0 -0.26170032561E+02 -0.45648899901E+02 -0.73174037696E+02  0.90128422038E+02  0.00000000000E+00 0.  1.
         11    1    4    4    0    0  0.66079364211E+01  0.25922222207E+02 -0.11269626907E+03  0.11582778376E+03  0.00000000000E+00 0. -1.
</event>
<event>
 8    1  0.6627806E-009  0.9938061E+02  0.7561462E-02  0.1281604E+00
          1   -1    0    0  501    0  0.00000000000E+00  0.00000000000E+00  0.21307518223E+04  0.21307518223E+04  0.00000000000E+00 0. -1.
         -1   -1    0    0    0  501 -0.00000000000E+00 -0.00000000000E+00 -0.63434140884E+01  0.63434140884E+01  0.00000000000E+00 0.  1.
         25    2    1    2    0    0  0.66983128137E+01 -0.11140625799E+02  0.16270074966E+04  0.16318608437E+04  0.12508972099E+03 0.  0.
         23    2    1    2    0    0 -0.66983128137E+01  0.11140625799E+02  0.49740091163E+03  0.50523439270E+03  0.87664951590E+02 0.  0.
          5    1    3    3  502    0  0.23035179280E+02 -0.56892313505E+02  0.12760612162E+04  0.12775433671E+04  0.41800000000E+01 0.  1.
         -5    1    3    3    0  502 -0.16336866466E+02  0.45751687707E+02  0.35094628035E+03  0.35431747660E+03  0.41800000000E+01 0.  1.
        -11    1    4    4    0    0  0.34688581725E+02  0.27205429448E+02  0.26220872661E+03  0.26588879142E+03  0.00000000000E+00 0.  1.
         11    1    4    4    0    0 -0.41386894539E+02 -0.16064803649E+02  0.23519218502E+03  0.23934560127E+03  0.00000000000E+00 0. -1.
</event>
<event>
 8    1  0.6627806E-009  0.1610835E+03  0.7561462E-02  0.1187479E+00
          2   -1    0    0  501    0  0.00000000000E+00  0.00000000000E+00  0.69095919863E+02  0.69095919863E+02  0.00000000000E+00 0. -1.
         -2   -1    0    0    0  501 -0.00000000000E+00 -0.00000000000E+00 -0.43226269446E+03  0.43226269446E+03  0.00000000000E+00 0.  1.
         25    2    1    2    0    0  0.48725927328E+02 -0.12334871898E+03 -0.16461772827E+03  0.24564113032E+03  0.12510573918E+03 0.  0.
         23    2    1    2    0    0 -0.48725927328E+02  0.12334871898E+03 -0.19854904632E+03  0.25571748400E+03  0.91545537082E+02 0.  0.
          5    1    3    3  502    0  0.75955430507E+02 -0.12965955096E+03 -0.15464902219E+03  0.21567248096E+03  0.41800000000E+01 0.  1.
         -5    1    3    3    0  502 -0.27229503179E+02  0.63108319791E+01 -0.99687060832E+01  0.29968649363E+02  0.41800000000E+01 0.  1.
        -11    1    4    4    0    0 -0.45032526847E+02  0.40255029737E+02 -0.29296919210E+02  0.67131999587E+02  0.00000000000E+00 0. -1.
         11    1    4    4    0    0 -0.36934004807E+01  0.83093689244E+02 -0.16925212711E+03  0.18858548441E+03  0.00000000000E+00 0.  1.
</event>
<event>
 8    1  0.6627806E-009  0.1036946E+03  0.7561462E-02  0.1272713E+00
          4   -1    0    0  501    0  0.00000000000E+00  0.00000000000E+00  0.28765229222E+03  0.28765229222E+03  0.00000000000E+00 0.  1.
         -4   -1    0    0    0  501 -0.00000000000E+00 -0.00000000000E+00 -0.17416907095E+03  0.17416907095E+03  0.00000000000E+00 0. -1.
         25    2    1    2    0    0  0.50180198695E+02 -0.73199876762E+01 -0.13586739016E+03  0.19152726656E+03  0.12510440267E+03 0.  0.
         23    2    1    2    0    0 -0.50180198695E+02  0.73199876762E+01  0.24935061143E+03  0.27029409661E+03  0.91167629572E+02 0.  0.
          5    1    3    3  502    0 -0.41362723254E+02 -0.87638928475E+01 -0.33328246982E+02  0.53999306845E+02  0.41800000000E+01 0. -1.
         -5    1    3    3    0  502  0.91542921949E+02  0.14439051713E+01 -0.10253914317E+03  0.13752795972E+03  0.41800000000E+01 0. -1.
        -11    1    4    4    0    0 -0.22410288209E+02 -0.23016886352E+02  0.21253831682E+02  0.38519130781E+02  0.00000000000E+00 0. -1.
         11    1    4    4    0    0 -0.27769910486E+02  0.30336874028E+02  0.22809677975E+03  0.23177496583E+03  0.00000000000E+00 0.  1.
</event>
<event>
 8    1  0.6627806E-009  0.9910453E+02  0.7561462E-02  0.1282190E+00
         -1   -1    0    0    0  501 -0.00000000000E+00  0.00000000000E+00  0.14875490787E+02  0.14875490787E+02  0.00000000000E+00 0.  1.
          1   -1    0    0  501    0  0.00000000000E+00 -0.00000000000E+00 -0.92937032376E+03  0.92937032376E+03  0.00000000000E+00 0. -1.
         25    2    1    2    0    0 -0.84307303681E+01  0.69659709947E+01 -0.67378359896E+03  0.68538396925E+03  0.12508894879E+03 0.  0.
         23    2    1    2    0    0  0.84307303681E+01 -0.69659709947E+01 -0.24071123400E+03  0.25886184529E+03  0.94593629830E+02 0.  0.
          5    1    3    3  502    0  0.43314447380E+02 -0.23346407516E+02 -0.14466821335E+03  0.15286451665E+03  0.41800000000E+01 0.  1.
         -5    1    3    3    0  502 -0.51745177748E+02  0.30312378511E+02 -0.52911538561E+03  0.53251945261E+03  0.41800000000E+01 0.  1.
        -11    1    4    4    0    0  0.39046497508E+02  0.23456107033E+02 -0.76138853720E+02  0.88723970665E+02  0.00000000000E+00 0.  1.
         11    1    4    4    0    0 -0.30615767140E+02 -0.30422078028E+02 -0.16457238028E+03  0.17013787462E+03  0.00000000000E+00 0. -1.
</event>
<event>
 8    1  0.6627806E-009  0.1185042E+03  0.7561462E-02  0.1245585E+00
         -1   -1    0    0    0  501 -0.00000000000E+00  0.00000000000E+00  0.23954192456E+03  0.23954192456E+03  0.00000000000E+00 0.  1.
          1   -1    0    0  501    0  0.00000000000E+00 -0.00000000000E+00 -0.79814110802E+02  0.79814110802E+02  0.00000000000E+00 0. -1.
         25    2    1    2    0    0 -0.48393625030E+02 -0.26552310135E+02  0.12252443367E+02  0.13727705883E+03  0.12509156804E+03 0.  0.
         23    2    1    2    0    0  0.48393625030E+02  0.26552310135E+02  0.14747537039E+03  0.18207897653E+03  0.91415538645E+02 0.  0.
          5    1    3    3  502    0 -0.60288061857E+02  0.34941889810E+02  0.23189256093E+02  0.73558140706E+02  0.41800000000E+01 0.  1.
         -5    1    3    3    0  502  0.11894436827E+02 -0.61494199945E+02 -0.10936812725E+02  0.63718918124E+02  0.41800000000E+01 0.  1.
        -11    1    4    4    0    0 -0.25507049212E+02  0.15109835626E+02  0.26008552116E+02  0.39438071395E+02  0.00000000000E+00 0. -1.
         11    1    4    4    0    0  0.73900674242E+02  0.11442474508E+02  0.12146681827E+03  0.14264090513E+03  0.00000000000E+00 0.  1.
</event>
<event>
 8    1  0.6627806E-009  0.1341279E+03  0.7561462E-02  0.1221456E+00
         -1   -1    0    0    0  501 -0.00000000000E+00  0.00000000000E+00  0.11318709803E+03  0.11318709803E+03  0.00000000000E+00 0.  1.
          1   -1    0    0  501    0  0.00000000000E+00 -0.00000000000E+00 -0.22821345376E+03  0.22821345376E+03  0.00000000000E+00 0. -1.
         25    2    1    2    0    0  0.11182485759E+03 -0.26150039647E+02 -0.91035169135E+02  0.19269453525E+03  0.12512057604E+03 0.  0.
         23    2    1    2    0    0 -0.11182485759E+03  0.26150039647E+02 -0.23991186589E+02  0.14870601654E+03  0.91374389044E+02 0.  0.
          5    1    3    3  502    0  0.93217225869E+02 -0.52049837166E+01  0.39860260762E+01  0.93540920768E+02  0.41800000000E+01 0. -1.
         -5    1    3    3    0  502  0.18607631721E+02 -0.20945055931E+02 -0.95021195211E+02  0.99153614486E+02  0.41800000000E+01 0.  1.
        -11    1    4    4    0    0 -0.10071028872E+03 -0.16805468832E+02 -0.12447159169E+02  0.10285872743E+03  0.00000000000E+00 0.  1.
         11    1    4    4    0    0 -0.11114568869E+02  0.42955508479E+02 -0.11544027421E+02  0.45847289112E+02  0.00000000000E+00 0. -1.
</event>
<event>
 8    1  0.6627806E-009  0.2273976E+03  0.7561462E-02  0.1128485E+00
          1   -1    0    0  501    0  0.00000000000E+00  0.00000000000E+00  0.42052281414E+03  0.42052281414E+03  0.00000000000E+00 0. -1.
         -1   -1    0    0    0  501 -0.00000000000E+00 -0.00000000000E+00 -0.13985889255E+03  0.13985889255E+03  0.00000000000E+00 0.  1.
         25    2    1    2    0    0  0.12491317273E+03 -0.16742315495E+03  0.21190582502E+03  0.32277716207E+03  0.12508878502E+03 0.  0.
         23    2    1    2    0    0 -0.12491317273E+03  0.16742315495E+03  0.68758096561E+02  0.23760454462E+03  0.89969051601E+02 0.  0.
          5    1    3    3  502    0  0.14559458458E+03 -0.12939020932E+03  0.19629692191E+03  0.27656746605E+03  0.41800000000E+01 0.  1.
         -5    1    3    3    0  502 -0.20681411848E+02 -0.38032945630E+02  0.15608903110E+02  0.46209696013E+02  0.41800000000E+01 0.  1.
        -11    1    4    4    0    0  0.48955354317E+01  0.17466211728E+02  0.30686826585E+02  0.35647105705E+02  0.00000000000E+00 0. -1.
         11    1    4    4    0    0 -0.12980870816E+03  0.14995694323E+03  0.38071269976E+02  0.20195743892E+03  0.00000000000E+00 0.  1.
</event>
<event>
 8    1  0.6627806E-009  0.8295206E+02  0.7561462E-02  0.1320877E+00
          2   -1    0    0  501    0  0.00000000000E+00  0.00000000000E+00  0.11235647980E+03  0.11235647980E+03  0.00000000000E+00 0. -1.
         -2   -1    0    0    0  501 -0.00000000000E+00 -0.00000000000E+00 -0.14660302722E+03  0.14660302722E+03  0.00000000000E+00 0.  1.
         25    2    1    2    0    0 -0.12210492628E+02 -0.57762810637E+02  0.16001931178E+02  0.13924616243E+03  0.12509114089E+03 0.  0.
         23    2    1    2    0    0  0.12210492628E+02  0.57762810637E+02 -0.50248478602E+02  0.11971334459E+03  0.91218073029E+02 0.  0.
          5    1    3    3  502    0 -0.20300184337E+02 -0.80009333665E+02  0.50754580106E+02  0.96990158054E+02  0.41800000000E+01 0. -1.
         -5    1    3    3    0  502  0.80896917093E+01  0.22246523028E+02 -0.34752648927E+02  0.42256004381E+02  0.41800000000E+01 0. -1.
        -11    1    4    4    0    0  0.47318867560E+01  0.33328644227E+02 -0.76192988142E+02  0.83298023507E+02  0.00000000000E+00 0.  1.
         11    1    4    4    0    0  0.74786058717E+01  0.24434166410E+02  0.25944509540E+02  0.36415321078E+02  0.00000000000E+00 0. -1.
</event>
<event>
 8    1  0.6627806E-009  0.8466924E+02  0.7561462E-02  0.1316300E+00
          2   -1    0    0  501    0  0.00000000000E+00  0.00000000000E+00  0.81800353840E+03  0.81800353840E+03  0.00000000000E+00 0. -1.
         -2   -1    0    0    0  501 -0.00000000000E+00 -0.00000000000E+00 -0.16032061688E+02  0.16032061688E+02  0.00000000000E+00 0.  1.
         25    2    1    2    0    0 -0.84006778415E+00 -0.19953251797E+00  0.42337518149E+03  0.44146863306E+03  0.12508902487E+03 0.  0.
         23    2    1    2    0    0  0.84006778415E+00  0.19953251797E+00  0.37859629522E+03  0.39256696703E+03  0.10379269397E+03 0.  0.
          5    1    3    3  502    0  0.33960619254E+02 -0.55043077263E+01  0.39374246834E+03  0.39526475284E+03  0.41800000000E+01 0.  1.
         -5    1    3    3    0  502 -0.34800687038E+02  0.53047752083E+01  0.29632713151E+02  0.46203880216E+02  0.41800000000E+01 0.  1.
        -11    1    4    4    0    0  0.23715450388E+02  0.43905606628E+02  0.13272600909E+03  0.14179675021E+03  0.00000000000E+00 0.  1.
         11    1    4    4    0    0 -0.22875382604E+02 -0.43706074110E+02  0.24587028613E+03  0.25077021682E+03  0.00000000000E+00 0. -1.
</event>
<event>
 8    1  0.6627806E-009  0.1085569E+03  0.7561462E-02  0.1263266E+00
          2   -1    0    0  501    0  0.00000000000E+00  0.00000000000E+00  0.11209742940E+04  0.11209742940E+04  0.00000000000E+00 0. -1.
         -2   -1    0    0    0  501 -0.00000000000E+00 -0.00000000000E+00 -0.14920306552E+02  0.14920306552E+02  0.00000000000E+00 0.  1.
         25    2    1    2    0    0 -0.31307920472E+02 -0.14019370413E+02  0.88004606120E+03  0.88955336951E+03  0.12508956291E+03 0.  0.
         23    2    1    2    0    0  0.31307920472E+02  0.14019370413E+02  0.22600792621E+03  0.24634123100E+03  0.91802455035E+02 0.  0.
          5    1    3    3  502    0 -0.64968148183E+02  0.31479270535E+02  0.53649487548E+03  0.54134649585E+03  0.41800000000E+01 0.  1.
         -5    1    3    3    0  502  0.33660227711E+02 -0.45498640948E+02  0.34355118572E+03  0.34820687366E+03  0.41800000000E+01 0.  1.
        -11    1    4    4    0    0  0.49171608211E+02  0.35103029299E+02  0.95998620954E+02  0.11342753169E+03  0.00000000000E+00 0.  1.
         11    1    4    4    0    0 -0.17863687739E+02 -0.21083658886E+02  0.13000930526E+03  0.13291369932E+03  0.00000000000E+00 0. -1.
</event>
<event>
 8    1  0.6627806E-009  0.2095665E+03  0.7561462E-02  0.1141910E+00
          2   -1    0    0  501    0  0.00000000000E+00  0.00000000000E+00  0.38859758157E+02  0.38859758157E+02  0.00000000000E+00 0.  1.
         -2   -1    0    0    0  501 -0.00000000000E+00 -0.00000000000E+00 -0.13149339037E+04  0.13149339037E+04  0.00000000000E+00 0. -1.
         25    2    1    2    0    0  0.37775270550E+01  0.18618740719E+03 -0.45929534413E+03  0.51115576771E+03  0.12509190788E+03 0.  0.
         23    2    1    2    0    0 -0.37775270550E+01 -0.18618740719E+03 -0.81677880144E+03  0.84263789417E+03  0.90724803182E+02 0.  0.
          5    1    3    3  502    0 -0.29865846242E+02  0.85984671718E+01 -0.14694874371E+03  0.15025747265E+03  0.41800000000E+01 0. -1.
         -5    1    3    3    0  502  0.33643373297E+02  0.17758894001E+03 -0.31234660042E+03  0.36089829506E+03  0.41800000000E+01 0. -1.
        -11    1    4    4    0    0 -0.42199591456E+02 -0.49764963550E+02 -0.27366287907E+03  0.28133383816E+03  0.00000000000E+00 0.  1.
         11    1    4    4    0    0  0.38422064401E+02 -0.13642244364E+03 -0.54311592237E+03  0.56130405601E+03  0.00000000000E+00 0. -1.
</event>
<event>
 8    1  0.6627806E-009  0.1230586E+03  0.7561462E-02  0.1238135E+00
         -2   -1    0    0    0  501 -0.00000000000E+00  0.00000000000E+00  0.69125592864E+02  0.69125592864E+02  0.00000000000E+00 0.  1.
          2   -1    0    0  501    0  0.00000000000E+00 -0.00000000000E+00 -0.31469831267E+03  0.31469831267E+03  0.00000000000E+00 0. -1.
         25    2    1    2    0    0  0.79215799803E+02  0.55869322988E+02 -0.99565352787E+02  0.18696861349E+03  0.12508988274E+03 0.  0.
         23    2    1    2    0    0 -0.79215799803E+02 -0.55869322988E+02 -0.14600736702E+03  0.19685529205E+03  0.89651160583E+02 0.  0.
          5    1    3    3  502    0  0.75302984882E+02  0.22837565964E+01 -0.19655495050E+01  0.75479075652E+02  0.41800000000E+01 0. -1.
         -5    1    3    3    0  502  0.39128149210E+01  0.53585566391E+02 -0.97599803282E+02  0.11148953784E+03  0.41800000000E+01 0. -1.
        -11    1    4    4    0    0 -0.21197871417E+02  0.14415954747E+02 -0.10856238381E+01  0.25658294623E+02  0.00000000000E+00 0.  1.
         11    1    4    4    0    0 -0.58017928387E+02 -0.70285277735E+02 -0.14492174318E+03  0.17119699743E+03  0.00000000000E+00 0. -1.
</event>
<event>
 8    1  0.6627806E-009  0.1255126E+03  0.7561462E-02  0.1234270E+00
          1   -1    0    0  501    0  0.00000000000E+00  0.00000000000E+00  0.33901022589E+03  0.33901022589E+03  0.00000000000E+00 0. -1.
         -1   -1    0    0    0  501 -0.00000000000E+00 -0.00000000000E+00 -0.53546671056E+02  0.53546671056E+02  0.00000000000E+00 0.  1.
         25    2    1    2    0    0  0.69283372689E+02  0.37732015090E+02  0.13588689233E+03  0.20083983717E+03  0.12508997559E+03 0.  0.
         23    2    1    2    0    0 -0.69283372689E+02 -0.37732015090E+02  0.14957666251E+03  0.19171705978E+03  0.90323653323E+02 0.  0.
          5    1    3    3  502    0  0.36775922089E+02  0.83479789345E+02  0.77840076501E+02  0.11999122295E+03  0.41800000000E+01 0.  1.
         -5    1    3    3    0  502  0.32507450600E+02 -0.45747774255E+02  0.58046815824E+02  0.80848614219E+02  0.41800000000E+01 0.  1.
        -11    1    4    4    0    0 -0.64238793677E+02  0.11246165359E+01  0.40825060902E+02  0.76122092543E+02  0.00000000000E+00 0.  1.
         11    1    4    4    0    0 -0.50445790122E+01 -0.38856631626E+02  0.10875160160E+03  0.11559496724E+03  0.00000000000E+00 0. -1.
</event>
<event>
 8    1  0.6627806E-009  0.1453489E+03  0.7561462E-02  0.1206308E+00
         -4   -1    0    0    0  501 -0.00000000000E+00  0.00000000000E+00  0.29640393204E+03  0.29640393204E+03  0.00000000000E+00 0. -1.
          4   -1    0    0  501    0  0.00000000000E+00 -0.00000000000E+00 -0.13115489493E+03  0.13115489493E+03  0.00000000000E+00 0.  1.
         25    2    1    2    0    0 -0.44526796490E+02 -0.97364379200E+02 -0.49031064240E+02  0.17179669283E+03  0.12509036919E+03 0.  0.
         23    2    1    2    0    0  0.44526796490E+02  0.97364379200E+02  0.21428010136E+03  0.25576213414E+03  0.89642899781E+02 0.  0.
          5    1    3    3  502    0  0.32796229141E+02 -0.91838300078E+01  0.15743163063E+02  0.37752549089E+02  0.41800000000E+01 0. -1.
         -5    1    3    3    0  502 -0.77323025631E+02 -0.88180549192E+02 -0.64774227303E+02  0.13404414374E+03  0.41800000000E+01 0. -1.
        -11    1    4    4    0    0  0.68191065252E+02  0.92420537476E+02  0.18546867252E+03  0.21815179489E+03  0.00000000000E+00 0.  1.
         11    1    4    4    0    0 -0.23664268762E+02  0.49438417239E+01  0.28811428832E+02  0.37610339248E+02  0.00000000000E+00 0. -1.
</event>
<event>
 8    1  0.6627806E-009  0.1039168E+03  0.7561462E-02  0.1272269E+00
          1   -1    0    0  501    0  0.00000000000E+00  0.00000000000E+00  0.12155724228E+04  0.12155724228E+04  0.00000000000E+00 0. -1.
         -1   -1    0    0    0  501 -0.00000000000E+00 -0.00000000000E+00 -0.11403884023E+02  0.11403884023E+02  0.00000000000E+00 0.  1.
         25    2    1    2    0    0  0.13995176389E+01 -0.43816800252E+02  0.67528040304E+03  0.68816614052E+03  0.12508854299E+03 0.  0.
         23    2    1    2    0    0 -0.13995176389E+01  0.43816800252E+02  0.52888813578E+03  0.53881016635E+03  0.93122846609E+02 0.  0.
          5    1    3    3  502    0 -0.42428905428E+02  0.24607137315E+00  0.50593640808E+03  0.50772964655E+03  0.41800000000E+01 0.  1.
         -5    1    3    3    0  502  0.43828423067E+02 -0.44062871625E+02  0.16934399496E+03  0.18043649397E+03  0.41800000000E+01 0.  1.
        -11    1    4    4    0    0 -0.71529992841E+01 -0.28998256976E+02  0.15790264285E+03  0.16070254797E+03  0.00000000000E+00 0.  1.
         11    1    4    4    0    0  0.57534816453E+01  0.72815057228E+02  0.37098549293E+03  0.37810761837E+03  0.00000000000E+00 0. -1.
</event>
<event>
 8    1  0.6627806E-009  0.1496285E+03  0.7561462E-02  0.1200930E+00
         -1   -1    0    0    0  501 -0.00000000000E+00  0.00000000000E+00  0.78546566519E+02  0.78546566519E+02  0.00000000000E+00 0.  1.
          1   -1    0    0  501    0  0.00000000000E+00 -0.00000000000E+00 -0.40105058359E+03  0.40105058359E+03  0.00000000000E+00 0. -1.
         25    2    1    2    0    0  0.89941274941E+02  0.98678208993E+02 -0.22811572250E+03  0.29242556525E+03  0.12509638882E+03 0.  0.
         23    2    1    2    0    0 -0.89941274941E+02 -0.98678208993E+02 -0.94388294571E+02  0.18717158485E+03  0.91089133027E+02 0.  0.
          5    1    3    3  502    0  0.27101759589E+01  0.18745462298E+02  0.13317413615E+02  0.23527926298E+02  0.41800000000E+01 0.  1.
         -5    1    3    3    0  502  0.87231098982E+02  0.79932746695E+02 -0.24143313611E+03  0.26889763896E+03  0.41800000000E+01 0.  1.
        -11    1    4    4    0    0 -0.36262523841E+02 -0.10143519017E+03 -0.66833842315E+02  0.12677078102E+03  0.00000000000E+00 0.  1.
         11    1    4    4    0    0 -0.53678751099E+02  0.27569811799E+01 -0.27554452256E+02  0.60400803835E+02  0.00000000000E+00 0. -1.
</event>
<event>
 8    1  0.6627806E-009  0.3619718E+03  0.7561462E-02  0.1057806E+00
          1   -1    0    0  501    0  0.00000000000E+00  0.00000000000E+00  0.70331819807E+03  0.70331819807E+03  0.00000000000E+00 0. -1.
         -1   -1    0    0    0  501 -0.00000000000E+00 -0.00000000000E+00 -0.19387101608E+03  0.19387101608E+03  0.00000000000E+00 0.  1.
         25    2    1    2    0    0  0.33641869356E+03  0.10540421838E+03  0.24683441894E+03  0.44818194176E+03  0.12510889625E+03 0.  0.
         23    2    1    2    0    0 -0.33641869356E+03 -0.10540421838E+03  0.26261276304E+03  0.44900727239E+03  0.91402848537E+02 0.  0.
          5    1    3    3  502    0 -0.80728228928E+01  0.28950030213E+01  0.22596351721E+02  0.24527923333E+02  0.41800000000E+01 0. -1.
         -5    1    3    3    0  502  0.34449151645E+03  0.10250921536E+03  0.22423806722E+03  0.42365401843E+03  0.41800000000E+01 0. -1.
        -11    1    4    4    0    0 -0.12417481492E+03 -0.60009371543E+02  0.15255488478E+03  0.20565384072E+03  0.00000000000E+00 0. -1.
         11    1    4    4    0    0 -0.21224387863E+03 -0.45394846838E+02  0.11005787826E+03  0.24335343167E+03  0.00000000000E+00 0.  1.
</event>
<event>
 8    1  0.6627806E-009  0.1169388E+03  0.7561462E-02  0.1248234E+00
          1   -1    0    0  501    0  0.00000000000E+00  0.00000000000E+00  0.41270252612E+03  0.41270252612E+03  0.00000000000E+00 0. -1.
         -1   -1    0    0    0  501 -0.00000000000E+00 -0.00000000000E+00 -0.38695658036E+02  0.38695658036E+02  0.00000000000E+00 0.  1.
         25    2    1    2    0    0  0.44963808886E+02 -0.56462790825E+01  0.28395885023E+03  0.31358267408E+03  0.12509132778E+03 0.  0.
         23    2    1    2    0    0 -0.44963808886E+02  0.56462790825E+01  0.90048017855E+02  0.13781551007E+03  0.93972574291E+02 0.  0.
          5    1    3    3  502    0  0.12486705807E+02 -0.62861702928E+02  0.10766493141E+03  0.12536634865E+03  0.41800000000E+01 0. -1.
         -5    1    3    3    0  502  0.32477103079E+02  0.57215423846E+02  0.17629391881E+03  0.18821632544E+03  0.41800000000E+01 0. -1.
        -11    1    4    4    0    0  0.17199831836E+02  0.31905514059E+02  0.24580283069E+02  0.43794821136E+02  0.00000000000E+00 0. -1.
         11    1    4    4    0    0 -0.62163640722E+02 -0.26259234977E+02  0.65467734786E+02  0.94020688933E+02  0.00000000000E+00 0.  1.
</event>
<event>
 8    1  0.6627806E-009  0.2756873E+03  0.7561462E-02  0.1098068E+00
         -1   -1    0    0    0  501 -0.00000000000E+00  0.00000000000E+00  0.70937119919E+03  0.70937119919E+03  0.00000000000E+00 0.  1.
          1   -1    0    0  501    0  0.00000000000E+00 -0.00000000000E+00 -0.11543267069E+03  0.11543267069E+03  0.00000000000E+00 0. -1.
         25    2    1    2    0    0  0.26001143064E+03 -0.19242650659E+02  0.24145221730E+03  0.37672650809E+03  0.12508982769E+03 0.  0.
         23    2    1    2    0    0 -0.26001143064E+03  0.19242650659E+02  0.35248631120E+03  0.44807736179E+03  0.92468907712E+02 0.  0.
          5    1    3    3  502    0  0.14623469755E+03  0.48788885518E+02  0.15346856369E+03  0.21756611537E+03  0.41800000000E+01 0. -1.
         -5    1    3    3    0  502  0.11377673309E+03 -0.68031536177E+02  0.87983653610E+02  0.15916039272E+03  0.41800000000E+01 0. -1.
        -11    1    4    4    0    0 -0.20394759583E+02 -0.10728781145E+02  0.83387882595E+02  0.86513536091E+02  0.00000000000E+00 0.  1.
         11    1    4    4    0    0 -0.23961667106E+03  0.29971431804E+02  0.26909842860E+03  0.36156382569E+03  0.00000000000E+00 0. -1.
</event>
<event>
 8    1  0.6627806E-009  0.1963504E+03  0.7561462E-02  0.1152855E+00
         -1   -1    0    0    0  501 -0.00000000000E+00  0.00000000000E+00  0.48352266450E+02  0.48352266450E+02  0.00000000000E+00 0.  1.
          1   -1    0    0  501    0  0.00000000000E+00 -0.00000000000E+00 -0.10188531745E+04  0.10188531745E+04  0.00000000000E+00 0. -1.
         25    2    1    2    0    0  0.15051556640E+03  0.62483262027E+02 -0.25628898185E+03  0.32846715145E+03  0.12509010193E+03 0.  0.
         23    2    1    2    0    0 -0.15051556640E+03 -0.62483262027E+02 -0.71421192617E+03  0.73873828947E+03  0.95270620276E+02 0.  0.
          5    1    3    3  502    0  0.12864014686E+03 -0.10007624754E+02 -0.17246505296E+03  0.21543005089E+03  0.41800000000E+01 0. -1.
         -5    1    3    3    0  502  0.21875419545E+02  0.72490886781E+02 -0.83823928890E+02  0.11303710055E+03  0.41800000000E+01 0. -1.
        -11    1    4    4    0    0 -0.14236391195E+03 -0.19114784241E+02 -0.51201729156E+03  0.53178432212E+03  0.00000000000E+00 0. -1.
         11    1    4    4    0    0 -0.81516544507E+01 -0.43368477786E+02 -0.20219463461E+03  0.20695396735E+03  0.00000000000E+00 0.  1.
</event>
<event>
 8    1  0.6627806E-009  0.1429110E+03  0.7561462E-02  0.1209465E+00
         -4   -1    0    0    0  501 -0.00000000000E+00  0.00000000000E+00  0.81977605340E+03  0.81977605340E+03  0.00000000000E+00 0. -1.
          4   -1    0    0  501    0  0.00000000000E+00 -0.00000000000E+00 -0.34775719710E+02  0.34775719710E+02  0.00000000000E+00 0.  1.
         25    2    1    2    0    0 -0.12757803631E+03 -0.93857534733E+01  0.46044288957E+03  0.49398275674E+03  0.12508821562E+03 0.  0.
         23    2    1    2    0    0  0.12757803631E+03  0.93857534733E+01  0.32455744413E+03  0.36056901637E+03  0.91149510760E+02 0.  0.
          5    1    3    3  502    0 -0.53692486108E+02 -0.13852654853E+02  0.43775794448E+02  0.70771263169E+02  0.41800000000E+01 0.  1.
         -5    1    3    3    0  502 -0.73885550206E+02  0.44669013797E+01  0.41666709512E+03  0.42321149357E+03  0.41800000000E+01 0.  1.
        -11    1    4    4    0    0  0.11660488582E+02  0.35403286274E+02  0.95939717809E+02  0.10292613432E+03  0.00000000000E+00 0. -1.
         11    1    4    4    0    0  0.11591754773E+03 -0.26017532801E+02  0.22861772632E+03  0.25764288205E+03  0.00000000000E+00 0.  1.
</event>
<event>
 8    1  0.6627806E-009  0.1234143E+03  0.7561462E-02  0.1237568E+00
         -2   -1    0    0    0  501 -0.00000000000E+00  0.00000000000E+00  0.21526204780E+03  0.21526204780E+03  0.00000000000E+00 0. -1.
          2   -1    0    0  501    0  0.00000000000E+00 -0.00000000000E+00 -0.98635057506E+02  0.98635057506E+02  0.00000000000E+00 0.  1.
         25    2    1    2    0    0  0.64763328595E+02  0.50136251652E+02  0.11879138937E+03  0.19096487022E+03  0.12509298545E+03 0.  0.
         23    2    1    2    0    0 -0.64763328595E+02 -0.50136251652E+02 -0.21643990698E+01  0.12293223509E+03  0.91649971857E+02 0.  0.
          5    1    3    3  502    0 -0.73244756690E+01  0.57268845064E+02  0.78707567803E+01  0.58419087386E+02  0.41800000000E+01 0.  1.
         -5    1    3    3    0  502  0.72087804264E+02 -0.71325934116E+01  0.11092063259E+03  0.13254578283E+03  0.41800000000E+01 0.  1.
        -11    1    4    4    0    0 -0.69027211296E+02 -0.30412138621E+01  0.18192320514E+02  0.71449040629E+02  0.00000000000E+00 0.  1.
         11    1    4    4    0    0  0.42638827008E+01 -0.47095037790E+02 -0.20356719584E+02  0.51483194465E+02  0.00000000000E+00 0. -1.
</event>
<event>
 8    1  0.6627806E-009  0.1108848E+03  0.7561462E-02  0.1258940E+00
         -1   -1    0    0    0  501 -0.00000000000E+00  0.00000000000E+00  0.18872431224E+02  0.18872431224E+02  0.00000000000E+00 0.  1.
          1   -1    0    0  501    0  0.00000000000E+00 -0.00000000000E+00 -0.74783857671E+03  0.74783857671E+03  0.00000000000E+00 0. -1.
         25    2    1    2    0    0  0.88303798278E+01 -0.52892383932E+02 -0.38051983377E+03  0.40412634193E+03  0.12508867439E+03 0.  0.
         23    2    1    2    0    0 -0.88303798278E+01  0.52892383932E+02 -0.34844631171E+03  0.36258466601E+03  0.84718522121E+02 0.  0.
          5    1    3    3  502    0  0.19161143584E+02  0.31105582709E+02 -0.45211979113E+02  0.58277801558E+02  0.41800000000E+01 0. -1.
         -5    1    3    3    0  502 -0.10330763756E+02 -0.83997966641E+02 -0.33530785466E+03  0.34584854037E+03  0.41800000000E+01 0. -1.
        -11    1    4    4    0    0 -0.29032938233E+02 -0.12656678156E+02 -0.11038760248E+03  0.11484130697E+03  0.00000000000E+00 0. -1.
         11    1    4    4    0    0  0.20202558405E+02  0.65549062088E+02 -0.23805870923E+03  0.24774335904E+03  0.00000000000E+00 0.  1.
</event>
<event>
 8    1  0.6627806E-009  0.6954967E+02  0.7561462E-02  0.1361631E+00
         -1   -1    0    0    0  501 -0.00000000000E+00  0.00000000000E+00  0.48333573779E+02  0.48333573779E+02  0.00000000000E+00 0.  1.
          1   -1    0    0  501    0  0.00000000000E+00 -0.00000000000E+00 -0.40577306671E+03  0.40577306671E+03  0.00000000000E+00 0. -1.
         25    2    1    2    0    0  0.16391224303E+02 -0.84222476770E+01 -0.33648314773E+03  0.35945570060E+03  0.12509150848E+03 0.  0.
         23    2    1    2    0    0 -0.16391224303E+02  0.84222476770E+01 -0.20956345206E+02  0.94650939898E+02  0.90443493569E+02 0.  0.
          5    1    3    3  502    0  0.23706076986E+02 -0.31426740041E+02 -0.33224268130E+03  0.33459272221E+03  0.41800000000E+01 0. -1.
         -5    1    3    3    0  502 -0.73148526827E+01  0.23004492364E+02 -0.42404664252E+01  0.24862978386E+02  0.41800000000E+01 0. -1.
        -11    1    4    4    0    0  0.20387722686E+02 -0.19979455201E+02  0.18225941012E+02  0.33867724934E+02  0.00000000000E+00 0.  1.
         11    1    4    4    0    0 -0.36778946989E+02  0.28401702878E+02 -0.39182286218E+02  0.60783214963E+02  0.00000000000E+00 0. -1.
</event>
<event>
 8    1  0.6627806E-009  0.9274872E+02  0.7561462E-02  0.1296329E+00
          1   -1    0    0  501    0  0.00000000000E+00  0.00000000000E+00  0.52328755297E+03  0.52328755297E+03  0.00000000000E+00 0. -1.
         -1   -1    0    0    0  501 -0.00000000000E+00 -0.00000000000E+00 -0.29760182814E+02  0.29760182814E+02  0.00000000000E+00 0.  1.
         25    2    1    2    0    0 -0.53416347740E+02 -0.39054668140E+01  0.19074257438E+03  0.23430585382E+03  0.12509174463E+03 0.  0.
         23    2    1    2    0    0  0.53416347740E+02  0.39054668140E+01  0.30278479578E+03  0.31874188197E+03  0.83959489589E+02 0.  0.
          5    1    3    3  502    0  0.92671854087E+01 -0.21144166065E+02 -0.82903453286E+01  0.24882899944E+02  0.41800000000E+01 0.  1.
         -5    1    3    3    0  502 -0.62683533149E+02  0.17238699251E+02  0.19903291971E+03  0.20942295387E+03  0.41800000000E+01 0.  1.
        -11    1    4    4    0    0  0.73145392487E+02 -0.84201920346E+01  0.25766260604E+03  0.26797605607E+03  0.00000000000E+00 0.  1.
         11    1    4    4    0    0 -0.19729044747E+02  0.12325658849E+02  0.45122189732E+02  0.50765825896E+02  0.00000000000E+00 0. -1.
</event>
<event>
 8    1  0.6627806E-009  0.9773099E+02  0.7561462E-02  0.1285141E+00
          2   -1    0    0  501    0  0.00000000000E+00  0.00000000000E+00  0.41891841744E+03  0.41891841744E+03  0.00000000000E+00 0. -1.
         -2   -1    0    0    0  501 -0.00000000000E+00 -0.00000000000E+00 -0.28811105329E+02  0.28811105329E+02  0.00000000000E+00 0.  1.
         25    2    1    2    0    0  0.30394994134E+01  0.20626462519E+02  0.27110407408E+03  0.29929772466E+03  0.12508804696E+03 0.  0.
         23    2    1    2    0    0 -0.30394994134E+01 -0.20626462519E+02  0.11900323803E+03  0.14843179811E+03  0.86229568676E+02 0.  0.
          5    1    3    3  502    0  0.37631103508E+02  0.58497191326E+02  0.11036398930E+03  0.13052089441E+03  0.41800000000E+01 0. -1.
         -5    1    3    3    0  502 -0.34591604095E+02 -0.37870728807E+02  0.16074008478E+03  0.16877683025E+03  0.41800000000E+01 0. -1.
        -11    1    4    4    0    0 -0.28167051680E+02 -0.35347223458E+02  0.28677930607E+02  0.53527868540E+02  0.00000000000E+00 0.  1.
         11    1    4    4    0    0  0.25127552266E+02  0.14720760940E+02  0.90325307427E+02  0.94903929567E+02  0.00000000000E+00 0. -1.
</event>
<event>
 8    1  0.6627806E-009  0.9406500E+02  0.7561462E-02  0.1293296E+00
          2   -1    0    0  501    0  0.00000000000E+00  0.00000000000E+00  0.45381820360E+03  0.45381820360E+03  0.00000000000E+00 0. -1.
         -2   -1    0    0    0  501 -0.00000000000E+00 -0.00000000000E+00 -0.36727993901E+02  0.36727993901E+02  0.00000000000E+00 0.  1.
         25    2    1    2    0    0  0.21827437327E+02 -0.48447824697E+02  0.32306459877E+03  0.35048901750E+03  0.12509271628E+03 0.  0.
         23    2    1    2    0    0 -0.21827437327E+02  0.48447824697E+02  0.94025610923E+02  0.14005718000E+03  0.89171572951E+02 0.  0.
          5    1    3    3  502    0 -0.38331604998E+02 -0.43253605128E+02  0.24472080991E+03  0.25148744204E+03  0.41800000000E+01 0.  1.
         -5    1    3    3    0  502  0.60159042325E+02 -0.51942195687E+01  0.78343788863E+02  0.99001575461E+02  0.41800000000E+01 0.  1.
        -11    1    4    4    0    0 -0.33652860359E+02  0.20737501872E+02 -0.18367664113E+01  0.39571867597E+02  0.00000000000E+00 0.  1.
         11    1    4    4    0    0  0.11825423032E+02  0.27710322824E+02  0.95862377335E+02  0.10048531241E+03  0.00000000000E+00 0. -1.
</event>
<event>
 8    1  0.6627806E-009  0.8555909E+02  0.7561462E-02  0.1313977E+00
         -1   -1    0    0    0  501 -0.00000000000E+00  0.00000000000E+00  0.16894552291E+03  0.16894552291E+03  0.00000000000E+00 0.  1.
          1   -1    0    0  501    0  0.00000000000E+00 -0.00000000000E+00 -0.88874890841E+02  0.88874890841E+02  0.00000000000E+00 0. -1.
         25    2    1    2    0    0 -0.28553611795E+02  0.22756350281E+02  0.88040415869E+02  0.15726284539E+03  0.12508927807E+03 0.  0.
         23    2    1    2    0    0  0.28553611795E+02 -0.22756350281E+02 -0.79697837993E+01  0.10055756836E+03  0.93354951004E+02 0.  0.
          5    1    3    3  502    0 -0.50582983133E+02  0.64962867224E+02  0.58319135673E+02  0.10098220777E+03  0.41800000000E+01 0.  1.
         -5    1    3    3    0  502  0.22029371338E+02 -0.42206516944E+02  0.29721280196E+02  0.56280637616E+02  0.41800000000E+01 0.  1.
        -11    1    4    4    0    0  0.15999090071E+02 -0.13326312424E+01  0.41887575543E+02  0.44858842762E+02  0.00000000000E+00 0.  1.
         11    1    4    4    0    0  0.12554521724E+02 -0.21423719038E+02 -0.49857359342E+02  0.55698725602E+02  0.00000000000E+00 0. -1.
</event>
<event>
 8    1  0.6627806E-009  0.2881286E+03  0.7561462E-02  0.1091330E+00
          2   -1    0    0  501    0  0.00000000000E+00  0.00000000000E+00  0.17279891777E+04  0.17279891777E+04  0.00000000000E+00 0. -1.
         -2   -1    0    0    0  501 -0.00000000000E+00 -0.00000000000E+00 -0.51290218403E+02  0.51290218403E+02  0.00000000000E+00 0.  1.
         25    2    1    2    0    0 -0.38093840800E+02  0.27090404033E+03  0.70035638971E+03  0.76222487670E+03  0.12509016858E+03 0.  0.
         23    2    1    2    0    0  0.38093840800E+02 -0.27090404033E+03  0.97634256957E+03  0.10170545194E+04  0.79466612345E+02 0.  0.
          5    1    3    3  502    0  0.66380261192E+01  0.24733501154E+03  0.53923534152E+03  0.59330506256E+03  0.41800000000E+01 0. -1.
         -5    1    3    3    0  502 -0.44731866919E+02  0.23569028796E+02  0.16112104819E+03  0.16891981414E+03  0.41800000000E+01 0. -1.
        -11    1    4    4    0    0 -0.11850122405E+02 -0.72981594850E+02  0.36874401374E+03  0.37608361605E+03  0.00000000000E+00 0. -1.
         11    1    4    4    0    0  0.49943963204E+02 -0.19792244548E+03  0.60759855582E+03  0.64097090334E+03  0.00000000000E+00 0.  1.
</event>
<event>
 8    1  0.6627806E-009  0.1637077E+03  0.7561462E-02  0.1184573E+00
         -2   -1    0    0    0  501 -0.00000000000E+00  0.00000000000E+00  0.45321992288E+02  0.45321992288E+02  0.00000000000E+00 0.  1.
          2   -1    0    0  501    0  0.00000000000E+00 -0.00000000000E+00 -0.83391667700E+03  0.83391667700E+03  0.00000000000E+00 0. -1.
         25    2    1    2    0    0 -0.53953577889E+02  0.13456359605E+03 -0.56749466140E+03  0.59892847310E+03  0.12508707059E+03 0.  0.
         23    2    1    2    0    0  0.53953577889E+02 -0.13456359605E+03 -0.22110002331E+03  0.28031019618E+03  0.93114101117E+02 0.  0.
          5    1    3    3  502    0  0.17765319852E+02  0.21588912022E+02 -0.18358731630E+02  0.33707612476E+02  0.41800000000E+01 0.  1.
         -5    1    3    3    0  502 -0.71718897741E+02  0.11297468403E+03 -0.54913592977E+03  0.56522086063E+03  0.41800000000E+01 0.  1.
        -11    1    4    4    0    0  0.23046865764E+02  0.39162617777E+01 -0.66404609037E+02  0.70399341114E+02  0.00000000000E+00 0. -1.
         11    1    4    4    0    0  0.30906712125E+02 -0.13847985783E+03 -0.15469541427E+03  0.20991085507E+03  0.00000000000E+00 0.  1.
</event>
<event>
 8    1  0.6627806E-009  0.8960506E+02  0.7561462E-02  0.1303811E+00
         -1   -1    0    0    0  501 -0.00000000000E+00  0.00000000000E+00  0.14918494018E+02  0.14918494018E+02  0.00000000000E+00 0. -1.
          1   -1    0    0  501    0  0.00000000000E+00 -0.00000000000E+00 -0.12793118915E+04  0.12793118915E+04  0.00000000000E+00 0.  1.
         25    2    1    2    0    0 -0.63642391674E+02  0.19856628958E+02 -0.94068089507E+03  0.95130140953E+03  0.12509670536E+03 0.  0.
         23    2    1    2    0    0  0.63642391674E+02 -0.19856628958E+02 -0.32371250241E+03  0.34292897598E+03  0.91465067773E+02 0.  0.
          5    1    3    3  502    0 -0.21543765295E+02  0.42821525785E+00 -0.20787986657E+02  0.30231274876E+02  0.41800000000E+01 0.  1.
         -5    1    3    3    0  502 -0.42098626379E+02  0.19428413700E+02 -0.91989290842E+03  0.92107013466E+03  0.41800000000E+01 0.  1.
        -11    1    4    4    0    0  0.82983131301E+02  0.64650305503E-02 -0.27028203364E+03  0.28273411154E+03  0.00000000000E+00 0.  1.
         11    1    4    4    0    0 -0.19340739627E+02 -0.19863093989E+02 -0.53430468770E+02  0.60194864442E+02  0.00000000000E+00 0. -1.
</event>
<event>
 8    1  0.6627806E-009  0.8972335E+02  0.7561462E-02  0.1303523E+00
         -1   -1    0    0    0  501 -0.00000000000E+00  0.00000000000E+00  0.38611101905E+02  0.38611101905E+02  0.00000000000E+00 0. -1.
          1   -1    0    0  501    0  0.00000000000E+00 -0.00000000000E+00 -0.39954840281E+03  0.39954840281E+03  0.00000000000E+00 0.  1.
         25    2    1    2    0    0 -0.38220357962E+02  0.16141737033E+02 -0.12635422598E+03  0.18257290046E+03  0.12508445995E+03 0.  0.
         23    2    1    2    0    0  0.38220357962E+02 -0.16141737033E+02 -0.23458307492E+03  0.25558660425E+03  0.92595581958E+02 0.  0.
          5    1    3    3  502    0 -0.34194601564E+02 -0.21074547628E+02  0.95899041469E+01  0.41507180047E+02  0.41800000000E+01 0.  1.
         -5    1    3    3    0  502 -0.40257563976E+01  0.37216284661E+02 -0.13594413013E+03  0.14106572041E+03  0.41800000000E+01 0.  1.
        -11    1    4    4    0    0 -0.26811576817E+02 -0.23881979196E+02 -0.78600656620E+02  0.86413383239E+02  0.00000000000E+00 0. -1.
         11    1    4    4    0    0  0.65031934779E+02  0.77402421629E+01 -0.15598241830E+03  0.16917322102E+03  0.00000000000E+00 0.  1.
</event>
<event>
 7    1  0.6627806E-009  0.7140156E+02  0.7561462E-02  0.1355391E+00
         -2   -1    0    0    0  501 -0.00000000000E+00  0.00000000000E+00  0.27611867999E+02  0.27611867999E+02  0.00000000000E+00 0.  1.
          2   -1    0    0  501    0  0.00000000000E+00 -0.00000000000E+00 -0.61131982261E+03  0.61131982261E+03  0.00000000000E+00 0. -1.
         23    2    1    2    0    0 -0.15972387887E+02 -0.12749263092E+02 -0.96149167311E+02  0.13512059417E+03  0.92710580354E+02 0.  0.
          5    1    1    2  502    0  0.60261919602E+02  0.16381170552E+02 -0.40637373501E+03  0.41116532759E+03  0.41800000000E+01 0.  1.
         -5    1    1    2    0  502 -0.44289531715E+02 -0.36319074602E+01 -0.81185052294E+02  0.92645768858E+02  0.41800000000E+01 0.  1.
        -11    1    3    3    0    0 -0.20396416480E+02  0.17017520408E+01 -0.11162710249E+03  0.11348797194E+03  0.00000000000E+00 0. -1.
         11    1    3    3    0    0  0.44240285922E+01 -0.14451015132E+02  0.15477935174E+02  0.21632622231E+02  0.00000000000E+00 0.  1.
</event>
<event>
 8    1  0.6627806E-009  0.1051494E+03  0.7561462E-02  0.1269825E+00
         -1   -1    0    0    0  501 -0.00000000000E+00  0.00000000000E+00  0.13521722620E+03  0.13521722620E+03  0.00000000000E+00 0.  1.
          1   -1    0    0  501    0  0.00000000000E+00 -0.00000000000E+00 -0.17678968546E+03  0.17678968546E+03  0.00000000000E+00 0. -1.
         25    2    1    2    0    0  0.96025059607E+02  0.38029879334E+02 -0.59767391902E+02  0.17286915499E+03  0.12507805490E+03 0.  0.
         23    2    1    2    0    0 -0.96025059607E+02 -0.38029879334E+02  0.18194932635E+02  0.13913775667E+03  0.91439466116E+02 0.  0.
          5    1    3    3  502    0  0.75880017276E+02  0.32771139867E+02 -0.98527237960E+02  0.12867328258E+03  0.41800000000E+01 0. -1.
         -5    1    3    3    0  502  0.20145042331E+02  0.52587394669E+01  0.38759846058E+02  0.44195872406E+02  0.41800000000E+01 0. -1.
        -11    1    4    4    0    0 -0.42839062026E+02 -0.36962599775E+01 -0.35786362838E+02  0.55942035521E+02  0.00000000000E+00 0.  1.
         11    1    4    4    0    0 -0.53185997581E+02 -0.34333619357E+02  0.53981295474E+02  0.83195721151E+02  0.00000000000E+00 0. -1.
</event>
<event>
 8    1  0.6627806E-009  0.9427672E+02  0.7561462E-02  0.1292813E+00
          1   -1    0    0  501    0  0.00000000000E+00  0.00000000000E+00  0.38649513621E+03  0.38649513621E+03  0.00000000000E+00 0. -1.
         -1   -1    0    0    0  501 -0.00000000000E+00 -0.00000000000E+00 -0.42819983692E+02  0.42819983692E+02  0.00000000000E+00 0.  1.
         25    2    1    2    0    0  0.45714528103E+02 -0.54469734549E+02  0.19601045452E+03  0.24315941810E+03  0.12509849826E+03 0.  0.
         23    2    1    2    0    0 -0.45714528103E+02  0.54469734549E+02  0.14766469799E+03  0.18615570180E+03  0.88274074434E+02 0.  0.
          5    1    3    3  502    0  0.79377746625E+01  0.22226170514E+00  0.17219384810E+03  0.17242752504E+03  0.41800000000E+01 0. -1.
         -5    1    3    3    0  502  0.37776753441E+02 -0.54691996254E+02  0.23816606420E+02  0.70731893062E+02  0.41800000000E+01 0. -1.
        -11    1    4    4    0    0 -0.63612710281E+02  0.91695482441E+01  0.91436187751E+02  0.11176418905E+03  0.00000000000E+00 0.  1.
         11    1    4    4    0    0  0.17898182178E+02  0.45300186305E+02  0.56228510241E+02  0.74391512745E+02  0.00000000000E+00 0. -1.
</event>
<event>
 8    1  0.6627806E-009  0.5735271E+02  0.7561462E-02  0.1409289E+00
         -2   -1    0    0    0  501 -0.00000000000E+00  0.00000000000E+00  0.35079386695E+02  0.35079386695E+02  0.00000000000E+00 0.  1.
          2   -1    0    0  501    0  0.00000000000E+00 -0.00000000000E+00 -0.52086605378E+03  0.52086605378E+03  0.00000000000E+00 0. -1.
         25    2    1    2    0    0 -0.20464049060E+02 -0.21926204635E+02 -0.40890147962E+03  0.42865829887E+03  0.12509189183E+03 0.  0.
         23    2    1    2    0    0  0.20464049060E+02  0.21926204635E+02 -0.76885187469E+02  0.12728714161E+03  0.96907938855E+02 0.  0.
          5    1    3    3  502    0  0.14654840373E+02 -0.22133390480E+02 -0.10755968319E+02  0.28945026775E+02  0.41800000000E+01 0. -1.
         -5    1    3    3    0  502 -0.35118889434E+02  0.20718584533E+00 -0.39814551130E+03  0.39971327210E+03  0.41800000000E+01 0. -1.
        -11    1    4    4    0    0 -0.22107315970E+01  0.28712234794E+02 -0.93848664606E+02  0.98167467164E+02  0.00000000000E+00 0. -1.
         11    1    4    4    0    0  0.22674780657E+02 -0.67860301590E+01  0.16963477137E+02  0.29119674445E+02  0.00000000000E+00 0.  1.
</event>
<event>
 8    1  0.6627806E-009  0.1275853E+03  0.7561462E-02  0.1231083E+00
         -2   -1    0    0    0  501 -0.00000000000E+00  0.00000000000E+00  0.35044807569E+03  0.35044807569E+03  0.00000000000E+00 0.  1.
          2   -1    0    0  501    0  0.00000000000E+00 -0.00000000000E+00 -0.62880769751E+02  0.62880769751E+02  0.00000000000E+00 0. -1.
         25    2    1    2    0    0 -0.55575058637E+02  0.79227858676E+02  0.19537562444E+03  0.25136341429E+03  0.12508513374E+03 0.  0.
         23    2    1    2    0    0  0.55575058637E+02 -0.79227858676E+02  0.92191681498E+02  0.16196543115E+03  0.91475975090E+02 0.  0.
          5    1    3    3  502    0 -0.77728201121E+02  0.21916412273E+01  0.97826323534E+02  0.12503574896E+03  0.41800000000E+01 0. -1.
         -5    1    3    3    0  502  0.22153142484E+02  0.77036217449E+02  0.97549300911E+02  0.12632766533E+03  0.41800000000E+01 0. -1.
        -11    1    4    4    0    0  0.15763549442E+02 -0.17235432010E+02  0.84756709638E+02  0.87916150031E+02  0.00000000000E+00 0.  1.
         11    1    4    4    0    0  0.39811509195E+02 -0.61992426666E+02  0.74349718597E+01  0.74049281123E+02  0.00000000000E+00 0. -1.
</event>
<event>
 8    1  0.6627806E-009  0.1213348E+03  0.7561462E-02  0.1240911E+00
          1   -1    0    0  501    0  0.00000000000E+00  0.00000000000E+00  0.14805943053E+02  0.14805943053E+02  0.00000000000E+00 0. -1.
         -1   -1    0    0    0  501 -0.00000000000E+00 -0.00000000000E+00 -0.10313290455E+04  0.10313290455E+04  0.00000000000E+00 0.  1.
         25    2    1    2    0    0  0.49479145253E+02 -0.31157818061E+02 -0.59505731368E+03  0.61085629285E+03  0.12503282969E+03 0.  0.
         23    2    1    2    0    0 -0.49479145253E+02  0.31157818061E+02 -0.42146578871E+03  0.43527869566E+03  0.91734052536E+02 0.  0.
          5    1    3    3  502    0  0.13809363733E+02 -0.75547684494E+02 -0.41139488827E+03  0.41852285201E+03  0.41800000000E+01 0. -1.
         -5    1    3    3    0  502  0.35669781520E+02  0.44389866433E+02 -0.18366242541E+03  0.19233344084E+03  0.41800000000E+01 0. -1.
        -11    1    4    4    0    0 -0.20540021959E+02 -0.32661752442E+02 -0.15986574569E+03  0.16445588837E+03  0.00000000000E+00 0.  1.
         11    1    4    4    0    0 -0.28939123294E+02  0.63819570502E+02 -0.26160004302E+03  0.27082280729E+03  0.00000000000E+00 0. -1.
</event>
<event>
 8    1  0.6627806E-009  0.1148712E+03  0.7561462E-02  0.1251806E+00
         -1   -1    0    0    0  501 -0.00000000000E+00  0.00000000000E+00  0.25374675981E+02  0.25374675981E+02  0.00000000000E+00 0.  1.
          1   -1    0    0  501    0  0.00000000000E+00 -0.00000000000E+00 -0.66446847558E+03  0.66446847558E+03  0.00000000000E+00 0. -1.
         25    2    1    2    0    0  0.22695616045E+02  0.65852976079E+02 -0.30056073288E+03  0.33292029916E+03  0.12508983171E+03 0.  0.
         23    2    1    2    0    0 -0.22695616045E+02 -0.65852976079E+02 -0.33853306672E+03  0.35692285240E+03  0.89093096578E+02 0.  0.
          5    1    3    3  502    0  0.35988780690E+02 -0.11539270007E+02 -0.23008605197E+02  0.44443395471E+02  0.41800000000E+01 0. -1.
         -5    1    3    3    0  502 -0.13293164645E+02  0.77392246086E+02 -0.27755212768E+03  0.28847690368E+03  0.41800000000E+01 0. -1.
        -11    1    4    4    0    0 -0.46874345132E+02 -0.73974624543E+02 -0.26393762631E+03  0.27808725230E+03  0.00000000000E+00 0.  1.
         11    1    4    4    0    0  0.24178729087E+02  0.81216484635E+01 -0.74595440412E+02  0.78835600107E+02  0.00000000000E+00 0. -1.
</event>
<event>
 8    1  0.6627806E-009  0.6558625E+02  0.7561462E-02  0.1375780E+00
         -2   -1    0    0    0  501 -0.00000000000E+00  0.00000000000E+00  0.13543303144E+02  0.13543303144E+02  0.00000000000E+00 0. -1.
          2   -1    0    0  501    0  0.00000000000E+00 -0.00000000000E+00 -0.88831325563E+03  0.88831325563E+03  0.00000000000E+00 0.  1.
         25    2    1    2    0    0  0.10024493755E+02  0.59354804880E+01 -0.48590724168E+03  0.50189217651E+03  0.12511670123E+03 0.  0.
         23    2    1    2    0    0 -0.10024493755E+02 -0.59354804880E+01 -0.38886271081E+03  0.39996438226E+03  0.92852457247E+02 0.  0.
          5    1    3    3  502    0 -0.11349451086E+02 -0.91976589194E+01 -0.47143537449E+03  0.47168017946E+03  0.41800000000E+01 0. -1.
         -5    1    3    3    0  502  0.21373944841E+02  0.15133139407E+02 -0.14471867187E+02  0.30211997058E+02  0.41800000000E+01 0. -1.
        -11    1    4    4    0    0 -0.22051199825E+02  0.37984107538E+02 -0.13252505016E+03  0.13961352642E+03  0.00000000000E+00 0. -1.
         11    1    4    4    0    0  0.12026706070E+02 -0.43919588026E+02 -0.25633766064E+03  0.26035085584E+03  0.00000000000E+00 0.  1.
</event>
<event>
 8    1  0.6627806E-009  0.7749248E+02  0.7561462E-02  0.1336322E+00
         -2   -1    0    0    0  501 -0.00000000000E+00  0.00000000000E+00  0.23028792045E+02  0.23028792045E+02  0.00000000000E+00 0.  1.
          2   -1    0    0  501    0  0.00000000000E+00 -0.00000000000E+00 -0.63667105926E+03  0.63667105926E+03  0.00000000000E+00 0. -1.
         25    2    1    2    0    0  0.32210922985E+02  0.43913241454E+02 -0.30751468050E+03  0.33642137068E+03  0.12509254012E+03 0.  0.
         23    2    1    2    0    0 -0.32210922985E+02 -0.43913241454E+02 -0.30612758672E+03  0.32327848063E+03  0.88481412464E+02 0.  0.
          5    1    3    3  502    0 -0.11377732034E+01  0.95587732828E+01 -0.28164497154E+03  0.28184042838E+03  0.41800000000E+01 0. -1.
         -5    1    3    3    0  502  0.33348696188E+02  0.34354468171E+02 -0.25869708956E+02  0.54580942299E+02  0.41800000000E+01 0. -1.
        -11    1    4    4    0    0 -0.53101162978E+02 -0.63914704626E+01 -0.22734137985E+03  0.23354804088E+03  0.00000000000E+00 0. -1.
         11    1    4    4    0    0  0.20890239994E+02 -0.37521770992E+02 -0.78786206869E+02  0.89730439752E+02  0.00000000000E+00 0.  1.
</event>
<event>
 8    1  0.6627806E-009  0.1036737E+03  0.7561462E-02  0.1272755E+00
          2   -1    0    0  501    0  0.00000000000E+00  0.00000000000E+00  0.33230417665E+03  0.33230417665E+03  0.00000000000E+00 0. -1.
         -2   -1    0    0    0  501 -0.00000000000E+00 -0.00000000000E+00 -0.49994930572E+02  0.49994930572E+02  0.00000000000E+00 0.  1.
         25    2    1    2    0    0  0.14776093262E+02 -0.67127061850E+02  0.18178745166E+03  0.23111622967E+03  0.12507461241E+03 0.  0.
         23    2    1    2    0    0 -0.14776093262E+02  0.67127061850E+02  0.10052179442E+03  0.15118287755E+03  0.89594954927E+02 0.  0.
          5    1    3    3  502    0 -0.32517566903E+02 -0.80847566608E+02  0.81851226335E+02  0.11962782635E+03  0.41800000000E+01 0. -1.
         -5    1    3    3    0  502  0.47293660164E+02  0.13720504758E+02  0.99936225328E+02  0.11148840332E+03  0.41800000000E+01 0. -1.
        -11    1    4    4    0    0 -0.53090978229E+01  0.55209985945E+02  0.11655327053E+03  0.12907747262E+03  0.00000000000E+00 0. -1.
         11    1    4    4    0    0 -0.94669954387E+01  0.11917075905E+02 -0.16031476114E+02  0.22105404931E+02  0.00000000000E+00 0.  1.
</event>
<event>
 8    1  0.6627806E-009  0.1156708E+03  0.7561462E-02  0.1250415E+00
         -2   -1    0    0    0  501 -0.00000000000E+00  0.00000000000E+00  0.12283390191E+03  0.12283390191E+03  0.00000000000E+00 0.  1.
          2   -1    0    0  501    0  0.00000000000E+00 -0.00000000000E+00 -0.15811362796E+03  0.15811362796E+03  0.00000000000E+00 0. -1.
         25    2    1    2    0    0 -0.80807444610E+02  0.16119653386E+02  0.60067324226E+01  0.14995617158E+03  0.12514426167E+03 0.  0.
         23    2    1    2    0    0  0.80807444610E+02 -0.16119653386E+02 -0.41286458466E+02  0.13099135829E+03  0.93083177671E+02 0.  0.
          5    1    3    3  502    0 -0.59335141519E+02 -0.22792158751E+02  0.54653454926E+02  0.83932199155E+02  0.41800000000E+01 0.  1.
         -5    1    3    3    0  502 -0.21472303091E+02  0.38911812137E+02 -0.48646722504E+02  0.66023972420E+02  0.41800000000E+01 0.  1.
        -11    1    4    4    0    0  0.46287445523E+02  0.37269001945E+02 -0.10477171822E+02  0.60342996681E+02  0.00000000000E+00 0.  1.
         11    1    4    4    0    0  0.34519999087E+02 -0.53388655332E+02 -0.30809286644E+02  0.70648361613E+02  0.00000000000E+00 0. -1.
</event>
<event>
 8    1  0.6627806E-009  0.1179004E+03  0.7561462E-02  0.1246601E+00
          2   -1    0    0  501    0  0.00000000000E+00  0.00000000000E+00  0.21160928408E+04  0.21160928408E+04  0.00000000000E+00 0. -1.
         -2   -1    0    0    0  501 -0.00000000000E+00 -0.00000000000E+00 -0.86016843057E+01  0.86016843057E+01  0.00000000000E+00 0.  1.
         25    2    1    2    0    0  0.21827279332E+02  0.58047838127E+02  0.14430618130E+04  0.14498005696E+04  0.12509322001E+03 0.  0.
         23    2    1    2    0    0 -0.21827279332E+02 -0.58047838127E+02  0.66442934347E+03  0.67489395553E+03  0.10084402370E+03 0.  0.
          5    1    3    3  502    0  0.12672356380E+02  0.86681786826E+02  0.13250164499E+04  0.13279158052E+04  0.41800000000E+01 0. -1.
         -5    1    3    3    0  502  0.91549229530E+01 -0.28633948699E+02  0.11804536313E+03  0.12188476439E+03  0.41800000000E+01 0. -1.
        -11    1    4    4    0    0 -0.20909590776E+02  0.26184961548E+02  0.15896736323E+03  0.16246072070E+03  0.00000000000E+00 0. -1.
         11    1    4    4    0    0 -0.91768855638E+00 -0.84232799675E+02  0.50546198024E+03  0.51243323483E+03  0.00000000000E+00 0.  1.
</event>
<event>
 8    1  0.6627806E-009  0.1764577E+03  0.7561462E-02  0.1171276E+00
         -1   -1    0    0    0  501 -0.00000000000E+00  0.00000000000E+00  0.30106434752E+03  0.30106434752E+03  0.00000000000E+00 0.  1.
          1   -1    0    0  501    0  0.00000000000E+00 -0.00000000000E+00 -0.13240065360E+03  0.13240065360E+03  0.00000000000E+00 0. -1.
         25    2    1    2    0    0  0.14024857864E+03  0.16049096405E+02 -0.87950562101E+01  0.18881745508E+03  0.12508973189E+03 0.  0.
         23    2    1    2    0    0 -0.14024857864E+03 -0.16049096405E+02  0.17745875013E+03  0.24464754604E+03  0.91834505908E+02 0.  0.
          5    1    3    3  502    0  0.59572962298E+02 -0.51808942865E+02 -0.23060363340E+02  0.82355067574E+02  0.41800000000E+01 0. -1.
         -5    1    3    3    0  502  0.80675616347E+02  0.67858039271E+02  0.14265307130E+02  0.10646238751E+03  0.41800000000E+01 0. -1.
        -11    1    4    4    0    0 -0.32101047762E+02 -0.46037469630E+02  0.62104749373E+02  0.83707381826E+02  0.00000000000E+00 0.  1.
         11    1    4    4    0    0 -0.10814753088E+03  0.29988373225E+02  0.11535400076E+03  0.16094016421E+03  0.00000000000E+00 0. -1.
</event>
<event>
 8    1  0.6627806E-009  0.1318665E+03  0.7561462E-02  0.1224712E+00
          2   -1    0    0  501    0  0.00000000000E+00  0.00000000000E+00  0.53158809352E+03  0.53158809352E+03  0.00000000000E+00 0. -1.
         -2   -1    0    0    0  501 -0.00000000000E+00 -0.00000000000E+00 -0.44070325253E+02  0.44070325253E+02  0.00000000000E+00 0.  1.
         25    2    1    2    0    0  0.90461333865E+02 -0.27168095777E+02  0.35965992638E+03  0.39233298193E+03  0.12509415541E+03 0.  0.
         23    2    1    2    0    0 -0.90461333865E+02  0.27168095777E+02  0.12785784189E+03  0.18332543684E+03  0.91319382974E+02 0.  0.
          5    1    3    3  502    0  0.12100295083E+03 -0.15983268720E+02  0.30567766450E+03  0.32917090692E+03  0.41800000000E+01 0.  1.
         -5    1    3    3    0  502 -0.30541616960E+02 -0.11184827056E+02  0.53982261875E+02  0.63162075013E+02  0.41800000000E+01 0.  1.
        -11    1    4    4    0    0 -0.69173674880E+02 -0.59671627363E+01  0.26035187941E+02  0.74151435176E+02  0.00000000000E+00 0.  1.
         11    1    4    4    0    0 -0.21287658985E+02  0.33135258513E+02  0.10182265395E+03  0.10917400166E+03  0.00000000000E+00 0. -1.
</event>
<event>
 8    1  0.6627806E-009  0.1094899E+03  0.7561462E-02  0.1261517E+00
         -1   -1    0    0    0  501 -0.00000000000E+00  0.00000000000E+00  0.92482791533E+02  0.92482791533E+02  0.00000000000E+00 0.  1.
          1   -1    0    0  501    0  0.00000000000E+00 -0.00000000000E+00 -0.15553196982E+03  0.15553196982E+03  0.00000000000E+00 0. -1.
         25    2    1    2    0    0 -0.34710665830E+02 -0.41844849341E+02 -0.29730610621E+02  0.13959849964E+03  0.12509200676E+03 0.  0.
         23    2    1    2    0    0  0.34710665830E+02  0.41844849341E+02 -0.33318567667E+02  0.10841626171E+03  0.87682022751E+02 0.  0.
          5    1    3    3  502    0  0.20430906715E+02  0.27304780184E+02 -0.37325544709E+02  0.50731071918E+02  0.41800000000E+01 0.  1.
         -5    1    3    3    0  502 -0.55141572545E+02 -0.69149629525E+02  0.75949340880E+01  0.88867427723E+02  0.41800000000E+01 0.  1.
        -11    1    4    4    0    0  0.18589993673E+02 -0.22821323309E+02  0.73551866565E+01  0.30339733570E+02  0.00000000000E+00 0.  1.
         11    1    4    4    0    0  0.16120672157E+02  0.64666172651E+02 -0.40673754324E+02  0.78076528143E+02  0.00000000000E+00 0. -1.
</event>
<event>
 8    1  0.6627806E-009  0.1233103E+03  0.7561462E-02  0.1237734E+00
          1   -1    0    0  501    0  0.00000000000E+00  0.00000000000E+00  0.48131130618E+03  0.48131130618E+03  0.00000000000E+00 0. -1.
         -1   -1    0    0    0  501 -0.00000000000E+00 -0.00000000000E+00 -0.44503473519E+02  0.44503473519E+02  0.00000000000E+00 0.  1.
         25    2    1    2    0    0  0.76601000089E+02 -0.59820225368E+02  0.21138686776E+03  0.26415685749E+03  0.12509302507E+03 0.  0.
         23    2    1    2    0    0 -0.76601000089E+02  0.59820225368E+02  0.22542096490E+03  0.26165792221E+03  0.90576400125E+02 0.  0.
          5    1    3    3  502    0 -0.28397155260E+02 -0.25202120273E+02  0.20059267195E+02  0.43143851166E+02  0.41800000000E+01 0. -1.
         -5    1    3    3    0  502  0.10499815535E+03 -0.34618105095E+02  0.19132760056E+03  0.22101300632E+03  0.41800000000E+01 0. -1.
        -11    1    4    4    0    0 -0.55817195754E+02  0.49395569576E+02  0.22643228579E+03  0.23838427314E+03  0.00000000000E+00 0. -1.
         11    1    4    4    0    0 -0.20783804334E+02  0.10424655792E+02 -0.10113208821E+01  0.23273649067E+02  0.00000000000E+00 0.  1.
</event>
<event>
 8    1  0.6627806E-009  0.9993957E+02  0.7561462E-02  0.1280423E+00
         -2   -1    0    0    0  501 -0.00000000000E+00  0.00000000000E+00  0.75513076995E+02  0.75513076995E+02  0.00000000000E+00 0.  1.
          2   -1    0    0  501    0  0.00000000000E+00 -0.00000000000E+00 -0.32058338654E+03  0.32058338654E+03  0.00000000000E+00 0. -1.
         25    2    1    2    0    0 -0.34925410209E+02  0.65113111619E+02 -0.34169013561E+02  0.14924709082E+03  0.12509065132E+03 0.  0.
         23    2    1    2    0    0  0.34925410209E+02 -0.65113111619E+02 -0.21090129598E+03  0.24684937272E+03  0.10486064362E+03 0.  0.
          5    1    3    3  502    0  0.31859752401E+02  0.82149196423E+01  0.26535837672E+02  0.42475308224E+02  0.41800000000E+01 0. -1.
         -5    1    3    3    0  502 -0.66785162610E+02  0.56898191977E+02 -0.60704851232E+02  0.10677178259E+03  0.41800000000E+01 0. -1.
        -11    1    4    4    0    0  0.25939136201E+01 -0.33694788549E+02 -0.19670146955E+03  0.19958340434E+03  0.00000000000E+00 0. -1.
         11    1    4    4    0    0  0.32331496589E+02 -0.31418323070E+02 -0.14199826433E+02  0.47265968380E+02  0.00000000000E+00 0.  1.
</event>
