<event>
 8    1  0.6834011E-009  0.9900061E+02  0.7561462E-02  0.1282412E+00
         -1   -1    0    0    0  501 -0.00000000000E+00  0.00000000000E+00  0.25527696481E+02  0.25527696481E+02  0.00000000000E+00 0.  1.
          1   -1    0    0  501    0  0.00000000000E+00 -0.00000000000E+00 -0.47711191261E+03  0.47711191261E+03  0.00000000000E+00 0. -1.
         25    2    1    2    0    0  0.76732672775E+01 -0.79529152058E+01 -0.20178973284E+03  0.23767636819E+03  0.12509529097E+03 0.  0.
         23    2    1    2    0    0 -0.76732672775E+01  0.79529152058E+01 -0.24979448328E+03  0.26496324090E+03  0.87670446889E+02 0.  0.
          5    1    3    3  502    0  0.55389443454E+02 -0.33967362970E+02 -0.14507097292E+03  0.15901204916E+03  0.41800000000E+01 0.  1.
         -5    1    3    3    0  502 -0.47716176177E+02  0.26014447764E+02 -0.56718759918E+02  0.78664319027E+02  0.41800000000E+01 0.  1.
        -11    1    4    4    0    0 -0.14130548659E+02 -0.33538359894E+02 -0.56841584970E+02  0.67494146203E+02  0.00000000000E+00 0.  1.
         11    1    4    4    0    0  0.64572813816E+01  0.41491275100E+02 -0.19295289831E+03  0.19746909470E+03  0.00000000000E+00 0. -1.
</event>
<event>
 8    1  0.6834011E-009  0.1461636E+03  0.7561462E-02  0.1205268E+00
         -2   -1    0    0    0  501 -0.00000000000E+00  0.00000000000E+00  0.32803581586E+02  0.32803581586E+02  0.00000000000E+00 0.  1.
          2   -1    0    0  501    0  0.00000000000E+00 -0.00000000000E+00 -0.84597634379E+03  0.84597634379E+03  0.00000000000E+00 0. -1.
         25    2    1    2    0    0 -0.57984610808E+02 -0.11407931079E+03 -0.46617840571E+03  0.49934601443E+03  0.12509129442E+03 0.  0.
         23    2    1    2    0    0  0.57984610808E+02  0.11407931079E+03 -0.34699435650E+03  0.37943391095E+03  0.84786231748E+02 0.  0.
          5    1    3    3  502    0 -0.62034290677E+02 -0.40981729593E+02 -0.93541690104E+02  0.11956285196E+03  0.41800000000E+01 0. -1.
         -5    1    3    3    0  502  0.40496798692E+01 -0.73097581196E+02 -0.37263671560E+03  0.37978316248E+03  0.41800000000E+01 0. -1.
        -11    1    4    4    0    0  0.70556902547E+02  0.72801872154E+02 -0.17631597777E+03  0.20338562659E+03  0.00000000000E+00 0.  1.
         11    1    4    4    0    0 -0.12572291739E+02  0.41277438635E+02 -0.17067837873E+03  0.17604828436E+03  0.00000000000E+00 0. -1.
</event>
<event>
 8    1  0.6834011E-009  0.9889341E+02  0.7561462E-02  0.1282640E+00
         -2   -1    0    0    0  501 -0.00000000000E+00  0.00000000000E+00  0.15831718339E+02  0.15831718339E+02  0.00000000000E+00 0.  1.
          2   -1    0    0  501    0  0.00000000000E+00 -0.00000000000E+00 -0.79606902563E+03  0.79606902563E+03  0.00000000000E+00 0. -1.
         25    2    1    2    0    0  0.54136357718E+01  0.30758597035E+02 -0.49048721946E+03  0.50715021548E+03  0.12509288493E+03 0.  0.
         23    2    1    2    0    0 -0.54136357718E+01 -0.30758597035E+02 -0.28975008783E+03  0.30475052850E+03  0.89119989202E+02 0.  0.
          5    1    3    3  502    0 -0.45095640044E+02 -0.12808403662E+01 -0.36795834987E+03  0.37073720739E+03  0.41800000000E+01 0. -1.
         -5    1    3    3    0  502  0.50509275816E+02  0.32039437401E+02 -0.12252886959E+03  0.13641300809E+03  0.41800000000E+01 0. -1.
        -11    1    4    4    0    0  0.32157518875E+02  0.13140065999E+02 -0.13984119707E+03  0.14409138681E+03  0.00000000000E+00 0.  1.
         11    1    4    4    0    0 -0.37571154647E+02 -0.43898663034E+02 -0.14990889076E+03  0.16065914169E+03  0.00000000000E+00 0. -1.
</event>
<event>
 8    1  0.6834011E-009  0.1870803E+03  0.7561462E-02  0.1161121E+00
         -2   -1    0    0    0  501 -0.00000000000E+00  0.00000000000E+00  0.19725702087E+02  0.19725702087E+02  0.00000000000E+00 0.  1.
          2   -1    0    0  501    0  0.00000000000E+00 -0.00000000000E+00 -0.20369573633E+04  0.20369573633E+04  0.00000000000E+00 0. -1.
         25    2    1    2    0    0  0.15569387608E+03  0.22813338591E+02 -0.13553045515E+04  0.13701310267E+04  0.12509025328E+03 0.  0.
         23    2    1    2    0    0 -0.15569387608E+03 -0.22813338591E+02 -0.66192710970E+03  0.68655203871E+03  0.91897615987E+02 0.  0.
          5    1    3    3  502    0  0.12219221177E+03  0.67925283450E+02 -0.10879310514E+04  0.10968847823E+04  0.41800000000E+01 0. -1.
         -5    1    3    3    0  502  0.33501664315E+02 -0.45111944860E+02 -0.26737350012E+03  0.27324624434E+03  0.41800000000E+01 0. -1.
        -11    1    4    4    0    0 -0.43793771074E+02  0.31124968693E+02 -0.13775839621E+03  0.14786491737E+03  0.00000000000E+00 0.  1.
         11    1    4    4    0    0 -0.11190010501E+03 -0.53938307284E+02 -0.52416871349E+03  0.53868712134E+03  0.00000000000E+00 0. -1.
</event>
<event>
 8    1  0.6834011E-009  0.1013419E+03  0.7561462E-02  0.1277499E+00
         -2   -1    0    0    0  501 -0.00000000000E+00  0.00000000000E+00  0.84496652289E+02  0.84496652289E+02  0.00000000000E+00 0.  1.
          2   -1    0    0  501    0  0.00000000000E+00 -0.00000000000E+00 -0.16480323795E+03  0.16480323795E+03  0.00000000000E+00 0. -1.
         25    2    1    2    0    0 -0.28652012259E+02  0.19356953209E+01 -0.69869626778E+01  0.12852957475E+03  0.12508536771E+03 0.  0.
         23    2    1    2    0    0  0.28652012259E+02 -0.19356953209E+01 -0.73319622986E+02  0.12077031549E+03  0.91569739907E+02 0.  0.
          5    1    3    3  502    0  0.36361718888E+02 -0.15003014093E+02  0.31876621215E+02  0.50802129999E+02  0.41800000000E+01 0.  1.
         -5    1    3    3    0  502 -0.65013731147E+02  0.16938709414E+02 -0.38863583893E+02  0.77727444749E+02  0.41800000000E+01 0.  1.
        -11    1    4    4    0    0 -0.26304148087E+02  0.23484624361E+02 -0.30316335644E+02  0.46502860071E+02  0.00000000000E+00 0.  1.
         11    1    4    4    0    0  0.54956160346E+02 -0.25420319681E+02 -0.43003287342E+02  0.74267455422E+02  0.00000000000E+00 0. -1.
</event>
<event>
 8    1  0.6834011E-009  0.8980709E+02  0.7561462E-02  0.1303320E+00
          2   -1    0    0  501    0  0.00000000000E+00  0.00000000000E+00  0.22784594821E+03  0.22784594821E+03  0.00000000000E+00 0.  1.
         -2   -1    0    0    0  501 -0.00000000000E+00 -0.00000000000E+00 -0.57638656721E+02  0.57638656721E+02  0.00000000000E+00 0. -1.
         25    2    1    2    0    0 -0.28337858918E+02  0.29556788612E+02  0.11243541520E+03  0.17310741905E+03  0.12509123845E+03 0.  0.
         23    2    1    2    0    0  0.28337858918E+02 -0.29556788612E+02  0.57771876286E+02  0.11237718588E+03  0.87260553605E+02 0.  0.
          5    1    3    3  502    0 -0.69921252628E+02 -0.13784986025E+02  0.59363929348E+02  0.92846948881E+02  0.41800000000E+01 0.  1.
         -5    1    3    3    0  502  0.41583393710E+02  0.43341774637E+02  0.53071485857E+02  0.80260470172E+02  0.41800000000E+01 0.  1.
        -11    1    4    4    0    0 -0.22410290654E+00 -0.16685571655E+02 -0.21455464599E+02  0.27180792570E+02  0.00000000000E+00 0. -1.
         11    1    4    4    0    0  0.28561961825E+02 -0.12871216957E+02  0.79227340885E+02  0.85196393310E+02  0.00000000000E+00 0.  1.
</event>
<event>
 8    1  0.6834011E-009  0.3845635E+03  0.7561462E-02  0.1049260E+00
         -1   -1    0    0    0  501 -0.00000000000E+00  0.00000000000E+00  0.51240556515E+03  0.51240556515E+03  0.00000000000E+00 0.  1.
          1   -1    0    0  501    0  0.00000000000E+00 -0.00000000000E+00 -0.30530479743E+03  0.30530479743E+03  0.00000000000E+00 0. -1.
         25    2    1    2    0    0 -0.26270303422E+03 -0.26931053338E+03  0.48732181581E+02  0.39945576873E+03  0.12509611533E+03 0.  0.
         23    2    1    2    0    0  0.26270303422E+03  0.26931053338E+03  0.15836858614E+03  0.41825459385E+03  0.91187985089E+02 0.  0.
          5    1    3    3  502    0 -0.20500142259E+03 -0.14846429084E+03  0.72625956510E+02  0.26336140734E+03  0.41800000000E+01 0. -1.
         -5    1    3    3    0  502 -0.57701611629E+02 -0.12084624254E+03 -0.23893774928E+02  0.13609436139E+03  0.41800000000E+01 0.  1.
        -11    1    4    4    0    0  0.58102801554E+02  0.24794575018E+02  0.53026867817E+02  0.82477604289E+02  0.00000000000E+00 0.  1.
         11    1    4    4    0    0  0.20460023266E+03  0.24451595837E+03  0.10534171832E+03  0.33577698956E+03  0.00000000000E+00 0. -1.
</event>
<event>
 8    1  0.6834011E-009  0.1107178E+03  0.7561462E-02  0.1259246E+00
          2   -1    0    0  501    0  0.00000000000E+00  0.00000000000E+00  0.39605269778E+03  0.39605269778E+03  0.00000000000E+00 0. -1.
         -2   -1    0    0    0  501 -0.00000000000E+00 -0.00000000000E+00 -0.49647783258E+02  0.49647783258E+02  0.00000000000E+00 0.  1.
         25    2    1    2    0    0  0.62198447829E+02 -0.43199074846E+02  0.11916186785E+03  0.18863452893E+03  0.12509447540E+03 0.  0.
         23    2    1    2    0    0 -0.62198447829E+02  0.43199074846E+02  0.22724304667E+03  0.25706595211E+03  0.93320386267E+02 0.  0.
          5    1    3    3  502    0  0.78895252571E+02 -0.22312143121E+02  0.18175158577E+02  0.84083894999E+02  0.41800000000E+01 0. -1.
         -5    1    3    3    0  502 -0.16696804741E+02 -0.20886931724E+02  0.10098670927E+03  0.10455063393E+03  0.41800000000E+01 0. -1.
        -11    1    4    4    0    0  0.20511650738E+02  0.12673178754E+02  0.18253037934E+02  0.30240877460E+02  0.00000000000E+00 0.  1.
         11    1    4    4    0    0 -0.82710098567E+02  0.30525896091E+02  0.20899000874E+03  0.22682507465E+03  0.00000000000E+00 0. -1.
</event>
<event>
 8    1  0.6834011E-009  0.1195270E+03  0.7561462E-02  0.1243879E+00
          1   -1    0    0  501    0  0.00000000000E+00  0.00000000000E+00  0.93810323161E+03  0.93810323161E+03  0.00000000000E+00 0. -1.
         -1   -1    0    0    0  501 -0.00000000000E+00 -0.00000000000E+00 -0.20302437379E+02  0.20302437379E+02  0.00000000000E+00 0.  1.
         25    2    1    2    0    0 -0.51937003652E+02  0.63926042106E+02  0.57664864199E+03  0.59578114877E+03  0.12509008643E+03 0.  0.
         23    2    1    2    0    0  0.51937003652E+02 -0.63926042106E+02  0.34115215224E+03  0.36262452021E+03  0.91256563995E+02 0.  0.
          5    1    3    3  502    0 -0.69999549160E+02  0.78443467497E+02  0.29596596881E+03  0.31411246644E+03  0.41800000000E+01 0. -1.
         -5    1    3    3    0  502  0.18062545508E+02 -0.14517425390E+02  0.28068267317E+03  0.28166868234E+03  0.41800000000E+01 0. -1.
        -11    1    4    4    0    0  0.68970387105E+02 -0.36577055289E+02  0.15334928382E+03  0.17207788388E+03  0.00000000000E+00 0.  1.
         11    1    4    4    0    0 -0.17033383452E+02 -0.27348986817E+02  0.18780286842E+03  0.19054663634E+03  0.00000000000E+00 0. -1.
</event>
<event>
 8    1  0.6834011E-009  0.2040955E+03  0.7561462E-02  0.1146329E+00
         -2   -1    0    0    0  501 -0.00000000000E+00  0.00000000000E+00  0.19544273881E+03  0.19544273881E+03  0.00000000000E+00 0.  1.
          2   -1    0    0  501    0  0.00000000000E+00 -0.00000000000E+00 -0.22753323682E+03  0.22753323682E+03  0.00000000000E+00 0. -1.
         25    2    1    2    0    0  0.14284422746E+03 -0.10058662345E+03 -0.62863677311E+02  0.22387907567E+03  0.12509139244E+03 0.  0.
         23    2    1    2    0    0 -0.14284422746E+03  0.10058662345E+03  0.30773179303E+02  0.19909689997E+03  0.90390513213E+02 0.  0.
          5    1    3    3  502    0  0.13459112372E+03 -0.23270218301E+02 -0.46179077699E+02  0.14424372868E+03  0.41800000000E+01 0. -1.
         -5    1    3    3    0  502  0.82531037314E+01 -0.77316405146E+02 -0.16684599612E+02  0.79635346990E+02  0.41800000000E+01 0. -1.
        -11    1    4    4    0    0 -0.65295276479E+02  0.95850686005E+02  0.35416572326E+02  0.12126483717E+03  0.00000000000E+00 0.  1.
         11    1    4    4    0    0 -0.77548950977E+02  0.47359374422E+01 -0.46433930229E+01  0.77832062801E+02  0.00000000000E+00 0. -1.
</event>
<event>
 8    1  0.6834011E-009  0.8648685E+02  0.7561462E-02  0.1311589E+00
          2   -1    0    0  501    0  0.00000000000E+00  0.00000000000E+00  0.31949541537E+03  0.31949541537E+03  0.00000000000E+00 0. -1.
         -2   -1    0    0    0  501 -0.00000000000E+00 -0.00000000000E+00 -0.58095324843E+02  0.58095324843E+02  0.00000000000E+00 0.  1.
         25    2    1    2    0    0  0.66568239940E+02  0.27694213067E+01  0.21061561119E+03  0.25386142877E+03  0.12509072339E+03 0.  0.
         23    2    1    2    0    0 -0.66568239940E+02 -0.27694213067E+01  0.50784479338E+02  0.12372931144E+03  0.91054263518E+02 0.  0.
          5    1    3    3  502    0  0.86821480062E+01  0.19391749285E+00  0.19287983077E+03  0.19312047746E+03  0.41800000000E+01 0.  1.
         -5    1    3    3    0  502  0.57886091934E+02  0.25755038139E+01  0.17735780424E+02  0.60740951314E+02  0.41800000000E+01 0.  1.
        -11    1    4    4    0    0  0.18316079163E+02 -0.84425109955E+01  0.30007454216E+02  0.36155249361E+02  0.00000000000E+00 0. -1.
         11    1    4    4    0    0 -0.84884319103E+02  0.56730896888E+01  0.20777025122E+02  0.87574062079E+02  0.00000000000E+00 0.  1.
</event>
<event>
 8    1  0.6834011E-009  0.9928011E+02  0.7561462E-02  0.1281817E+00
         -2   -1    0    0    0  501 -0.00000000000E+00  0.00000000000E+00  0.24667019404E+02  0.24667019404E+02  0.00000000000E+00 0.  1.
          2   -1    0    0  501    0  0.00000000000E+00 -0.00000000000E+00 -0.64360276250E+03  0.64360276250E+03  0.00000000000E+00 0. -1.
         25    2    1    2    0    0 -0.49445882179E+02  0.28090059658E+02 -0.44521909981E+03  0.46594369710E+03  0.12509810274E+03 0.  0.
         23    2    1    2    0    0  0.49445882179E+02 -0.28090059658E+02 -0.17371664328E+03  0.20232608480E+03  0.86743447725E+02 0.  0.
          5    1    3    3  502    0 -0.60480258939E+02 -0.21320467666E+02 -0.36762388736E+03  0.37319863213E+03  0.41800000000E+01 0.  1.
         -5    1    3    3    0  502  0.11034376760E+02  0.49410527324E+02 -0.77595212455E+02  0.92745064973E+02  0.41800000000E+01 0.  1.
        -11    1    4    4    0    0  0.25507105872E+02 -0.46674961387E+02 -0.43745089879E+02  0.68867970487E+02  0.00000000000E+00 0.  1.
         11    1    4    4    0    0  0.23938776307E+02  0.18584901729E+02 -0.12997155340E+03  0.13345811431E+03  0.00000000000E+00 0. -1.
</event>
<event>
 8    1  0.6834011E-009  0.1581315E+03  0.7561462E-02  0.1190823E+00
         -1   -1    0    0    0  501 -0.00000000000E+00  0.00000000000E+00  0.25606152097E+03  0.25606152097E+03  0.00000000000E+00 0.  1.
          1   -1    0    0  501    0  0.00000000000E+00 -0.00000000000E+00 -0.10730138346E+03  0.10730138346E+03  0.00000000000E+00 0. -1.
         25    2    1    2    0    0  0.57072173468E+02 -0.10615820749E+03  0.43123263203E+02  0.17897992754E+03  0.12508957043E+03 0.  0.
         23    2    1    2    0    0 -0.57072173468E+02  0.10615820749E+03  0.10563687431E+03  0.18438297689E+03  0.91165426300E+02 0.  0.
          5    1    3    3  502    0  0.73494378789E+02 -0.12214543875E+03  0.16439596403E+02  0.14355718252E+03  0.41800000000E+01 0.  1.
         -5    1    3    3    0  502 -0.16422205321E+02  0.15987231266E+02  0.26683666800E+02  0.35422745024E+02  0.41800000000E+01 0.  1.
        -11    1    4    4    0    0 -0.25558087232E+02  0.11485245912E+03  0.90046604291E+02  0.14816441588E+03  0.00000000000E+00 0.  1.
         11    1    4    4    0    0 -0.31514086237E+02 -0.86942516291E+01  0.15590270020E+02  0.36218561015E+02  0.00000000000E+00 0. -1.
</event>
<event>
 8    1  0.6834011E-009  0.1269543E+03  0.7561462E-02  0.1232046E+00
          2   -1    0    0  501    0  0.00000000000E+00  0.00000000000E+00  0.78590655481E+03  0.78590655481E+03  0.00000000000E+00 0. -1.
         -2   -1    0    0    0  501 -0.00000000000E+00 -0.00000000000E+00 -0.26619488563E+02  0.26619488563E+02  0.00000000000E+00 0.  1.
         25    2    1    2    0    0 -0.69678808363E+02  0.68396594047E+02  0.39875031600E+03  0.42916396669E+03  0.12508663152E+03 0.  0.
         23    2    1    2    0    0  0.69678808363E+02 -0.68396594047E+02  0.36053675025E+03  0.38336207669E+03  0.86293123406E+02 0.  0.
          5    1    3    3  502    0 -0.51195388853E+02  0.97276942863E+02  0.20786939670E+03  0.23518275859E+03  0.41800000000E+01 0.  1.
         -5    1    3    3    0  502 -0.18483419510E+02 -0.28880348817E+02  0.19088091929E+03  0.19398120810E+03  0.41800000000E+01 0.  1.
        -11    1    4    4    0    0  0.16852863633E+02  0.61968448717E+01  0.89019638545E+01  0.20041578268E+02  0.00000000000E+00 0.  1.
         11    1    4    4    0    0  0.52825944730E+02 -0.74593438918E+02  0.35163478640E+03  0.36332049842E+03  0.00000000000E+00 0. -1.
</event>
<event>
 8    1  0.6834011E-009  0.7087716E+02  0.7561462E-02  0.1357135E+00
          4   -1    0    0  501    0  0.00000000000E+00  0.00000000000E+00  0.81127349788E+02  0.81127349788E+02  0.00000000000E+00 0.  1.
         -4   -1    0    0    0  501 -0.00000000000E+00 -0.00000000000E+00 -0.17808235459E+03  0.17808235459E+03  0.00000000000E+00 0. -1.
         25    2    1    2    0    0  0.47226118871E+02 -0.25681073209E+01 -0.77089567020E+02  0.15436851179E+03  0.12509969868E+03 0.  0.
         23    2    1    2    0    0 -0.47226118871E+02  0.25681073209E+01 -0.19865437784E+02  0.10484119259E+03  0.91433793349E+02 0.  0.
          5    1    3    3  502    0 -0.17498706427E+02  0.12388137295E+02 -0.84609163649E+02  0.87383371676E+02  0.41800000000E+01 0.  1.
         -5    1    3    3    0  502  0.64724825298E+02 -0.14956244616E+02  0.75195966284E+01  0.66985140116E+02  0.41800000000E+01 0.  1.
        -11    1    4    4    0    0 -0.22940249400E+02 -0.11096173321E+02  0.35006264733E+02  0.43299176383E+02  0.00000000000E+00 0.  1.
         11    1    4    4    0    0 -0.24285869471E+02  0.13664280642E+02 -0.54871702517E+02  0.61542016205E+02  0.00000000000E+00 0. -1.
</event>
<event>
 8    1  0.6834011E-009  0.1064798E+03  0.7561462E-02  0.1267231E+00
          2   -1    0    0  501    0  0.00000000000E+00  0.00000000000E+00  0.11202721399E+04  0.11202721399E+04  0.00000000000E+00 0.  1.
         -2   -1    0    0    0  501 -0.00000000000E+00 -0.00000000000E+00 -0.12068613462E+02  0.12068613462E+02  0.00000000000E+00 0. -1.
         25    2    1    2    0    0 -0.31538476945E+02  0.21357280815E+02  0.69190467892E+03  0.70415056125E+03  0.12508045097E+03 0.  0.
         23    2    1    2    0    0  0.31538476945E+02 -0.21357280815E+02  0.41629884752E+03  0.42819019212E+03  0.92689272363E+02 0.  0.
          5    1    3    3  502    0  0.14635373987E+02  0.54009280632E+02  0.16664270430E+03  0.17583645771E+03  0.41800000000E+01 0. -1.
         -5    1    3    3    0  502 -0.46173850932E+02 -0.32651999816E+02  0.52526197463E+03  0.52831410353E+03  0.41800000000E+01 0. -1.
        -11    1    4    4    0    0 -0.84823339727E+01 -0.50134431879E+02  0.20334705112E+03  0.20960781104E+03  0.00000000000E+00 0.  1.
         11    1    4    4    0    0  0.40020810918E+02  0.28777151064E+02  0.21295179641E+03  0.21858238109E+03  0.00000000000E+00 0. -1.
</event>
<event>
 8    1  0.6834011E-009  0.6452823E+02  0.7561462E-02  0.1379755E+00
         -1   -1    0    0    0  501 -0.00000000000E+00  0.00000000000E+00  0.24660204930E+02  0.24660204930E+02  0.00000000000E+00 0.  1.
          1   -1    0    0  501    0  0.00000000000E+00 -0.00000000000E+00 -0.59469314936E+03  0.59469314936E+03  0.00000000000E+00 0. -1.
         25    2    1    2    0    0  0.48457752377E+02 -0.21611066530E+02 -0.35673621793E+03  0.38173680451E+03  0.12508823594E+03 0.  0.
         23    2    1    2    0    0 -0.48457752377E+02  0.21611066530E+02 -0.21329672650E+03  0.23761654978E+03  0.90282552207E+02 0.  0.
          5    1    3    3  502    0  0.44215734109E-01 -0.13793549604E+02 -0.31998932145E+03  0.32031375589E+03  0.41800000000E+01 0.  1.
         -5    1    3    3    0  502  0.48413536643E+02 -0.78175169260E+01 -0.36746896472E+02  0.61423048618E+02  0.41800000000E+01 0.  1.
        -11    1    4    4    0    0 -0.39271536805E+02 -0.27715999060E+01 -0.20713365578E+03  0.21084185240E+03  0.00000000000E+00 0. -1.
         11    1    4    4    0    0 -0.91862155716E+01  0.24382666436E+02 -0.61630707231E+01  0.26774697380E+02  0.00000000000E+00 0.  1.
</event>
<event>
 8    1  0.6834011E-009  0.9632474E+02  0.7561462E-02  0.1288220E+00
          2   -1    0    0  501    0  0.00000000000E+00  0.00000000000E+00  0.15294307521E+03  0.15294307521E+03  0.00000000000E+00 0. -1.
         -2   -1    0    0    0  501 -0.00000000000E+00 -0.00000000000E+00 -0.90952250543E+02  0.90952250543E+02  0.00000000000E+00 0.  1.
         25    2    1    2    0    0  0.36375536894E+02 -0.87289196652E+01  0.61989620530E+02  0.14453215058E+03  0.12508979085E+03 0.  0.
         23    2    1    2    0    0 -0.36375536894E+02  0.87289196652E+01  0.12041393739E-02  0.99363175176E+02  0.92052522272E+02 0.  0.
          5    1    3    3  502    0 -0.21697132146E+02 -0.45422159308E+02  0.56055278034E+02  0.75455978524E+02  0.41800000000E+01 0. -1.
         -5    1    3    3    0  502  0.58072669040E+02  0.36693239643E+02  0.59343424959E+01  0.69076172055E+02  0.41800000000E+01 0. -1.
        -11    1    4    4    0    0 -0.54449142205E+02  0.92845595195E+01 -0.31099148180E+02  0.63388241417E+02  0.00000000000E+00 0.  1.
         11    1    4    4    0    0  0.18073605311E+02 -0.55563985432E+00  0.31100352319E+02  0.35974933759E+02  0.00000000000E+00 0. -1.
</event>
<event>
 8    1  0.6834011E-009  0.1132618E+03  0.7561462E-02  0.1254646E+00
          2   -1    0    0  501    0  0.00000000000E+00  0.00000000000E+00  0.17203383189E+02  0.17203383189E+02  0.00000000000E+00 0. -1.
         -2   -1    0    0    0  501 -0.00000000000E+00 -0.00000000000E+00 -0.80792074714E+03  0.80792074714E+03  0.00000000000E+00 0.  1.
         25    2    1    2    0    0 -0.29366378049E+02 -0.22101654700E+02 -0.45417441443E+03  0.47251723448E+03  0.12508905171E+03 0.  0.
         23    2    1    2    0    0  0.29366378049E+02  0.22101654700E+02 -0.33654294952E+03  0.35260689585E+03  0.98588025779E+02 0.  0.
          5    1    3    3  502    0 -0.73903414197E+02 -0.36883219830E+02 -0.26769896870E+03  0.28018261327E+03  0.41800000000E+01 0. -1.
         -5    1    3    3    0  502  0.44537036147E+02  0.14781565131E+02 -0.18647544573E+03  0.19233462121E+03  0.41800000000E+01 0. -1.
        -11    1    4    4    0    0 -0.56358856253E+01 -0.31879671806E+02 -0.18745027712E+03  0.19022534813E+03  0.00000000000E+00 0. -1.
         11    1    4    4    0    0  0.35002263674E+02  0.53981326506E+02 -0.14909267241E+03  0.16238154772E+03  0.00000000000E+00 0.  1.
</event>
<event>
 8    1  0.6834011E-009  0.1046300E+03  0.7561462E-02  0.1270850E+00
         -1   -1    0    0    0  501 -0.00000000000E+00  0.00000000000E+00  0.14624969170E+03  0.14624969170E+03  0.00000000000E+00 0.  1.
          1   -1    0    0  501    0  0.00000000000E+00 -0.00000000000E+00 -0.13376461560E+03  0.13376461560E+03  0.00000000000E+00 0. -1.
         25    2    1    2    0    0 -0.93764434046E+01 -0.34529618332E+02 -0.74741349300E+02  0.15005173649E+03  0.12509613142E+03 0.  0.
         23    2    1    2    0    0  0.93764434046E+01  0.34529618332E+02  0.87226425404E+02  0.12996257081E+03  0.89451709266E+02 0.  0.
          5    1    3    3  502    0 -0.53405048377E+02  0.21361709980E+02 -0.43478315045E+02  0.72223667344E+02  0.41800000000E+01 0. -1.
         -5    1    3    3    0  502  0.44028604972E+02 -0.55891328313E+02 -0.31263034255E+02  0.77828069147E+02  0.41800000000E+01 0. -1.
        -11    1    4    4    0    0 -0.28023564465E+02 -0.19243692447E+01  0.69247314130E+02  0.74727597824E+02  0.00000000000E+00 0.  1.
         11    1    4    4    0    0  0.37400007870E+02  0.36453987577E+02  0.17979111275E+02  0.55234972990E+02  0.00000000000E+00 0. -1.
</event>
<event>
 8    1  0.6834011E-009  0.1952493E+03  0.7561462E-02  0.1153810E+00
          4   -1    0    0  501    0  0.00000000000E+00  0.00000000000E+00  0.27657720403E+03  0.27657720403E+03  0.00000000000E+00 0. -1.
         -4   -1    0    0    0  501 -0.00000000000E+00 -0.00000000000E+00 -0.22444390884E+03  0.22444390884E+03  0.00000000000E+00 0.  1.
         25    2    1    2    0    0  0.17147149412E+03  0.46541005591E+02  0.16370372962E+03  0.27205613916E+03  0.12508834186E+03 0.  0.
         23    2    1    2    0    0 -0.17147149412E+03 -0.46541005591E+02 -0.11157043444E+03  0.22896497371E+03  0.91697649085E+02 0.  0.
          5    1    3    3  502    0  0.83251145100E+02 -0.36172754214E+02  0.10068767299E+03  0.13562706662E+03  0.41800000000E+01 0.  1.
         -5    1    3    3    0  502  0.88220349017E+02  0.82713759805E+02  0.63016056634E+02  0.13642907255E+03  0.41800000000E+01 0.  1.
        -11    1    4    4    0    0 -0.74228744426E+02 -0.10723592718E+02 -0.99551338779E+02  0.12464096836E+03  0.00000000000E+00 0.  1.
         11    1    4    4    0    0 -0.97242749691E+02 -0.35817412874E+02 -0.12019095662E+02  0.10432400535E+03  0.00000000000E+00 0. -1.
</event>
<event>
 8    1  0.6834011E-009  0.1315523E+03  0.7561462E-02  0.1225170E+00
          1   -1    0    0  501    0  0.00000000000E+00  0.00000000000E+00  0.33780858884E+03  0.33780858884E+03  0.00000000000E+00 0. -1.
         -1   -1    0    0    0  501 -0.00000000000E+00 -0.00000000000E+00 -0.63818294624E+02  0.63818294624E+02  0.00000000000E+00 0.  1.
         25    2    1    2    0    0  0.84431686148E+02 -0.18237842693E+02  0.86894752654E+02  0.17509600786E+03  0.12508631180E+03 0.  0.
         23    2    1    2    0    0 -0.84431686148E+02  0.18237842693E+02  0.18709554156E+03  0.22653087560E+03  0.94075328304E+02 0.  0.
          5    1    3    3  502    0  0.23522416929E+02 -0.68584369082E+02  0.46630072779E+02  0.86307333802E+02  0.41800000000E+01 0.  1.
         -5    1    3    3    0  502  0.60909269219E+02  0.50346526389E+02  0.40264679875E+02  0.88788674062E+02  0.41800000000E+01 0.  1.
        -11    1    4    4    0    0 -0.40473327584E+02 -0.26695511154E+02  0.13949856452E+03  0.14768408873E+03  0.00000000000E+00 0. -1.
         11    1    4    4    0    0 -0.43958358564E+02  0.44933353847E+02  0.47596977038E+02  0.78846786864E+02  0.00000000000E+00 0.  1.
</event>
<event>
 8    1  0.6834011E-009  0.1209882E+03  0.7561462E-02  0.1241476E+00
          2   -1    0    0  501    0  0.00000000000E+00  0.00000000000E+00  0.97514420459E+03  0.97514420459E+03  0.00000000000E+00 0. -1.
         -2   -1    0    0    0  501 -0.00000000000E+00 -0.00000000000E+00 -0.18183264042E+02  0.18183264042E+02  0.00000000000E+00 0.  1.
         25    2    1    2    0    0  0.29833758333E+02 -0.71079501491E+02  0.49370591041E+03  0.51510754875E+03  0.12509161495E+03 0.  0.
         23    2    1    2    0    0 -0.29833758333E+02  0.71079501491E+02  0.46325503013E+03  0.47821991988E+03  0.90259183247E+02 0.  0.
          5    1    3    3  502    0  0.11336818324E+01 -0.95004626725E+02  0.43587289791E+03  0.44612758249E+03  0.41800000000E+01 0.  1.
         -5    1    3    3    0  502  0.28700076500E+02  0.23925125235E+02  0.57833012506E+02  0.68979966252E+02  0.41800000000E+01 0.  1.
        -11    1    4    4    0    0  0.21358419150E+02  0.49138345476E+02  0.13447872429E+03  0.14475940850E+03  0.00000000000E+00 0.  1.
         11    1    4    4    0    0 -0.51192177483E+02  0.21941156015E+02  0.32877630585E+03  0.33346051138E+03  0.00000000000E+00 0. -1.
</event>
<event>
 8    1  0.6834011E-009  0.9457987E+02  0.7561462E-02  0.1292125E+00
          2   -1    0    0  501    0  0.00000000000E+00  0.00000000000E+00  0.21568782507E+03  0.21568782507E+03  0.00000000000E+00 0. -1.
         -2   -1    0    0    0  501 -0.00000000000E+00 -0.00000000000E+00 -0.56038966524E+02  0.56038966524E+02  0.00000000000E+00 0.  1.
         25    2    1    2    0    0  0.12985373671E+02 -0.40546559251E+01  0.11336814549E+03  0.16936711948E+03  0.12509126502E+03 0.  0.
         23    2    1    2    0    0 -0.12985373671E+02  0.40546559251E+01  0.46280713052E+02  0.10235967211E+03  0.90280329584E+02 0.  0.
          5    1    3    3  502    0 -0.36565066973E+02  0.32539767865E+02  0.11827014380E+02  0.50529113238E+02  0.41800000000E+01 0.  1.
         -5    1    3    3    0  502  0.49550440645E+02 -0.36594423790E+02  0.10154113111E+03  0.11883800624E+03  0.41800000000E+01 0.  1.
        -11    1    4    4    0    0 -0.45460974607E+02  0.54614317269E+01 -0.19682259406E-01  0.45787856864E+02  0.00000000000E+00 0.  1.
         11    1    4    4    0    0  0.32475600936E+02 -0.14067758019E+01  0.46300395312E+02  0.56571815247E+02  0.00000000000E+00 0. -1.
</event>
<event>
 8    1  0.6834011E-009  0.1420705E+03  0.7561462E-02  0.1210570E+00
          1   -1    0    0  501    0  0.00000000000E+00  0.00000000000E+00  0.22285308430E+03  0.22285308430E+03  0.00000000000E+00 0. -1.
         -1   -1    0    0    0  501 -0.00000000000E+00 -0.00000000000E+00 -0.13790799998E+03  0.13790799998E+03  0.00000000000E+00 0.  1.
         25    2    1    2    0    0 -0.20308803610E+01 -0.12820404056E+03  0.99127581163E+02  0.20472887378E+03  0.12508890407E+03 0.  0.
         23    2    1    2    0    0  0.20308803610E+01  0.12820404056E+03 -0.14182496846E+02  0.15603221050E+03  0.87775321170E+02 0.  0.
          5    1    3    3  502    0  0.42478960363E+02 -0.66563312980E+02  0.10135402676E+03  0.12855056534E+03  0.41800000000E+01 0.  1.
         -5    1    3    3    0  502 -0.44509840724E+02 -0.61640727576E+02 -0.22264455956E+01  0.76178308443E+02  0.41800000000E+01 0.  1.
        -11    1    4    4    0    0  0.73640113583E+01  0.95715316590E+02 -0.49281147378E+02  0.10790867426E+03  0.00000000000E+00 0.  1.
         11    1    4    4    0    0 -0.53331309973E+01  0.32488723965E+02  0.35098650532E+02  0.48123536241E+02  0.00000000000E+00 0. -1.
</event>
<event>
 8    1  0.6834011E-009  0.9536419E+02  0.7561462E-02  0.1290358E+00
          2   -1    0    0  501    0  0.00000000000E+00  0.00000000000E+00  0.12757973408E+03  0.12757973408E+03  0.00000000000E+00 0.  1.
         -2   -1    0    0    0  501 -0.00000000000E+00 -0.00000000000E+00 -0.14066897035E+03  0.14066897035E+03  0.00000000000E+00 0. -1.
         25    2    1    2    0    0 -0.59457608061E+02 -0.49034163527E+02  0.13091356623E+02  0.14750938605E+03  0.12509228196E+03 0.  0.
         23    2    1    2    0    0  0.59457608061E+02  0.49034163527E+02 -0.26180592898E+02  0.12073931838E+03  0.89179612068E+02 0.  0.
          5    1    3    3  502    0 -0.59130140714E+02 -0.44778697802E+02 -0.46484739422E+02  0.87634517838E+02  0.41800000000E+01 0. -1.
         -5    1    3    3    0  502 -0.32746734741E+00 -0.42554657259E+01  0.59576096045E+02  0.59874868211E+02  0.41800000000E+01 0. -1.
        -11    1    4    4    0    0  0.51742731113E+02 -0.84819674957E+01  0.85252292290E+01  0.53121874299E+02  0.00000000000E+00 0.  1.
         11    1    4    4    0    0  0.77148769482E+01  0.57516131023E+02 -0.34705822127E+02  0.67617444079E+02  0.00000000000E+00 0. -1.
</event>
<event>
 8    1  0.6834011E-009  0.1800414E+03  0.7561462E-02  0.1167763E+00
          1   -1    0    0  501    0  0.00000000000E+00  0.00000000000E+00  0.10042680945E+03  0.10042680945E+03  0.00000000000E+00 0. -1.
         -1   -1    0    0    0  501 -0.00000000000E+00 -0.00000000000E+00 -0.40095564907E+03  0.40095564907E+03  0.00000000000E+00 0.  1.
         25    2    1    2    0    0  0.86514295885E+02  0.14443018063E+03 -0.14036987626E+03  0.25238011959E+03  0.12508885695E+03 0.  0.
         23    2    1    2    0    0 -0.86514295885E+02 -0.14443018063E+03 -0.16015896336E+03  0.24900233893E+03  0.89478884551E+02 0.  0.
          5    1    3    3  502    0  0.32909435600E+02  0.19200034119E+02 -0.10471349430E+03  0.11150811877E+03  0.41800000000E+01 0. -1.
         -5    1    3    3    0  502  0.53604860285E+02  0.12523014651E+03 -0.35656381955E+02  0.14087200082E+03  0.41800000000E+01 0. -1.
        -11    1    4    4    0    0 -0.85022522182E+02 -0.67593020537E+02 -0.12151014644E+03  0.16297963490E+03  0.00000000000E+00 0.  1.
         11    1    4    4    0    0 -0.14917737024E+01 -0.76837160096E+02 -0.38648816917E+02  0.86022704035E+02  0.00000000000E+00 0. -1.
</event>
<event>
 8    1  0.6834011E-009  0.7046970E+02  0.7561462E-02  0.1358503E+00
          1   -1    0    0  501    0  0.00000000000E+00  0.00000000000E+00  0.15020641738E+03  0.15020641738E+03  0.00000000000E+00 0. -1.
         -1   -1    0    0    0  501 -0.00000000000E+00 -0.00000000000E+00 -0.97587482104E+02  0.97587482104E+02  0.00000000000E+00 0.  1.
         25    2    1    2    0    0  0.29128934436E+01 -0.56191382796E+02  0.39346956803E+02  0.14269388930E+03  0.12508959423E+03 0.  0.
         23    2    1    2    0    0 -0.29128934436E+01  0.56191382796E+02  0.13271978475E+02  0.10510001019E+03  0.87771921933E+02 0.  0.
          5    1    3    3  502    0 -0.18236198110E+02 -0.43331527138E+02  0.81182248664E+02  0.93905325002E+02  0.41800000000E+01 0. -1.
         -5    1    3    3    0  502  0.21149091554E+02 -0.12859855658E+02 -0.41835291861E+02  0.48788564297E+02  0.41800000000E+01 0. -1.
        -11    1    4    4    0    0 -0.21021395199E+02  0.34292100490E+02 -0.32169775603E+02  0.51504773317E+02  0.00000000000E+00 0.  1.
         11    1    4    4    0    0  0.18108501755E+02  0.21899282306E+02  0.45441754078E+02  0.53595236869E+02  0.00000000000E+00 0. -1.
</event>
<event>
 8    1  0.6834011E-009  0.1290098E+03  0.7561462E-02  0.1228932E+00
         -2   -1    0    0    0  501 -0.00000000000E+00  0.00000000000E+00  0.64977995572E+03  0.64977995572E+03  0.00000000000E+00 0.  1.
          2   -1    0    0  501    0  0.00000000000E+00 -0.00000000000E+00 -0.45119787601E+02  0.45119787601E+02  0.00000000000E+00 0. -1.
         25    2    1    2    0    0  0.53944514440E+02  0.73376003000E+02  0.12691937934E+03  0.20012589552E+03  0.12509115378E+03 0.  0.
         23    2    1    2    0    0 -0.53944514440E+02 -0.73376003000E+02  0.47774078878E+03  0.49477384779E+03  0.90944217755E+02 0.  0.
          5    1    3    3  502    0  0.90122829242E+02  0.63133322964E+02  0.65895131102E+02  0.12832607499E+03  0.41800000000E+01 0. -1.
         -5    1    3    3    0  502 -0.36178314802E+02  0.10242680037E+02  0.61024248235E+02  0.71799820535E+02  0.41800000000E+01 0. -1.
        -11    1    4    4    0    0  0.12885236196E+02 -0.34342070394E+01  0.88416781613E+01  0.15999948829E+02  0.00000000000E+00 0. -1.
         11    1    4    4    0    0 -0.66829750636E+02 -0.69941795961E+02  0.46889911062E+03  0.47877389897E+03  0.00000000000E+00 0.  1.
</event>
<event>
 8    1  0.6834011E-009  0.5519586E+02  0.7561462E-02  0.1419175E+00
          2   -1    0    0  501    0  0.00000000000E+00  0.00000000000E+00  0.12086625376E+03  0.12086625376E+03  0.00000000000E+00 0. -1.
         -2   -1    0    0    0  501 -0.00000000000E+00 -0.00000000000E+00 -0.10241273586E+03  0.10241273586E+03  0.00000000000E+00 0.  1.
         25    2    1    2    0    0  0.18067696639E+02  0.85977356264E+01  0.37952717779E+02  0.13224028850E+03  0.12508685940E+03 0.  0.
         23    2    1    2    0    0 -0.18067696639E+02 -0.85977356264E+01 -0.19499199875E+02  0.91038701119E+02  0.86645620697E+02 0.  0.
          5    1    3    3  502    0  0.54829408338E+01  0.89710456864E+01 -0.45936114623E+02  0.47308998378E+02  0.41800000000E+01 0. -1.
         -5    1    3    3    0  502  0.12584755806E+02 -0.37331006004E+00  0.83888832402E+02  0.84931290117E+02  0.41800000000E+01 0. -1.
        -11    1    4    4    0    0  0.32575665357E+02  0.59616191805E+01 -0.19326941547E+02  0.38343781064E+02  0.00000000000E+00 0.  1.
         11    1    4    4    0    0 -0.50643361997E+02 -0.14559354807E+02 -0.17225832853E+00  0.52694920055E+02  0.00000000000E+00 0. -1.
</event>
<event>
 8    1  0.6834011E-009  0.1253935E+03  0.7561462E-02  0.1234456E+00
         -3   -1    0    0    0  501 -0.00000000000E+00  0.00000000000E+00  0.18094960558E+03  0.18094960558E+03  0.00000000000E+00 0.  1.
          3   -1    0    0  501    0  0.00000000000E+00 -0.00000000000E+00 -0.95004872992E+02  0.95004872992E+02  0.00000000000E+00 0. -1.
         25    2    1    2    0    0 -0.54380176257E+02  0.46936263981E+02  0.30203324156E+02  0.14737846481E+03  0.12509178492E+03 0.  0.
         23    2    1    2    0    0  0.54380176257E+02 -0.46936263981E+02  0.55741408427E+02  0.12857601376E+03  0.90909131853E+02 0.  0.
          5    1    3    3  502    0 -0.91008400003E+01 -0.41761151378E+02 -0.92992222435E+00  0.42955281496E+02  0.41800000000E+01 0.  1.
         -5    1    3    3    0  502 -0.45279336256E+02  0.88697415359E+02  0.31133246380E+02  0.10442318331E+03  0.41800000000E+01 0.  1.
        -11    1    4    4    0    0  0.26778657432E+02  0.21521517022E+02  0.40673598773E+02  0.53241091517E+02  0.00000000000E+00 0.  1.
         11    1    4    4    0    0  0.27601518825E+02 -0.68457781003E+02  0.15067809654E+02  0.75334922241E+02  0.00000000000E+00 0. -1.
</event>
<event>
 8    1  0.6834011E-009  0.7382347E+02  0.7561462E-02  0.1347554E+00
          1   -1    0    0  501    0  0.00000000000E+00  0.00000000000E+00  0.41888363924E+02  0.41888363924E+02  0.00000000000E+00 0. -1.
         -1   -1    0    0    0  501 -0.00000000000E+00 -0.00000000000E+00 -0.28377791541E+03  0.28377791541E+03  0.00000000000E+00 0.  1.
         25    2    1    2    0    0 -0.45233018729E+00  0.10459002252E+02 -0.11917986391E+03  0.17309287490E+03  0.12509079922E+03 0.  0.
         23    2    1    2    0    0  0.45233018729E+00 -0.10459002252E+02 -0.12270968757E+03  0.15257340443E+03  0.90063205500E+02 0.  0.
          5    1    3    3  502    0 -0.27177381701E+02  0.11755492045E+02  0.16896646535E+02  0.34347790809E+02  0.41800000000E+01 0.  1.
         -5    1    3    3    0  502  0.26725051514E+02 -0.12964897925E+01 -0.13607651045E+03  0.13874508409E+03  0.41800000000E+01 0.  1.
        -11    1    4    4    0    0  0.25091514743E+02  0.32547733719E+02 -0.56640484261E+02  0.69979165040E+02  0.00000000000E+00 0.  1.
         11    1    4    4    0    0 -0.24639184555E+02 -0.43006735972E+02 -0.66069203311E+02  0.82594239391E+02  0.00000000000E+00 0. -1.
</event>
<event>
 8    1  0.6834011E-009  0.1560115E+03  0.7561462E-02  0.1193275E+00
         -1   -1    0    0    0  501 -0.00000000000E+00  0.00000000000E+00  0.32422691567E+02  0.32422691567E+02  0.00000000000E+00 0.  1.
          1   -1    0    0  501    0  0.00000000000E+00 -0.00000000000E+00 -0.99642034676E+03  0.99642034676E+03  0.00000000000E+00 0. -1.
         25    2    1    2    0    0 -0.13339870137E+03 -0.41685936918E+01 -0.65722915560E+03  0.68220905960E+03  0.12508575989E+03 0.  0.
         23    2    1    2    0    0  0.13339870137E+03  0.41685936918E+01 -0.30676849959E+03  0.34663397872E+03  0.90750273630E+02 0.  0.
          5    1    3    3  502    0 -0.59588358272E+02  0.56841537791E+02 -0.38103723576E+03  0.38985712805E+03  0.41800000000E+01 0.  1.
         -5    1    3    3    0  502 -0.73810343102E+02 -0.61010131483E+02 -0.27619191984E+03  0.29235193155E+03  0.41800000000E+01 0.  1.
        -11    1    4    4    0    0  0.26695627395E+02  0.41111883623E+01 -0.62354654724E+01  0.27720739915E+02  0.00000000000E+00 0.  1.
         11    1    4    4    0    0  0.10670307398E+03  0.57405329457E-01 -0.30053303412E+03  0.31891323881E+03  0.00000000000E+00 0. -1.
</event>
<event>
 8    1  0.6834011E-009  0.1141624E+03  0.7561462E-02  0.1253050E+00
          2   -1    0    0  501    0  0.00000000000E+00  0.00000000000E+00  0.76540200796E+03  0.76540200796E+03  0.00000000000E+00 0. -1.
         -2   -1    0    0    0  501 -0.00000000000E+00 -0.00000000000E+00 -0.28742987725E+02  0.28742987725E+02  0.00000000000E+00 0.  1.
         25    2    1    2    0    0  0.97057486119E+02  0.22101605609E+02  0.35023192087E+03  0.38499408376E+03  0.12509760009E+03 0.  0.
         23    2    1    2    0    0 -0.97057486119E+02 -0.22101605609E+02  0.38642709936E+03  0.40915091193E+03  0.90387659705E+02 0.  0.
          5    1    3    3  502    0  0.20474437493E+01  0.60008762023E+01 -0.97244058452E+01  0.12338517340E+02  0.41800000000E+01 0. -1.
         -5    1    3    3    0  502  0.95010042370E+02  0.16100729407E+02  0.35995632672E+03  0.37265556642E+03  0.41800000000E+01 0. -1.
        -11    1    4    4    0    0 -0.25563774326E+02  0.27279314735E+02  0.54857350085E+02  0.66385212424E+02  0.00000000000E+00 0.  1.
         11    1    4    4    0    0 -0.71493711793E+02 -0.49380920345E+02  0.33156974928E+03  0.34276569950E+03  0.00000000000E+00 0. -1.
</event>
<event>
 8    1  0.6834011E-009  0.7268833E+02  0.7561462E-02  0.1351183E+00
         -3   -1    0    0    0  501 -0.00000000000E+00  0.00000000000E+00  0.79896019251E+02  0.79896019251E+02  0.00000000000E+00 0.  1.
          3   -1    0    0  501    0  0.00000000000E+00 -0.00000000000E+00 -0.19415189908E+03  0.19415189908E+03  0.00000000000E+00 0. -1.
         25    2    1    2    0    0  0.82203322510E+01 -0.52375098271E+02 -0.30195229539E+02  0.13917688439E+03  0.12509088089E+03 0.  0.
         23    2    1    2    0    0 -0.82203322510E+01  0.52375098271E+02 -0.84060650293E+02  0.13487103394E+03  0.91177179641E+02 0.  0.
          5    1    3    3  502    0  0.25010869673E+02 -0.53526027970E+02  0.36962732319E+02  0.69816153234E+02  0.41800000000E+01 0.  1.
         -5    1    3    3    0  502 -0.16790537422E+02  0.11509296986E+01 -0.67157961858E+02  0.69360731159E+02  0.41800000000E+01 0.  1.
        -11    1    4    4    0    0  0.16773761891E+02  0.33572890324E+02 -0.94675063014E+02  0.10184235666E+03  0.00000000000E+00 0. -1.
         11    1    4    4    0    0 -0.24994094142E+02  0.18802207947E+02  0.10614412722E+02  0.33028677283E+02  0.00000000000E+00 0.  1.
</event>
<event>
 8    1  0.6834011E-009  0.1239986E+03  0.7561462E-02  0.1236643E+00
         -2   -1    0    0    0  501 -0.00000000000E+00  0.00000000000E+00  0.20065996503E+02  0.20065996503E+02  0.00000000000E+00 0.  1.
          2   -1    0    0  501    0  0.00000000000E+00 -0.00000000000E+00 -0.92725955668E+03  0.92725955668E+03  0.00000000000E+00 0. -1.
         25    2    1    2    0    0  0.73767550135E+02  0.28225992170E+02 -0.41576387976E+03  0.44129823046E+03  0.12508463697E+03 0.  0.
         23    2    1    2    0    0 -0.73767550135E+02 -0.28225992170E+02 -0.49142968041E+03  0.50602732272E+03  0.91225887014E+02 0.  0.
          5    1    3    3  502    0 -0.16835193883E+02 -0.20772253791E+02 -0.23912730469E+02  0.36113728126E+02  0.41800000000E+01 0.  1.
         -5    1    3    3    0  502  0.90602744018E+02  0.48998245962E+02 -0.39185114929E+03  0.40518450234E+03  0.41800000000E+01 0.  1.
        -11    1    4    4    0    0 -0.60207702893E+02  0.23305439545E+02 -0.21399206200E+03  0.22351893342E+03  0.00000000000E+00 0.  1.
         11    1    4    4    0    0 -0.13559847241E+02 -0.51531431715E+02 -0.27743761841E+03  0.28250838930E+03  0.00000000000E+00 0. -1.
</event>
<event>
 8    1  0.6834011E-009  0.1062326E+03  0.7561462E-02  0.1267710E+00
         -1   -1    0    0    0  501 -0.00000000000E+00  0.00000000000E+00  0.20547630491E+03  0.20547630491E+03  0.00000000000E+00 0.  1.
          1   -1    0    0  501    0  0.00000000000E+00 -0.00000000000E+00 -0.59551531972E+02  0.59551531972E+02  0.00000000000E+00 0. -1.
         25    2    1    2    0    0  0.16967027261E+02 -0.15309393753E+02  0.82107083787E+02  0.15136594377E+03  0.12509123940E+03 0.  0.
         23    2    1    2    0    0 -0.16967027261E+02  0.15309393753E+02  0.63817689147E+02  0.11366189311E+03  0.91236346624E+02 0.  0.
          5    1    3    3  502    0 -0.37536337541E+02  0.35212067183E+02  0.43486282395E+02  0.67508484414E+02  0.41800000000E+01 0.  1.
         -5    1    3    3    0  502  0.54503364802E+02 -0.50521460936E+02  0.38620801392E+02  0.83857459358E+02  0.41800000000E+01 0.  1.
        -11    1    4    4    0    0 -0.40461694445E+02  0.36695610918E+02  0.60822889303E+02  0.81750476703E+02  0.00000000000E+00 0.  1.
         11    1    4    4    0    0  0.23494667184E+02 -0.21386217165E+02  0.29947998438E+01  0.31911416403E+02  0.00000000000E+00 0. -1.
</event>
<event>
 8    1  0.6834011E-009  0.1033830E+03  0.7561462E-02  0.1273339E+00
          2   -1    0    0  501    0  0.00000000000E+00  0.00000000000E+00  0.40135254734E+03  0.40135254734E+03  0.00000000000E+00 0. -1.
         -2   -1    0    0    0  501 -0.00000000000E+00 -0.00000000000E+00 -0.39804535952E+02  0.39804535952E+02  0.00000000000E+00 0.  1.
         25    2    1    2    0    0  0.55190571530E+02 -0.26314571320E+02  0.16583071723E+03  0.21652889241E+03  0.12508588498E+03 0.  0.
         23    2    1    2    0    0 -0.55190571530E+02  0.26314571320E+02  0.19571729416E+03  0.22462819089E+03  0.91728452820E+02 0.  0.
          5    1    3    3  502    0 -0.15507923200E+01 -0.40898925143E+02  0.15022456555E+03  0.15575628247E+03  0.41800000000E+01 0.  1.
         -5    1    3    3    0  502  0.56741363850E+02  0.14584353823E+02  0.15606151674E+02  0.60772609933E+02  0.41800000000E+01 0.  1.
        -11    1    4    4    0    0  0.66982993338E+01  0.42415519066E+02  0.52808230345E+02  0.68063592792E+02  0.00000000000E+00 0.  1.
         11    1    4    4    0    0 -0.61888870864E+02 -0.16100947746E+02  0.14290906382E+03  0.15656459809E+03  0.00000000000E+00 0. -1.
</event>
<event>
 8    1  0.6834011E-009  0.1097157E+03  0.7561462E-02  0.1261097E+00
         -1   -1    0    0    0  501 -0.00000000000E+00  0.00000000000E+00  0.50315588091E+02  0.50315588091E+02  0.00000000000E+00 0.  1.
          1   -1    0    0  501    0  0.00000000000E+00 -0.00000000000E+00 -0.63136369124E+03  0.63136369124E+03  0.00000000000E+00 0. -1.
         25    2    1    2    0    0 -0.44149093777E+02  0.59088752547E+02 -0.53497548919E+03  0.55433362185E+03  0.12508543928E+03 0.  0.
         23    2    1    2    0    0  0.44149093777E+02 -0.59088752547E+02 -0.46072613957E+02  0.12734565748E+03  0.93024768548E+02 0.  0.
          5    1    3    3  502    0  0.22497668132E+02  0.44250521952E+02 -0.79989673377E+02  0.94234144615E+02  0.41800000000E+01 0. -1.
         -5    1    3    3    0  502 -0.66646761908E+02  0.14838230595E+02 -0.45498581581E+03  0.46009947723E+03  0.41800000000E+01 0. -1.
        -11    1    4    4    0    0  0.58962612347E+02 -0.62587262429E+02 -0.61466618252E+02  0.10569721014E+03  0.00000000000E+00 0. -1.
         11    1    4    4    0    0 -0.14813518570E+02  0.34985098816E+01  0.15394004294E+02  0.21648447335E+02  0.00000000000E+00 0.  1.
</event>
<event>
 8    1  0.6834011E-009  0.1220919E+03  0.7561462E-02  0.1239685E+00
          2   -1    0    0  501    0  0.00000000000E+00  0.00000000000E+00  0.95094446352E+03  0.95094446352E+03  0.00000000000E+00 0. -1.
         -2   -1    0    0    0  501 -0.00000000000E+00 -0.00000000000E+00 -0.23295551302E+02  0.23295551302E+02  0.00000000000E+00 0.  1.
         25    2    1    2    0    0  0.98081010844E+02  0.26996819509E+02  0.48350078547E+03  0.50967547497E+03  0.12508943712E+03 0.  0.
         23    2    1    2    0    0 -0.98081010844E+02 -0.26996819509E+02  0.44414812674E+03  0.46456453985E+03  0.90575605148E+02 0.  0.
          5    1    3    3  502    0 -0.15482335536E+02  0.42355236109E+01  0.49777740993E+01  0.17317419233E+02  0.41800000000E+01 0.  1.
         -5    1    3    3    0  502  0.11356334638E+03  0.22761295898E+02  0.47852301137E+03  0.49235805573E+03  0.41800000000E+01 0.  1.
        -11    1    4    4    0    0 -0.46959462931E+01 -0.17168480123E+02  0.10078595487E+02  0.20454503374E+02  0.00000000000E+00 0.  1.
         11    1    4    4    0    0 -0.93385064551E+02 -0.98283393868E+01  0.43406953126E+03  0.44411003648E+03  0.00000000000E+00 0. -1.
</event>
<event>
 8    1  0.6834011E-009  0.1747423E+03  0.7561462E-02  0.1172991E+00
         -2   -1    0    0    0  501 -0.00000000000E+00  0.00000000000E+00  0.36882226914E+02  0.36882226914E+02  0.00000000000E+00 0. -1.
          2   -1    0    0  501    0  0.00000000000E+00 -0.00000000000E+00 -0.14611009615E+04  0.14611009615E+04  0.00000000000E+00 0.  1.
         25    2    1    2    0    0  0.17600890370E+02  0.14549424017E+03 -0.12004404943E+04  0.12158053998E+04  0.12508806772E+03 0.  0.
         23    2    1    2    0    0 -0.17600890370E+02 -0.14549424017E+03 -0.22377824027E+03  0.28217778855E+03  0.89828938915E+02 0.  0.
          5    1    3    3  502    0 -0.27747370556E+02  0.14442578891E+03 -0.91667526085E+03  0.92840709353E+03  0.41800000000E+01 0. -1.
         -5    1    3    3    0  502  0.45348260926E+02  0.10684512598E+01 -0.28376523345E+03  0.28739830631E+03  0.41800000000E+01 0. -1.
        -11    1    4    4    0    0 -0.11635173928E+01 -0.13919834974E+03 -0.14323765919E+03  0.19973622944E+03  0.00000000000E+00 0. -1.
         11    1    4    4    0    0 -0.16437372977E+02 -0.62958904364E+01 -0.80540581086E+02  0.82441559110E+02  0.00000000000E+00 0.  1.
</event>
<event>
 8    1  0.6834011E-009  0.1284798E+03  0.7561462E-02  0.1229729E+00
         -1   -1    0    0    0  501 -0.00000000000E+00  0.00000000000E+00  0.54568725727E+02  0.54568725727E+02  0.00000000000E+00 0.  1.
          1   -1    0    0  501    0  0.00000000000E+00 -0.00000000000E+00 -0.42708957824E+03  0.42708957824E+03  0.00000000000E+00 0. -1.
         25    2    1    2    0    0 -0.55521048549E+02 -0.69640844534E+02 -0.29889333862E+03  0.33603140592E+03  0.12508974312E+03 0.  0.
         23    2    1    2    0    0  0.55521048549E+02  0.69640844534E+02 -0.73627513888E+02  0.14562689804E+03  0.88621377626E+02 0.  0.
          5    1    3    3  502    0 -0.10436088693E+02  0.27021060552E+02 -0.15319547223E+02  0.33033476773E+02  0.41800000000E+01 0.  1.
         -5    1    3    3    0  502 -0.45084959856E+02 -0.96661905087E+02 -0.28357379140E+03  0.30299792915E+03  0.41800000000E+01 0.  1.
        -11    1    4    4    0    0 -0.20479776508E+02  0.26731269728E+02 -0.38677237240E+01  0.33896036847E+02  0.00000000000E+00 0. -1.
         11    1    4    4    0    0  0.76000825057E+02  0.42909574806E+02 -0.69759790164E+02  0.11173086119E+03  0.00000000000E+00 0.  1.
</event>
<event>
 8    1  0.6834011E-009  0.1653533E+03  0.7561462E-02  0.1182782E+00
          2   -1    0    0  501    0  0.00000000000E+00  0.00000000000E+00  0.46956987469E+03  0.46956987469E+03  0.00000000000E+00 0. -1.
         -2   -1    0    0    0  501 -0.00000000000E+00 -0.00000000000E+00 -0.62986776178E+02  0.62986776178E+02  0.00000000000E+00 0.  1.
         25    2    1    2    0    0 -0.10765481249E+03 -0.77791945001E+02  0.23948614287E+03  0.30106698122E+03  0.12508624702E+03 0.  0.
         23    2    1    2    0    0  0.10765481249E+03  0.77791945001E+02  0.16709695564E+03  0.23148966965E+03  0.89581969233E+02 0.  0.
          5    1    3    3  502    0 -0.95594807187E+02 -0.12104584637E+01  0.17776214191E+03  0.20188284689E+03  0.41800000000E+01 0. -1.
         -5    1    3    3    0  502 -0.12060005298E+02 -0.76581486537E+02  0.61724000964E+02  0.99184134331E+02  0.41800000000E+01 0. -1.
        -11    1    4    4    0    0  0.21987498977E+02  0.67621020480E+02  0.54213127124E+02  0.89415410722E+02  0.00000000000E+00 0.  1.
         11    1    4    4    0    0  0.85667313509E+02  0.10170924521E+02  0.11288382851E+03  0.14207425892E+03  0.00000000000E+00 0. -1.
</event>
<event>
 8    1  0.6834011E-009  0.2747466E+03  0.7561462E-02  0.1098593E+00
         -2   -1    0    0    0  501 -0.00000000000E+00  0.00000000000E+00  0.78535059836E+02  0.78535059836E+02  0.00000000000E+00 0. -1.
          2   -1    0    0  501    0  0.00000000000E+00 -0.00000000000E+00 -0.10250241652E+04  0.10250241652E+04  0.00000000000E+00 0.  1.
         25    2    1    2    0    0 -0.20865868593E+03 -0.15761044812E+03 -0.46845085023E+03  0.55088377804E+03  0.12508891740E+03 0.  0.
         23    2    1    2    0    0  0.20865868593E+03  0.15761044812E+03 -0.47803825513E+03  0.55267544699E+03  0.92466619751E+02 0.  0.
          5    1    3    3  502    0 -0.96133343435E+02 -0.25457269304E+01 -0.12733825408E+03  0.15962645081E+03  0.41800000000E+01 0. -1.
         -5    1    3    3    0  502 -0.11252534250E+03 -0.15506472119E+03 -0.34111259615E+03  0.39125732723E+03  0.41800000000E+01 0. -1.
        -11    1    4    4    0    0  0.12838544016E+03  0.10145299661E+03 -0.38161166356E+03  0.41521439466E+03  0.00000000000E+00 0.  1.
         11    1    4    4    0    0  0.80273245770E+02  0.56157451506E+02 -0.96426591564E+02  0.13746105233E+03  0.00000000000E+00 0. -1.
</event>
<event>
 8    1  0.6834011E-009  0.5827287E+02  0.7561462E-02  0.1405226E+00
         -3   -1    0    0    0  501 -0.00000000000E+00  0.00000000000E+00  0.83024903833E+02  0.83024903833E+02  0.00000000000E+00 0.  1.
          3   -1    0    0  501    0  0.00000000000E+00 -0.00000000000E+00 -0.21498412844E+03  0.21498412844E+03  0.00000000000E+00 0. -1.
         25    2    1    2    0    0  0.44829794818E+02  0.96962220823E+01  0.89087337854E+00  0.13324283283E+03  0.12509648923E+03 0.  0.
         23    2    1    2    0    0 -0.44829794818E+02 -0.96962220823E+01 -0.13285009798E+03  0.16476619944E+03  0.85994329573E+02 0.  0.
          5    1    3    3  502    0 -0.38269324191E+01  0.12477070865E+02 -0.56324794637E+02  0.57967901463E+02  0.41800000000E+01 0. -1.
         -5    1    3    3    0  502  0.48656727237E+02 -0.27808487827E+01  0.57215668016E+02  0.75274931364E+02  0.41800000000E+01 0. -1.
        -11    1    4    4    0    0 -0.33019605475E+02  0.67272024353E+01 -0.13946877777E+03  0.14348201829E+03  0.00000000000E+00 0. -1.
         11    1    4    4    0    0 -0.11810189343E+02 -0.16423424518E+02  0.66186797919E+01  0.21284181154E+02  0.00000000000E+00 0.  1.
</event>
<event>
 8    1  0.6834011E-009  0.1746668E+03  0.7561462E-02  0.1173067E+00
         -1   -1    0    0    0  501 -0.00000000000E+00  0.00000000000E+00  0.65763030293E+02  0.65763030293E+02  0.00000000000E+00 0.  1.
          1   -1    0    0  501    0  0.00000000000E+00 -0.00000000000E+00 -0.52654781046E+03  0.52654781046E+03  0.00000000000E+00 0. -1.
         25    2    1    2    0    0  0.11371158952E+03 -0.88142754021E+02 -0.17033356461E+03  0.25565628303E+03  0.12508853322E+03 0.  0.
         23    2    1    2    0    0 -0.11371158952E+03  0.88142754021E+02 -0.29045121555E+03  0.33665455772E+03  0.90966542974E+02 0.  0.
          5    1    3    3  502    0  0.94834804839E+02 -0.39403409439E+01 -0.49544258098E+02  0.10715069951E+03  0.41800000000E+01 0.  1.
         -5    1    3    3    0  502  0.18876784677E+02 -0.84202413077E+02 -0.12078930651E+03  0.14850558352E+03  0.41800000000E+01 0.  1.
        -11    1    4    4    0    0 -0.20631497791E+02 -0.17556347700E+02 -0.69940140464E+02  0.75003381882E+02  0.00000000000E+00 0. -1.
         11    1    4    4    0    0 -0.93080091725E+02  0.10569910172E+03 -0.22051107509E+03  0.26165117584E+03  0.00000000000E+00 0.  1.
</event>
<event>
 8    1  0.6834011E-009  0.9255527E+02  0.7561462E-02  0.1296779E+00
         -2   -1    0    0    0  501 -0.00000000000E+00  0.00000000000E+00  0.13471963685E+03  0.13471963685E+03  0.00000000000E+00 0.  1.
          2   -1    0    0  501    0  0.00000000000E+00 -0.00000000000E+00 -0.12754599795E+03  0.12754599795E+03  0.00000000000E+00 0. -1.
         25    2    1    2    0    0 -0.42568911237E+02  0.43477665824E+02 -0.31816420856E+02  0.14270579904E+03  0.12510092252E+03 0.  0.
         23    2    1    2    0    0  0.42568911237E+02 -0.43477665824E+02  0.38990059747E+02  0.11955983576E+03  0.95246574417E+02 0.  0.
          5    1    3    3  502    0 -0.44618413972E+02 -0.19747123450E+02 -0.56414578117E+02  0.74704944777E+02  0.41800000000E+01 0.  1.
         -5    1    3    3    0  502  0.20495027352E+01  0.63224789274E+02  0.24598157261E+02  0.68000854266E+02  0.41800000000E+01 0.  1.
        -11    1    4    4    0    0 -0.34344834194E+01 -0.21476113610E+02 -0.27946260009E+02  0.35412040052E+02  0.00000000000E+00 0. -1.
         11    1    4    4    0    0  0.46003394657E+02 -0.22001552214E+02  0.66936319756E+02  0.84147795707E+02  0.00000000000E+00 0.  1.
</event>
<event>
 8    1  0.6834011E-009  0.1153727E+03  0.7561462E-02  0.1250932E+00
         -1   -1    0    0    0  501 -0.00000000000E+00  0.00000000000E+00  0.25719937469E+03  0.25719937469E+03  0.00000000000E+00 0.  1.
          1   -1    0    0  501    0  0.00000000000E+00 -0.00000000000E+00 -0.84238492755E+02  0.84238492755E+02  0.00000000000E+00 0. -1.
         25    2    1    2    0    0 -0.95946626173E+02 -0.14110002564E+02  0.83288452887E+02  0.17885601566E+03  0.12509060999E+03 0.  0.
         23    2    1    2    0    0  0.95946626173E+02  0.14110002564E+02  0.89672429052E+02  0.16258185179E+03  0.94799086245E+02 0.  0.
          5    1    3    3  502    0  0.64748389257E+01 -0.45155359568E+01  0.75041761821E+02  0.75571502706E+02  0.41800000000E+01 0.  1.
         -5    1    3    3    0  502 -0.10242146510E+03 -0.95944666069E+01  0.82466910664E+01  0.10328451295E+03  0.41800000000E+01 0.  1.
        -11    1    4    4    0    0  0.36679369786E+01  0.25605100161E+02  0.59398309906E+02  0.64786064363E+02  0.00000000000E+00 0.  1.
         11    1    4    4    0    0  0.92278689195E+02 -0.11495097598E+02  0.30274119146E+02  0.97795787426E+02  0.00000000000E+00 0. -1.
</event>
<event>
 8    1  0.6834011E-009  0.1187557E+03  0.7561462E-02  0.1245164E+00
         -1   -1    0    0    0  501 -0.00000000000E+00  0.00000000000E+00  0.21427627475E+02  0.21427627475E+02  0.00000000000E+00 0.  1.
          1   -1    0    0  501    0  0.00000000000E+00 -0.00000000000E+00 -0.92941361663E+03  0.92941361663E+03  0.00000000000E+00 0. -1.
         25    2    1    2    0    0 -0.57698490904E+02 -0.20304679502E+02 -0.71662141928E+03  0.73002412786E+03  0.12509025871E+03 0.  0.
         23    2    1    2    0    0  0.57698490904E+02  0.20304679502E+02 -0.19136456988E+03  0.22081711625E+03  0.91642808562E+02 0.  0.
          5    1    3    3  502    0  0.12746359669E+02  0.36042272422E+02 -0.10598966911E+03  0.11275104187E+03  0.41800000000E+01 0.  1.
         -5    1    3    3    0  502 -0.70444850573E+02 -0.56346951925E+02 -0.61063175017E+03  0.61727308598E+03  0.41800000000E+01 0.  1.
        -11    1    4    4    0    0 -0.22060725235E+02  0.18785751447E+02 -0.67883904000E+02  0.73809243849E+02  0.00000000000E+00 0.  1.
         11    1    4    4    0    0  0.79759216139E+02  0.15189280554E+01 -0.12348066588E+03  0.14700787240E+03  0.00000000000E+00 0. -1.
</event>
<event>
 8    1  0.6834011E-009  0.6884267E+02  0.7561462E-02  0.1364073E+00
          1   -1    0    0  501    0  0.00000000000E+00  0.00000000000E+00  0.52211661286E+03  0.52211661286E+03  0.00000000000E+00 0. -1.
         -1   -1    0    0    0  501 -0.00000000000E+00 -0.00000000000E+00 -0.23218750259E+02  0.23218750259E+02  0.00000000000E+00 0.  1.
         25    2    1    2    0    0  0.10759395527E+02 -0.10409047742E+02  0.27460205192E+03  0.30212599304E+03  0.12509882447E+03 0.  0.
         23    2    1    2    0    0 -0.10759395527E+02  0.10409047742E+02  0.22429581068E+03  0.24320937008E+03  0.92833583032E+02 0.  0.
          5    1    3    3  502    0  0.35717342416E+02 -0.25815824910E+01  0.11716997949E+02  0.37909808208E+02  0.41800000000E+01 0. -1.
         -5    1    3    3    0  502 -0.24957946889E+02 -0.78274652512E+01  0.26288505397E+03  0.26421618483E+03  0.41800000000E+01 0. -1.
        -11    1    4    4    0    0  0.20279088924E+02 -0.22238236786E+02  0.25722882579E+02  0.39591000380E+02  0.00000000000E+00 0.  1.
         11    1    4    4    0    0 -0.31038484451E+02  0.32647284528E+02  0.19857292810E+03  0.20361836970E+03  0.00000000000E+00 0. -1.
</event>
<event>
 8    1  0.6834011E-009  0.1449400E+03  0.7561462E-02  0.1206832E+00
          2   -1    0    0  501    0  0.00000000000E+00  0.00000000000E+00  0.65122222504E+03  0.65122222504E+03  0.00000000000E+00 0.  1.
         -2   -1    0    0    0  501 -0.00000000000E+00 -0.00000000000E+00 -0.40983061891E+02  0.40983061891E+02  0.00000000000E+00 0. -1.
         25    2    1    2    0    0  0.10923209483E+03  0.55508574793E+02  0.39576045657E+03  0.43276642676E+03  0.12509032228E+03 0.  0.
         23    2    1    2    0    0 -0.10923209483E+03 -0.55508574793E+02  0.21447870657E+03  0.25943886016E+03  0.79338226445E+02 0.  0.
          5    1    3    3  502    0 -0.20712293059E+02  0.25883229291E+02  0.14452736509E+03  0.14833938216E+03  0.41800000000E+01 0. -1.
         -5    1    3    3    0  502  0.12994438789E+03  0.29625345502E+02  0.25123309149E+03  0.28442704460E+03  0.41800000000E+01 0. -1.
        -11    1    4    4    0    0 -0.66903831306E+02 -0.27316404326E+02  0.18943244133E+03  0.20274851027E+03  0.00000000000E+00 0.  1.
         11    1    4    4    0    0 -0.42328263523E+02 -0.28192170467E+02  0.25046265237E+02  0.56690349891E+02  0.00000000000E+00 0. -1.
</event>
<event>
 8    1  0.6834011E-009  0.8913316E+02  0.7561462E-02  0.1304965E+00
         -3   -1    0    0    0  501 -0.00000000000E+00  0.00000000000E+00  0.62475048981E+02  0.62475048981E+02  0.00000000000E+00 0.  1.
          3   -1    0    0  501    0  0.00000000000E+00 -0.00000000000E+00 -0.20653588669E+03  0.20653588669E+03  0.00000000000E+00 0. -1.
         25    2    1    2    0    0 -0.39939711706E+02 -0.95673258901E+01 -0.67882615888E+02  0.14811799656E+03  0.12507668475E+03 0.  0.
         23    2    1    2    0    0  0.39939711706E+02  0.95673258901E+01 -0.76178221817E+02  0.12089293911E+03  0.84411296351E+02 0.  0.
          5    1    3    3  502    0  0.44965790315E+02  0.18303322984E+01 -0.30692500269E+02  0.54633088762E+02  0.41800000000E+01 0.  1.
         -5    1    3    3    0  502 -0.84905502021E+02 -0.11397658188E+02 -0.37190115620E+02  0.93484907795E+02  0.41800000000E+01 0.  1.
        -11    1    4    4    0    0  0.17055825067E+02  0.16149925227E+02  0.14188601122E+02  0.27441531578E+02  0.00000000000E+00 0.  1.
         11    1    4    4    0    0  0.22883886639E+02 -0.65825993366E+01 -0.90366822939E+02  0.93451407533E+02  0.00000000000E+00 0. -1.
</event>
<event>
 8    1  0.6834011E-009  0.2321754E+03  0.7561462E-02  0.1125118E+00
          2   -1    0    0  501    0  0.00000000000E+00  0.00000000000E+00  0.14583245621E+04  0.14583245621E+04  0.00000000000E+00 0. -1.
         -2   -1    0    0    0  501 -0.00000000000E+00 -0.00000000000E+00 -0.38953661627E+02  0.38953661627E+02  0.00000000000E+00 0.  1.
         25    2    1    2    0    0 -0.21030068829E+03  0.13788381382E+02  0.66015798229E+03  0.70418273634E+03  0.12509302788E+03 0.  0.
         23    2    1    2    0    0  0.21030068829E+03 -0.13788381382E+02  0.75921291816E+03  0.79309548736E+03  0.90441682969E+02 0.  0.
          5    1    3    3  502    0 -0.98032170290E+02  0.58628554898E+02  0.22286256085E+03  0.25046518179E+03  0.41800000000E+01 0. -1.
         -5    1    3    3    0  502 -0.11226851800E+03 -0.44840173516E+02  0.43729542144E+03  0.45371755455E+03  0.41800000000E+01 0. -1.
        -11    1    4    4    0    0  0.12580936650E+03  0.36198372744E+02  0.41525256837E+03  0.43539983283E+03  0.00000000000E+00 0.  1.
         11    1    4    4    0    0  0.84491321789E+02 -0.49986754126E+02  0.34396034979E+03  0.35769565453E+03  0.00000000000E+00 0. -1.
</event>
<event>
 8    1  0.6834011E-009  0.1250374E+03  0.7561462E-02  0.1235011E+00
         -4   -1    0    0    0  501 -0.00000000000E+00  0.00000000000E+00  0.75939956181E+03  0.75939956181E+03  0.00000000000E+00 0.  1.
          4   -1    0    0  501    0  0.00000000000E+00 -0.00000000000E+00 -0.26622609200E+02  0.26622609200E+02  0.00000000000E+00 0. -1.
         25    2    1    2    0    0  0.69354421554E+01  0.63948794392E+02  0.58697781615E+03  0.60359677311E+03  0.12509420125E+03 0.  0.
         23    2    1    2    0    0 -0.69354421554E+01 -0.63948794392E+02  0.14579913645E+03  0.18242539790E+03  0.88792392391E+02 0.  0.
          5    1    3    3  502    0 -0.45083442667E+02 -0.13416202933E+02  0.18563506111E+03  0.19154727776E+03  0.41800000000E+01 0.  1.
         -5    1    3    3    0  502  0.52018884822E+02  0.77364997325E+02  0.40134275504E+03  0.41204949534E+03  0.41800000000E+01 0.  1.
        -11    1    4    4    0    0  0.36921507603E+02 -0.52538232654E+02  0.81391043979E+02  0.10367239582E+03  0.00000000000E+00 0.  1.
         11    1    4    4    0    0 -0.43856949758E+02 -0.11410561738E+02  0.64408092472E+02  0.78753002084E+02  0.00000000000E+00 0. -1.
</event>
<event>
 8    1  0.6834011E-009  0.1433082E+03  0.7561462E-02  0.1208946E+00
          1   -1    0    0  501    0  0.00000000000E+00  0.00000000000E+00  0.39262785563E+03  0.39262785563E+03  0.00000000000E+00 0. -1.
         -1   -1    0    0    0  501 -0.00000000000E+00 -0.00000000000E+00 -0.79962370889E+02  0.79962370889E+02  0.00000000000E+00 0.  1.
         25    2    1    2    0    0  0.42481373901E+02 -0.12471721599E+03  0.10411608453E+03  0.20939642810E+03  0.12509058299E+03 0.  0.
         23    2    1    2    0    0 -0.42481373901E+02  0.12471721599E+03  0.20854940021E+03  0.26319379842E+03  0.91755501771E+02 0.  0.
          5    1    3    3  502    0 -0.27331840951E+01 -0.45930110416E+02  0.10894134963E+03  0.11833315426E+03  0.41800000000E+01 0.  1.
         -5    1    3    3    0  502  0.45214557996E+02 -0.78787105572E+02 -0.48252651002E+01  0.91063273840E+02  0.41800000000E+01 0.  1.
        -11    1    4    4    0    0 -0.13506334785E+02  0.11922706635E+03  0.11932337424E+03  0.16922051314E+03  0.00000000000E+00 0. -1.
         11    1    4    4    0    0 -0.28975039116E+02  0.54901496429E+01  0.89226025968E+02  0.93973285272E+02  0.00000000000E+00 0.  1.
</event>
<event>
 8    1  0.6834011E-009  0.1437164E+03  0.7561462E-02  0.1208414E+00
          2   -1    0    0  501    0  0.00000000000E+00  0.00000000000E+00  0.61409538067E+03  0.61409538067E+03  0.00000000000E+00 0.  1.
         -2   -1    0    0    0  501 -0.00000000000E+00 -0.00000000000E+00 -0.63026636270E+02  0.63026636270E+02  0.00000000000E+00 0. -1.
         25    2    1    2    0    0 -0.12150398430E+03 -0.38266342198E+01  0.47753296889E+03  0.50839310067E+03  0.12509175473E+03 0.  0.
         23    2    1    2    0    0  0.12150398430E+03  0.38266342198E+01  0.73535775505E+02  0.16872891626E+03  0.91016897193E+02 0.  0.
          5    1    3    3  502    0 -0.43687625799E+02  0.43695111372E+02  0.32327765798E+03  0.32915617563E+03  0.41800000000E+01 0.  1.
         -5    1    3    3    0  502 -0.77816358500E+02 -0.47521745592E+02  0.15425531091E+03  0.17923692504E+03  0.41800000000E+01 0.  1.
        -11    1    4    4    0    0  0.68222501671E+02  0.30397531421E+02  0.74819370437E+00  0.74691896780E+02  0.00000000000E+00 0. -1.
         11    1    4    4    0    0  0.53281482628E+02 -0.26570897201E+02  0.72787581801E+02  0.94037019485E+02  0.00000000000E+00 0.  1.
</event>
<event>
 8    1  0.6834011E-009  0.1341786E+03  0.7561462E-02  0.1221384E+00
          3   -1    0    0  501    0  0.00000000000E+00  0.00000000000E+00  0.26579471356E+03  0.26579471356E+03  0.00000000000E+00 0. -1.
         -3   -1    0    0    0  501 -0.00000000000E+00 -0.00000000000E+00 -0.69717399130E+02  0.69717399130E+02  0.00000000000E+00 0.  1.
         25    2    1    2    0    0  0.76479929980E+02 -0.23706345402E+02  0.95235362299E+02  0.17643312370E+03  0.12509077665E+03 0.  0.
         23    2    1    2    0    0 -0.76479929980E+02  0.23706345402E+02  0.10084195213E+03  0.15907898899E+03  0.93412284664E+02 0.  0.
          5    1    3    3  502    0 -0.41533570750E+01  0.42667481513E+02  0.37006658308E+02  0.56786701901E+02  0.41800000000E+01 0.  1.
         -5    1    3    3    0  502  0.80633287055E+02 -0.66373826915E+02  0.58228703991E+02  0.11964642180E+03  0.41800000000E+01 0.  1.
        -11    1    4    4    0    0 -0.77884211289E+02 -0.17259411504E+02  0.51591726254E+02  0.95002862438E+02  0.00000000000E+00 0.  1.
         11    1    4    4    0    0  0.14042813093E+01  0.40965756906E+02  0.49250225873E+02  0.64076126548E+02  0.00000000000E+00 0. -1.
</event>
<event>
 8    1  0.6834011E-009  0.1099449E+03  0.7561462E-02  0.1260672E+00
         -1   -1    0    0    0  501 -0.00000000000E+00  0.00000000000E+00  0.36259683160E+02  0.36259683160E+02  0.00000000000E+00 0.  1.
          1   -1    0    0  501    0  0.00000000000E+00 -0.00000000000E+00 -0.35312402344E+03  0.35312402344E+03  0.00000000000E+00 0. -1.
         25    2    1    2    0    0  0.20015185621E+02  0.25563713371E+02 -0.16003434665E+03  0.20569853656E+03  0.12508710860E+03 0.  0.
         23    2    1    2    0    0 -0.20015185621E+02 -0.25563713371E+02 -0.15682999363E+03  0.18368517004E+03  0.89947116100E+02 0.  0.
          5    1    3    3  502    0  0.62251236690E+02  0.48309933435E+02 -0.11697010478E+03  0.14109763978E+03  0.41800000000E+01 0.  1.
         -5    1    3    3    0  502 -0.42236051069E+02 -0.22746220064E+02 -0.43064241869E+02  0.64600896781E+02  0.41800000000E+01 0.  1.
        -11    1    4    4    0    0 -0.54222198290E+02 -0.21700996076E+02 -0.11885716665E+03  0.13243113714E+03  0.00000000000E+00 0.  1.
         11    1    4    4    0    0  0.34207012669E+02 -0.38627172951E+01 -0.37972826975E+02  0.51254032906E+02  0.00000000000E+00 0. -1.
</event>
<event>
 8    1  0.6834011E-009  0.7136464E+02  0.7561462E-02  0.1355513E+00
         -1   -1    0    0    0  501 -0.00000000000E+00  0.00000000000E+00  0.28670040357E+02  0.28670040357E+02  0.00000000000E+00 0.  1.
          1   -1    0    0  501    0  0.00000000000E+00 -0.00000000000E+00 -0.43904994912E+03  0.43904994912E+03  0.00000000000E+00 0. -1.
         25    2    1    2    0    0 -0.11398269990E+02 -0.15408683187E+02 -0.28074347821E+03  0.30795122814E+03  0.12509880206E+03 0.  0.
         23    2    1    2    0    0  0.11398269990E+02  0.15408683187E+02 -0.12963643055E+03  0.15976876133E+03  0.91395322073E+02 0.  0.
          5    1    3    3  502    0 -0.39564425559E+02 -0.57966778246E+01 -0.18964890609E+02  0.44453174459E+02  0.41800000000E+01 0. -1.
         -5    1    3    3    0  502  0.28166155569E+02 -0.96120053622E+01 -0.26177858760E+03  0.26349805368E+03  0.41800000000E+01 0. -1.
        -11    1    4    4    0    0  0.14245575037E+02 -0.26702082019E+02 -0.84193082414E+01  0.31413728584E+02  0.00000000000E+00 0.  1.
         11    1    4    4    0    0 -0.28473050474E+01  0.42110765205E+02 -0.12121712230E+03  0.12835503275E+03  0.00000000000E+00 0. -1.
</event>
<event>
 8    1  0.6834011E-009  0.1529254E+03  0.7561462E-02  0.1196924E+00
          2   -1    0    0  501    0  0.00000000000E+00  0.00000000000E+00  0.39953229152E+03  0.39953229152E+03  0.00000000000E+00 0. -1.
         -2   -1    0    0    0  501 -0.00000000000E+00 -0.00000000000E+00 -0.73349775206E+02  0.73349775206E+02  0.00000000000E+00 0.  1.
         25    2    1    2    0    0  0.64416304068E+02  0.10410922904E+03  0.10772205452E+03  0.20552318670E+03  0.12509015725E+03 0.  0.
         23    2    1    2    0    0 -0.64416304068E+02 -0.10410922904E+03  0.21846046180E+03  0.26735888003E+03  0.93635493049E+02 0.  0.
          5    1    3    3  502    0 -0.30222619202E+02  0.23287038952E+01  0.16585462581E+01  0.30643967579E+02  0.41800000000E+01 0.  1.
         -5    1    3    3    0  502  0.94638923270E+02  0.10178052515E+03  0.10606350826E+03  0.17487921912E+03  0.41800000000E+01 0.  1.
        -11    1    4    4    0    0 -0.45229211951E+02 -0.19162722108E+02  0.24817611954E+02  0.55034583631E+02  0.00000000000E+00 0.  1.
         11    1    4    4    0    0 -0.19187092117E+02 -0.84946506934E+02  0.19364284985E+03  0.21232429640E+03  0.00000000000E+00 0. -1.
</event>
<event>
 8    1  0.6834011E-009  0.1714583E+03  0.7561462E-02  0.1176336E+00
          2   -1    0    0  501    0  0.00000000000E+00  0.00000000000E+00  0.36807426155E+03  0.36807426155E+03  0.00000000000E+00 0. -1.
         -2   -1    0    0    0  501 -0.00000000000E+00 -0.00000000000E+00 -0.85227864449E+02  0.85227864449E+02  0.00000000000E+00 0.  1.
         25    2    1    2    0    0 -0.55039428058E+01  0.13636122514E+03  0.18984432639E+03  0.26516525620E+03  0.12508823977E+03 0.  0.
         23    2    1    2    0    0  0.55039428058E+01 -0.13636122514E+03  0.93002070717E+02  0.18813686980E+03  0.90118918721E+02 0.  0.
          5    1    3    3  502    0  0.47143808524E+02  0.12130132065E+03  0.13359330016E+03  0.18655077411E+03  0.41800000000E+01 0. -1.
         -5    1    3    3    0  502 -0.52647751330E+02  0.15059904494E+02  0.56251026225E+02  0.78614482094E+02  0.41800000000E+01 0. -1.
        -11    1    4    4    0    0 -0.35228577724E+02 -0.40764620605E+02  0.92318639654E+01  0.54662915160E+02  0.00000000000E+00 0.  1.
         11    1    4    4    0    0  0.40732520530E+02 -0.95596604535E+02  0.83770206752E+02  0.13347395464E+03  0.00000000000E+00 0. -1.
</event>
<event>
 8    1  0.6834011E-009  0.7055413E+02  0.7561462E-02  0.1358219E+00
          2   -1    0    0  501    0  0.00000000000E+00  0.00000000000E+00  0.38830180636E+03  0.38830180636E+03  0.00000000000E+00 0. -1.
         -2   -1    0    0    0  501 -0.00000000000E+00 -0.00000000000E+00 -0.44162312087E+02  0.44162312087E+02  0.00000000000E+00 0.  1.
         25    2    1    2    0    0  0.56571949227E+02  0.49377626826E+00  0.11459053926E+03  0.17883530121E+03  0.12510173467E+03 0.  0.
         23    2    1    2    0    0 -0.56571949227E+02 -0.49377626826E+00  0.22954895501E+03  0.25362881723E+03  0.91838036401E+02 0.  0.
          5    1    3    3  502    0  0.48378432871E+02 -0.95250351511E+01  0.14083526478E+03  0.14927572899E+03  0.41800000000E+01 0. -1.
         -5    1    3    3    0  502  0.81935163563E+01  0.10018811419E+02 -0.26244725514E+02  0.29559572221E+02  0.41800000000E+01 0. -1.
        -11    1    4    4    0    0 -0.92306392894E+00 -0.19270118852E+02  0.29182307796E+01  0.19511678515E+02  0.00000000000E+00 0.  1.
         11    1    4    4    0    0 -0.55648885298E+02  0.18776342584E+02  0.22663072423E+03  0.23411713871E+03  0.00000000000E+00 0. -1.
</event>
<event>
 8    1  0.6834011E-009  0.9441364E+02  0.7561462E-02  0.1292502E+00
         -2   -1    0    0    0  501 -0.00000000000E+00  0.00000000000E+00  0.19084814033E+03  0.19084814033E+03  0.00000000000E+00 0. -1.
          2   -1    0    0  501    0  0.00000000000E+00 -0.00000000000E+00 -0.76869879876E+02  0.76869879876E+02  0.00000000000E+00 0.  1.
         25    2    1    2    0    0  0.53534112120E+02  0.16302148388E+02  0.74075563921E+02  0.15577462267E+03  0.12508750015E+03 0.  0.
         23    2    1    2    0    0 -0.53534112120E+02 -0.16302148388E+02  0.39902696535E+02  0.11194339754E+03  0.88359707217E+02 0.  0.
          5    1    3    3  502    0 -0.90815711258E+01  0.34847912690E+02  0.82194677953E+02  0.89834789679E+02  0.41800000000E+01 0.  1.
         -5    1    3    3    0  502  0.62615683245E+02 -0.18545764302E+02 -0.81191140317E+01  0.65939832988E+02  0.41800000000E+01 0.  1.
        -11    1    4    4    0    0 -0.49803627695E+02 -0.39545729428E+02 -0.22811605161E+01  0.63635444061E+02  0.00000000000E+00 0.  1.
         11    1    4    4    0    0 -0.37304844241E+01  0.23243581039E+02  0.42183857051E+02  0.48307953479E+02  0.00000000000E+00 0. -1.
</event>
<event>
 8    1  0.6834011E-009  0.1400466E+03  0.7561462E-02  0.1213266E+00
         -1   -1    0    0    0  501 -0.00000000000E+00  0.00000000000E+00  0.14171680741E+03  0.14171680741E+03  0.00000000000E+00 0.  1.
          1   -1    0    0  501    0  0.00000000000E+00 -0.00000000000E+00 -0.15027905853E+03  0.15027905853E+03  0.00000000000E+00 0. -1.
         25    2    1    2    0    0 -0.14532026857E+02  0.94242847655E+02 -0.19375638947E+01  0.15730121460E+03  0.12508806427E+03 0.  0.
         23    2    1    2    0    0  0.14532026857E+02 -0.94242847655E+02 -0.66246872156E+01  0.13469465134E+03  0.94899254368E+02 0.  0.
          5    1    3    3  502    0 -0.22337442015E+02  0.11807155707E+03 -0.25191303622E+02  0.12284920872E+03  0.41800000000E+01 0. -1.
         -5    1    3    3    0  502  0.78054151587E+01 -0.23828709414E+02  0.23253739727E+02  0.34452005884E+02  0.41800000000E+01 0. -1.
        -11    1    4    4    0    0 -0.40661290571E+02 -0.38841872435E+02 -0.24153881426E+00  0.56232463454E+02  0.00000000000E+00 0. -1.
         11    1    4    4    0    0  0.55193317427E+02 -0.55400975220E+02 -0.63831484014E+01  0.78462187884E+02  0.00000000000E+00 0.  1.
</event>
<event>
 8    1  0.6834011E-009  0.9703162E+02  0.7561462E-02  0.1286665E+00
          4   -1    0    0  501    0  0.00000000000E+00  0.00000000000E+00  0.79620685613E+02  0.79620685613E+02  0.00000000000E+00 0. -1.
         -4   -1    0    0    0  501 -0.00000000000E+00 -0.00000000000E+00 -0.16897934188E+03  0.16897934188E+03  0.00000000000E+00 0.  1.
         25    2    1    2    0    0 -0.39405857894E+02 -0.16027391856E+02 -0.35241186639E+02  0.13674903534E+03  0.12509459822E+03 0.  0.
         23    2    1    2    0    0  0.39405857894E+02  0.16027391856E+02 -0.54117469623E+02  0.11185099215E+03  0.88160336891E+02 0.  0.
          5    1    3    3  502    0 -0.79139570700E+02 -0.62372203897E+01  0.44070184911E+01  0.79617013136E+02  0.41800000000E+01 0.  1.
         -5    1    3    3    0  502  0.39733712806E+02 -0.97901714662E+01 -0.39648205131E+02  0.57132022201E+02  0.41800000000E+01 0.  1.
        -11    1    4    4    0    0  0.54139542956E+02  0.20722031577E+02 -0.69184589843E+02  0.90260734409E+02  0.00000000000E+00 0.  1.
         11    1    4    4    0    0 -0.14733685063E+02 -0.46946397215E+01  0.15067120220E+02  0.21590257742E+02  0.00000000000E+00 0. -1.
</event>
<event>
 8    1  0.6834011E-009  0.1196146E+03  0.7561462E-02  0.1243734E+00
          1   -1    0    0  501    0  0.00000000000E+00  0.00000000000E+00  0.91710993125E+02  0.91710993125E+02  0.00000000000E+00 0. -1.
         -1   -1    0    0    0  501 -0.00000000000E+00 -0.00000000000E+00 -0.23788934718E+03  0.23788934718E+03  0.00000000000E+00 0.  1.
         25    2    1    2    0    0 -0.94753300520E+02 -0.21554256258E+02 -0.96133864463E+02  0.18529028184E+03  0.12509194509E+03 0.  0.
         23    2    1    2    0    0  0.94753300520E+02  0.21554256258E+02 -0.50044489590E+02  0.14431005846E+03  0.94224031501E+02 0.  0.
          5    1    3    3  502    0 -0.16318972701E+02  0.23281119841E+02 -0.90186009712E+02  0.94653622006E+02  0.41800000000E+01 0. -1.
         -5    1    3    3    0  502 -0.78434327819E+02 -0.44835376099E+02 -0.59478547517E+01  0.90636659837E+02  0.41800000000E+01 0. -1.
        -11    1    4    4    0    0  0.81396776875E+01 -0.21744459188E+02 -0.40919581566E+02  0.47047720601E+02  0.00000000000E+00 0.  1.
         11    1    4    4    0    0  0.86613622832E+02  0.43298715446E+02 -0.91249080237E+01  0.97262337859E+02  0.00000000000E+00 0. -1.
</event>
<event>
 8    1  0.6834011E-009  0.9440590E+02  0.7561462E-02  0.1292520E+00
         -1   -1    0    0    0  501 -0.00000000000E+00  0.00000000000E+00  0.20691742399E+02  0.20691742399E+02  0.00000000000E+00 0.  1.
          1   -1    0    0  501    0  0.00000000000E+00 -0.00000000000E+00 -0.91449473751E+03  0.91449473751E+03  0.00000000000E+00 0. -1.
         25    2    1    2    0    0  0.51611432316E+02 -0.12973851154E+01 -0.71754040621E+03  0.73019034252E+03  0.12509307976E+03 0.  0.
         23    2    1    2    0    0 -0.51611432316E+02  0.12973851154E+01 -0.17626258890E+03  0.20499613739E+03  0.91046652580E+02 0.  0.
          5    1    3    3  502    0 -0.31477296975E+02 -0.82700843240E+01 -0.70217116998E+02  0.77505680044E+02  0.41800000000E+01 0. -1.
         -5    1    3    3    0  502  0.83088729290E+02  0.69726992086E+01 -0.64732328922E+03  0.65268466247E+03  0.41800000000E+01 0. -1.
        -11    1    4    4    0    0 -0.15812692305E+02 -0.23955692026E+02 -0.61796074887E+01  0.29361607025E+02  0.00000000000E+00 0.  1.
         11    1    4    4    0    0 -0.35798740011E+02  0.25253077142E+02 -0.17008298141E+03  0.17563453036E+03  0.00000000000E+00 0. -1.
</event>
<event>
 8    1  0.6834011E-009  0.9575853E+02  0.7561462E-02  0.1289477E+00
          1   -1    0    0  501    0  0.00000000000E+00  0.00000000000E+00  0.73827103728E+03  0.73827103728E+03  0.00000000000E+00 0. -1.
         -1   -1    0    0    0  501 -0.00000000000E+00 -0.00000000000E+00 -0.21939920166E+02  0.21939920166E+02  0.00000000000E+00 0.  1.
         25    2    1    2    0    0 -0.12245239841E+02 -0.42556681042E+02  0.54448709148E+03  0.56042588279E+03  0.12509980141E+03 0.  0.
         23    2    1    2    0    0  0.12245239841E+02  0.42556681042E+02  0.17184402564E+03  0.19978507466E+03  0.91775214024E+02 0.  0.
          5    1    3    3  502    0  0.14628641750E+02 -0.59544911762E+02  0.50859849295E+03  0.51229824625E+03  0.41800000000E+01 0. -1.
         -5    1    3    3    0  502 -0.26873881591E+02  0.16988230720E+02  0.35888598526E+02  0.48127636540E+02  0.41800000000E+01 0. -1.
        -11    1    4    4    0    0 -0.13390220970E+02  0.63495744480E+02  0.85669528952E+02  0.10747220932E+03  0.00000000000E+00 0.  1.
         11    1    4    4    0    0  0.25635460811E+02 -0.20939063438E+02  0.86174496685E+02  0.92312865342E+02  0.00000000000E+00 0. -1.
</event>
<event>
 8    1  0.6834011E-009  0.1802369E+03  0.7561462E-02  0.1167574E+00
          2   -1    0    0  501    0  0.00000000000E+00  0.00000000000E+00  0.81728445025E+02  0.81728445025E+02  0.00000000000E+00 0. -1.
         -2   -1    0    0    0  501 -0.00000000000E+00 -0.00000000000E+00 -0.51142279584E+03  0.51142279584E+03  0.00000000000E+00 0.  1.
         25    2    1    2    0    0 -0.15015935550E+03 -0.79133239123E+02 -0.17550460454E+03  0.27433393011E+03  0.12508931777E+03 0.  0.
         23    2    1    2    0    0  0.15015935550E+03  0.79133239123E+02 -0.25418974627E+03  0.31881731075E+03  0.90676066011E+02 0.  0.
          5    1    3    3  502    0 -0.70593855177E+02 -0.62690048015E+02 -0.16790454260E+02  0.95983989619E+02  0.41800000000E+01 0.  1.
         -5    1    3    3    0  502 -0.79565500320E+02 -0.16443191108E+02 -0.15871415028E+03  0.17834994050E+03  0.41800000000E+01 0.  1.
        -11    1    4    4    0    0  0.10351114676E+03  0.13930797206E+02 -0.18710067461E+03  0.21427852681E+03  0.00000000000E+00 0.  1.
         11    1    4    4    0    0  0.46648208734E+02  0.65202441917E+02 -0.67089071661E+02  0.10453878393E+03  0.00000000000E+00 0. -1.
</event>
<event>
 8    1  0.6834011E-009  0.9216019E+02  0.7561462E-02  0.1297703E+00
         -1   -1    0    0    0  501 -0.00000000000E+00  0.00000000000E+00  0.62922731924E+02  0.62922731924E+02  0.00000000000E+00 0.  1.
          1   -1    0    0  501    0  0.00000000000E+00 -0.00000000000E+00 -0.25729288714E+03  0.25729288714E+03  0.00000000000E+00 0. -1.
         25    2    1    2    0    0  0.36385669301E+02  0.23527446533E+02 -0.48876621373E+02  0.14111633210E+03  0.12508971739E+03 0.  0.
         23    2    1    2    0    0 -0.36385669301E+02 -0.23527446533E+02 -0.14549353385E+03  0.17909928697E+03  0.95030145381E+02 0.  0.
          5    1    3    3  502    0  0.66061474462E+02  0.13562511298E+02  0.15577012619E+02  0.69341011262E+02  0.41800000000E+01 0. -1.
         -5    1    3    3    0  502 -0.29675805161E+02  0.99649352356E+01 -0.64453633992E+02  0.71775320835E+02  0.41800000000E+01 0. -1.
        -11    1    4    4    0    0  0.17574230197E+02 -0.25736596071E+02 -0.91968086069E+01  0.32493187484E+02  0.00000000000E+00 0. -1.
         11    1    4    4    0    0 -0.53959899498E+02  0.22091495379E+01 -0.13629672524E+03  0.14660609948E+03  0.00000000000E+00 0.  1.
</event>
<event>
 8    1  0.6834011E-009  0.2021571E+03  0.7561462E-02  0.1147932E+00
          1   -1    0    0  501    0  0.00000000000E+00  0.00000000000E+00  0.69901473989E+03  0.69901473989E+03  0.00000000000E+00 0. -1.
         -1   -1    0    0    0  501 -0.00000000000E+00 -0.00000000000E+00 -0.64862522514E+02  0.64862522514E+02  0.00000000000E+00 0.  1.
         25    2    1    2    0    0  0.56831258805E+02 -0.16790217405E+03  0.41521199840E+03  0.46847574543E+03  0.12509032103E+03 0.  0.
         23    2    1    2    0    0 -0.56831258805E+02  0.16790217405E+03  0.21894021898E+03  0.29540151697E+03  0.88917403906E+02 0.  0.
          5    1    3    3  502    0 -0.35914957476E+02 -0.83415645117E+02  0.15871963087E+03  0.18291377107E+03  0.41800000000E+01 0. -1.
         -5    1    3    3    0  502  0.92746216281E+02 -0.84486528929E+02  0.25649236752E+03  0.28556197436E+03  0.41800000000E+01 0. -1.
        -11    1    4    4    0    0 -0.59911603590E+02  0.80161395048E+02  0.68692259652E+02  0.12138317856E+03  0.00000000000E+00 0.  1.
         11    1    4    4    0    0  0.30803447855E+01  0.87740778998E+02  0.15024795933E+03  0.17401833841E+03  0.00000000000E+00 0. -1.
</event>
<event>
 8    1  0.6834011E-009  0.9584152E+02  0.7561462E-02  0.1289292E+00
         -2   -1    0    0    0  501 -0.00000000000E+00  0.00000000000E+00  0.51496773079E+02  0.51496773079E+02  0.00000000000E+00 0.  1.
          2   -1    0    0  501    0  0.00000000000E+00 -0.00000000000E+00 -0.23050800362E+03  0.23050800362E+03  0.00000000000E+00 0. -1.
         25    2    1    2    0    0 -0.11104862037E+02  0.70479157541E+01 -0.96797256667E+02  0.15871397551E+03  0.12508967202E+03 0.  0.
         23    2    1    2    0    0  0.11104862037E+02 -0.70479157541E+01 -0.82213973871E+02  0.12329080118E+03  0.90931254691E+02 0.  0.
          5    1    3    3  502    0 -0.54185828048E+02 -0.26413990737E+02 -0.18496045277E+02  0.63193187598E+02  0.41800000000E+01 0.  1.
         -5    1    3    3    0  502  0.43080966011E+02  0.33461906492E+02 -0.78301211391E+02  0.95520787914E+02  0.41800000000E+01 0.  1.
        -11    1    4    4    0    0  0.13891420329E+02  0.33311614846E+02 -0.73534890746E+02  0.81914683662E+02  0.00000000000E+00 0. -1.
         11    1    4    4    0    0 -0.27865582918E+01 -0.40359530600E+02 -0.86790831248E+01  0.41376117522E+02  0.00000000000E+00 0.  1.
</event>
<event>
 8    1  0.6834011E-009  0.1076276E+03  0.7561462E-02  0.1265027E+00
         -3   -1    0    0    0  501 -0.00000000000E+00  0.00000000000E+00  0.11022219813E+04  0.11022219813E+04  0.00000000000E+00 0.  1.
          3   -1    0    0  501    0  0.00000000000E+00 -0.00000000000E+00 -0.15208721064E+02  0.15208721064E+02  0.00000000000E+00 0. -1.
         25    2    1    2    0    0 -0.72298850536E+01  0.44477053531E+02  0.84203802494E+03  0.85247040572E+03  0.12508907885E+03 0.  0.
         23    2    1    2    0    0  0.72298850536E+01 -0.44477053531E+02  0.24497523527E+03  0.26496029662E+03  0.90336113281E+02 0.  0.
          5    1    3    3  502    0  0.45254639778E+02 -0.88330548317E+00  0.56586080268E+03  0.56768361176E+03  0.41800000000E+01 0. -1.
         -5    1    3    3    0  502 -0.52484524832E+02  0.45360359014E+02  0.27617722227E+03  0.28478679396E+03  0.41800000000E+01 0. -1.
        -11    1    4    4    0    0  0.48565816213E+02 -0.23740041721E+02  0.14683989902E+03  0.15647422800E+03  0.00000000000E+00 0.  1.
         11    1    4    4    0    0 -0.41335931159E+02 -0.20737011810E+02  0.98135336255E+02  0.10848606862E+03  0.00000000000E+00 0. -1.
</event>
<event>
 8    1  0.6834011E-009  0.1241889E+03  0.7561462E-02  0.1236342E+00
         -4   -1    0    0    0  501 -0.00000000000E+00  0.00000000000E+00  0.28350262592E+03  0.28350262592E+03  0.00000000000E+00 0.  1.
          4   -1    0    0  501    0  0.00000000000E+00 -0.00000000000E+00 -0.75552603666E+02  0.75552603666E+02  0.00000000000E+00 0. -1.
         25    2    1    2    0    0  0.13281287367E+02 -0.97722756381E+02  0.12053669098E+03  0.19975712615E+03  0.12509071055E+03 0.  0.
         23    2    1    2    0    0 -0.13281287367E+02  0.97722756381E+02  0.87413331267E+02  0.15929810343E+03  0.89491147972E+02 0.  0.
          5    1    3    3  502    0 -0.28274081984E+02 -0.38372974169E+01 -0.12690335133E+02  0.31506595647E+02  0.41800000000E+01 0.  1.
         -5    1    3    3    0  502  0.41555369351E+02 -0.93885458964E+02  0.13322702612E+03  0.16825053050E+03  0.41800000000E+01 0.  1.
        -11    1    4    4    0    0  0.21096273803E+02  0.11648463164E+02  0.56778655056E+02  0.61681075967E+02  0.00000000000E+00 0.  1.
         11    1    4    4    0    0 -0.34377561170E+02  0.86074293217E+02  0.30634676211E+02  0.97617027466E+02  0.00000000000E+00 0. -1.
</event>
<event>
 8    1  0.6834011E-009  0.1189849E+03  0.7561462E-02  0.1244781E+00
         -1   -1    0    0    0  501 -0.00000000000E+00  0.00000000000E+00  0.10416838446E+03  0.10416838446E+03  0.00000000000E+00 0.  1.
          1   -1    0    0  501    0  0.00000000000E+00 -0.00000000000E+00 -0.16685107453E+03  0.16685107453E+03  0.00000000000E+00 0. -1.
         25    2    1    2    0    0  0.44588371136E+02  0.43334766554E+02 -0.70260163054E+02  0.15636934468E+03  0.12509539004E+03 0.  0.
         23    2    1    2    0    0 -0.44588371136E+02 -0.43334766554E+02  0.75774729880E+01  0.11465011432E+03  0.96027109629E+02 0.  0.
          5    1    3    3  502    0  0.13265075029E+02  0.85166388842E+02 -0.34641899829E+02  0.92988223059E+02  0.41800000000E+01 0.  1.
         -5    1    3    3    0  502  0.31323296108E+02 -0.41831622287E+02 -0.35618263225E+02  0.63381121617E+02  0.41800000000E+01 0.  1.
        -11    1    4    4    0    0  0.21938546775E+02 -0.51220901576E+01 -0.22875687552E+02  0.32106583798E+02  0.00000000000E+00 0. -1.
         11    1    4    4    0    0 -0.66526917911E+02 -0.38212676397E+02  0.30453160540E+02  0.82543530522E+02  0.00000000000E+00 0.  1.
</event>
<event>
 8    1  0.6834011E-009  0.1057632E+03  0.7561462E-02  0.1268623E+00
          2   -1    0    0  501    0  0.00000000000E+00  0.00000000000E+00  0.67084631656E+03  0.67084631656E+03  0.00000000000E+00 0. -1.
         -2   -1    0    0    0  501 -0.00000000000E+00 -0.00000000000E+00 -0.17778551337E+02  0.17778551337E+02  0.00000000000E+00 0.  1.
         25    2    1    2    0    0 -0.48793636807E+01  0.53271865457E+01  0.40280967200E+03  0.42184750012E+03  0.12508994521E+03 0.  0.
         23    2    1    2    0    0  0.48793636807E+01 -0.53271865457E+01  0.25025809322E+03  0.26677736778E+03  0.92135029330E+02 0.  0.
          5    1    3    3  502    0  0.57332893549E+02  0.13981812734E+02  0.14822061262E+03  0.15959127224E+03  0.41800000000E+01 0.  1.
         -5    1    3    3    0  502 -0.62212257230E+02 -0.86546261881E+01  0.25458905938E+03  0.26225622788E+03  0.41800000000E+01 0.  1.
        -11    1    4    4    0    0  0.28546891307E+02 -0.38954061839E+02  0.16814953231E+03  0.17494744683E+03  0.00000000000E+00 0. -1.
         11    1    4    4    0    0 -0.23667527627E+02  0.33626875294E+02  0.82108560909E+02  0.91829920944E+02  0.00000000000E+00 0.  1.
</event>
<event>
 8    1  0.6834011E-009  0.2525076E+03  0.7561462E-02  0.1111730E+00
         -2   -1    0    0    0  501 -0.00000000000E+00  0.00000000000E+00  0.39305255706E+02  0.39305255706E+02  0.00000000000E+00 0.  1.
          2   -1    0    0  501    0  0.00000000000E+00 -0.00000000000E+00 -0.17449321317E+04  0.17449321317E+04  0.00000000000E+00 0. -1.
         25    2    1    2    0    0  0.23278567233E+03  0.32535947241E+02 -0.75262734895E+03  0.79833881333E+03  0.12509667210E+03 0.  0.
         23    2    1    2    0    0 -0.23278567233E+03 -0.32535947241E+02 -0.95299952701E+03  0.98589857405E+03  0.92412892592E+02 0.  0.
          5    1    3    3  502    0  0.32890303675E+02 -0.40777674324E+02 -0.12631641148E+03  0.13681337292E+03  0.41800000000E+01 0.  1.
         -5    1    3    3    0  502  0.19989536866E+03  0.73313621565E+02 -0.62631093747E+03  0.66152544041E+03  0.41800000000E+01 0.  1.
        -11    1    4    4    0    0 -0.10029045818E+03 -0.37091643713E+02 -0.58627300869E+03  0.59594463397E+03  0.00000000000E+00 0.  1.
         11    1    4    4    0    0 -0.13249521415E+03  0.45556964718E+01 -0.36672651832E+03  0.38995394008E+03  0.00000000000E+00 0. -1.
</event>
<event>
 8    1  0.6834011E-009  0.1156095E+03  0.7561462E-02  0.1250521E+00
         -1   -1    0    0    0  501 -0.00000000000E+00  0.00000000000E+00  0.14899984480E+03  0.14899984480E+03  0.00000000000E+00 0.  1.
          1   -1    0    0  501    0  0.00000000000E+00 -0.00000000000E+00 -0.99824378047E+02  0.99824378047E+02  0.00000000000E+00 0. -1.
         25    2    1    2    0    0 -0.46082615241E+01 -0.54751511596E+02  0.16234821019E+02  0.13758447937E+03  0.12508779098E+03 0.  0.
         23    2    1    2    0    0  0.46082615241E+01  0.54751511596E+02  0.32940645733E+02  0.11123974348E+03  0.90940806524E+02 0.  0.
          5    1    3    3  502    0 -0.46871625553E+02  0.11250684457E+02 -0.18442570033E+02  0.51779609618E+02  0.41800000000E+01 0.  1.
         -5    1    3    3    0  502  0.42263364029E+02 -0.66002196053E+02  0.34677391052E+02  0.85804869751E+02  0.41800000000E+01 0.  1.
        -11    1    4    4    0    0 -0.50785208584E+01 -0.24240129352E+02  0.17097104038E+02  0.30094620974E+02  0.00000000000E+00 0.  1.
         11    1    4    4    0    0  0.96867823825E+01  0.78991640948E+02  0.15843541696E+02  0.81145122503E+02  0.00000000000E+00 0. -1.
</event>
<event>
 8    1  0.6834011E-009  0.1041552E+03  0.7561462E-02  0.1271793E+00
          1   -1    0    0  501    0  0.00000000000E+00  0.00000000000E+00  0.75194708701E+02  0.75194708701E+02  0.00000000000E+00 0. -1.
         -1   -1    0    0    0  501 -0.00000000000E+00 -0.00000000000E+00 -0.23731972172E+03  0.23731972172E+03  0.00000000000E+00 0.  1.
         25    2    1    2    0    0  0.25890174174E+02  0.83936639595E+01 -0.17498289184E+03  0.21681903275E+03  0.12510286092E+03 0.  0.
         23    2    1    2    0    0 -0.25890174174E+02 -0.83936639595E+01  0.12857878823E+02  0.95695397673E+02  0.90837929162E+02 0.  0.
          5    1    3    3  502    0  0.62701263077E+02 -0.28462695296E+02 -0.13284213684E+03  0.14968660306E+03  0.41800000000E+01 0.  1.
         -5    1    3    3    0  502 -0.36811088903E+02  0.36856359256E+02 -0.42140755003E+02  0.67132429689E+02  0.41800000000E+01 0.  1.
        -11    1    4    4    0    0  0.24743498539E+02  0.17392646755E+02 -0.13423951399E+02  0.33089988701E+02  0.00000000000E+00 0.  1.
         11    1    4    4    0    0 -0.50633672713E+02 -0.25786310715E+02  0.26281830223E+02  0.62605408972E+02  0.00000000000E+00 0. -1.
</event>
<event>
 8    1  0.6834011E-009  0.9361249E+02  0.7561462E-02  0.1294332E+00
         -3   -1    0    0    0  501 -0.00000000000E+00  0.00000000000E+00  0.12430519344E+03  0.12430519344E+03  0.00000000000E+00 0.  1.
          3   -1    0    0  501    0  0.00000000000E+00 -0.00000000000E+00 -0.14410058295E+03  0.14410058295E+03  0.00000000000E+00 0. -1.
         25    2    1    2    0    0 -0.39499792192E+02  0.22158084700E+02 -0.71202645761E+02  0.15088865623E+03  0.12508539289E+03 0.  0.
         23    2    1    2    0    0  0.39499792192E+02 -0.22158084700E+02  0.51407256254E+02  0.11751712016E+03  0.95479595909E+02 0.  0.
          5    1    3    3  502    0 -0.72216038243E+02  0.41064583437E+02 -0.75872820845E+02  0.11258602727E+03  0.41800000000E+01 0.  1.
         -5    1    3    3    0  502  0.32716246051E+02 -0.18906498737E+02  0.46701750846E+01  0.38302628963E+02  0.41800000000E+01 0.  1.
        -11    1    4    4    0    0  0.11894930415E+02  0.15373419277E+02 -0.22759824222E+02  0.29930602874E+02  0.00000000000E+00 0.  1.
         11    1    4    4    0    0  0.27604861777E+02 -0.37531503976E+02  0.74167080475E+02  0.87586517288E+02  0.00000000000E+00 0. -1.
</event>
<event>
 8    1  0.6834011E-009  0.3622115E+03  0.7561462E-02  0.1057712E+00
          2   -1    0    0  501    0  0.00000000000E+00  0.00000000000E+00  0.84064920810E+03  0.84064920810E+03  0.00000000000E+00 0. -1.
         -2   -1    0    0    0  501 -0.00000000000E+00 -0.00000000000E+00 -0.16970270698E+03  0.16970270698E+03  0.00000000000E+00 0.  1.
         25    2    1    2    0    0  0.21547312468E+02  0.34657267570E+03  0.47495744754E+03  0.60150641323E+03  0.12509389262E+03 0.  0.
         23    2    1    2    0    0 -0.21547312468E+02 -0.34657267570E+03  0.19598905358E+03  0.40884550185E+03  0.90366083491E+02 0.  0.
          5    1    3    3  502    0  0.62704594579E+02  0.11714296240E+03  0.13657225021E+03  0.19058801575E+03  0.41800000000E+01 0.  1.
         -5    1    3    3    0  502 -0.41157282112E+02  0.22942971330E+03  0.33838519733E+03  0.41091839748E+03  0.41800000000E+01 0.  1.
        -11    1    4    4    0    0  0.17389440198E+02 -0.28484925712E+03  0.16417698544E+03  0.32923483178E+03  0.00000000000E+00 0. -1.
         11    1    4    4    0    0 -0.38936752666E+02 -0.61723418581E+02  0.31812068143E+02  0.79610670070E+02  0.00000000000E+00 0.  1.
</event>
<event>
 8    1  0.6834011E-009  0.9675052E+02  0.7561462E-02  0.1287281E+00
         -1   -1    0    0    0  501 -0.00000000000E+00  0.00000000000E+00  0.38596078421E+03  0.38596078421E+03  0.00000000000E+00 0.  1.
          1   -1    0    0  501    0  0.00000000000E+00 -0.00000000000E+00 -0.37890511747E+02  0.37890511747E+02  0.00000000000E+00 0. -1.
         25    2    1    2    0    0  0.76876310233E+01  0.19534273057E+02  0.27428244720E+03  0.30219334809E+03  0.12509704750E+03 0.  0.
         23    2    1    2    0    0 -0.76876310233E+01 -0.19534273057E+02  0.73787825265E+02  0.12165794787E+03  0.94421002046E+02 0.  0.
          5    1    3    3  502    0 -0.44422892590E+02 -0.22723497099E+02  0.17699403976E+03  0.18394051543E+03  0.41800000000E+01 0. -1.
         -5    1    3    3    0  502  0.52110523614E+02  0.42257770156E+02  0.97288407434E+02  0.11825283265E+03  0.41800000000E+01 0. -1.
        -11    1    4    4    0    0  0.17904897164E+02 -0.39748360811E+02  0.77413216812E+02  0.88844378927E+02  0.00000000000E+00 0.  1.
         11    1    4    4    0    0 -0.25592528188E+02  0.20214087754E+02 -0.36253915474E+01  0.32813568941E+02  0.00000000000E+00 0. -1.
</event>
<event>
 8    1  0.6834011E-009  0.1015178E+03  0.7561462E-02  0.1277136E+00
         -1   -1    0    0    0  501 -0.00000000000E+00  0.00000000000E+00  0.31460002315E+02  0.31460002315E+02  0.00000000000E+00 0.  1.
          1   -1    0    0  501    0  0.00000000000E+00 -0.00000000000E+00 -0.73429527014E+03  0.73429527014E+03  0.00000000000E+00 0. -1.
         25    2    1    2    0    0  0.48930819898E+02  0.47227646984E+02 -0.17367903228E+03  0.22458124464E+03  0.12509058085E+03 0.  0.
         23    2    1    2    0    0 -0.48930819898E+02 -0.47227646984E+02 -0.52915623555E+03  0.54117402782E+03  0.90765252075E+02 0.  0.
          5    1    3    3  502    0  0.60630585045E+02  0.28413250391E+02 -0.18680894046E+03  0.19849038585E+03  0.41800000000E+01 0. -1.
         -5    1    3    3    0  502 -0.11699765148E+02  0.18814396593E+02  0.13129908179E+02  0.26090858792E+02  0.41800000000E+01 0. -1.
        -11    1    4    4    0    0  0.34181887028E+01 -0.59528118873E+02 -0.27393558620E+03  0.28034975716E+03  0.00000000000E+00 0.  1.
         11    1    4    4    0    0 -0.52349008600E+02  0.12300471888E+02 -0.25522064935E+03  0.26082427066E+03  0.00000000000E+00 0. -1.
</event>
<event>
 8    1  0.6834011E-009  0.2555315E+03  0.7561462E-02  0.1109858E+00
          2   -1    0    0  501    0  0.00000000000E+00  0.00000000000E+00  0.18954858845E+04  0.18954858845E+04  0.00000000000E+00 0. -1.
         -2   -1    0    0    0  501 -0.00000000000E+00 -0.00000000000E+00 -0.36962801889E+02  0.36962801889E+02  0.00000000000E+00 0.  1.
         25    2    1    2    0    0 -0.14954146271E+03 -0.17797387418E+03  0.11906416439E+04  0.12195542786E+04  0.12509102765E+03 0.  0.
         23    2    1    2    0    0  0.14954146271E+03  0.17797387418E+03  0.66788143872E+03  0.71289440784E+03  0.90085912231E+02 0.  0.
          5    1    3    3  502    0 -0.16190538987E+03 -0.11320451898E+03  0.91710154721E+03  0.93814782347E+03  0.41800000000E+01 0. -1.
         -5    1    3    3    0  502  0.12363927154E+02 -0.64769355203E+02  0.27354009670E+03  0.28140645510E+03  0.41800000000E+01 0. -1.
        -11    1    4    4    0    0  0.13129878271E+03  0.94051280448E+02  0.47646640369E+03  0.50309566440E+03  0.00000000000E+00 0. -1.
         11    1    4    4    0    0  0.18242679998E+02  0.83922593732E+02  0.19141503503E+03  0.20979874344E+03  0.00000000000E+00 0.  1.
</event>
<event>
 8    1  0.6834011E-009  0.8080645E+02  0.7561462E-02  0.1326778E+00
         -1   -1    0    0    0  501 -0.00000000000E+00  0.00000000000E+00  0.34611758029E+02  0.34611758029E+02  0.00000000000E+00 0.  1.
          1   -1    0    0  501    0  0.00000000000E+00 -0.00000000000E+00 -0.44206703675E+03  0.44206703675E+03  0.00000000000E+00 0. -1.
         25    2    1    2    0    0  0.95698143037E+01 -0.37678178754E+02 -0.33943427491E+03  0.36383124088E+03  0.12508524435E+03 0.  0.
         23    2    1    2    0    0 -0.95698143037E+01  0.37678178754E+02 -0.68021003811E+02  0.11284755390E+03  0.81218759916E+02 0.  0.
          5    1    3    3  502    0  0.10202528627E+02 -0.67011387932E+02 -0.90543472320E+02  0.11318220038E+03  0.41800000000E+01 0. -1.
         -5    1    3    3    0  502 -0.63271432309E+00  0.29333209178E+02 -0.24889080259E+03  0.25064904050E+03  0.41800000000E+01 0. -1.
        -11    1    4    4    0    0  0.20523258653E+02  0.22166559446E+02  0.65860461561E+01  0.30918222901E+02  0.00000000000E+00 0.  1.
         11    1    4    4    0    0 -0.30093072957E+02  0.15511619308E+02 -0.74607049967E+02  0.81929331001E+02  0.00000000000E+00 0. -1.
</event>
<event>
 8    1  0.6834011E-009  0.1294887E+03  0.7561462E-02  0.1228216E+00
         -2   -1    0    0    0  501 -0.00000000000E+00  0.00000000000E+00  0.22708577198E+03  0.22708577198E+03  0.00000000000E+00 0.  1.
          2   -1    0    0  501    0  0.00000000000E+00 -0.00000000000E+00 -0.86494268139E+02  0.86494268139E+02  0.00000000000E+00 0. -1.
         25    2    1    2    0    0 -0.79368349416E+02  0.81168954703E+01  0.36692491719E+02  0.15283713770E+03  0.12509049856E+03 0.  0.
         23    2    1    2    0    0  0.79368349416E+02 -0.81168954703E+01  0.10389901212E+03  0.16074290242E+03  0.93156089857E+02 0.  0.
          5    1    3    3  502    0  0.55771432562E+01  0.51149223830E+02  0.23111040002E+02  0.56559174280E+02  0.41800000000E+01 0.  1.
         -5    1    3    3    0  502 -0.84945492672E+02 -0.43032328360E+02  0.13581451718E+02  0.96277963419E+02  0.41800000000E+01 0.  1.
        -11    1    4    4    0    0  0.89145727511E+02  0.11731552238E+02  0.50925782285E+02  0.10333453127E+03  0.00000000000E+00 0. -1.
         11    1    4    4    0    0 -0.97773780952E+01 -0.19848447708E+02  0.52973229835E+02  0.57408371150E+02  0.00000000000E+00 0.  1.
</event>
<event>
 8    1  0.6834011E-009  0.1543677E+03  0.7561462E-02  0.1195206E+00
         -2   -1    0    0    0  501 -0.00000000000E+00  0.00000000000E+00  0.49969756929E+02  0.49969756929E+02  0.00000000000E+00 0.  1.
          2   -1    0    0  501    0  0.00000000000E+00 -0.00000000000E+00 -0.57682843951E+03  0.57682843951E+03  0.00000000000E+00 0. -1.
         25    2    1    2    0    0  0.11174952313E+03  0.32268461505E+02 -0.17049575426E+03  0.24134327191E+03  0.12509421709E+03 0.  0.
         23    2    1    2    0    0 -0.11174952313E+03 -0.32268461505E+02 -0.35636292832E+03  0.38545492453E+03  0.89731558748E+02 0.  0.
          5    1    3    3  502    0  0.80587917264E+02  0.74068765955E+02 -0.75940486877E+02  0.13328549976E+03  0.41800000000E+01 0. -1.
         -5    1    3    3    0  502  0.31161605863E+02 -0.41800304450E+02 -0.94555267383E+02  0.10805777215E+03  0.41800000000E+01 0. -1.
        -11    1    4    4    0    0 -0.10532135498E+03  0.84617327268E+01 -0.25434498393E+03  0.27541888022E+03  0.00000000000E+00 0.  1.
         11    1    4    4    0    0 -0.64281681489E+01 -0.40730194232E+02 -0.10201794439E+03  0.11003604430E+03  0.00000000000E+00 0. -1.
</event>
<event>
 8    1  0.6834011E-009  0.1754789E+03  0.7561462E-02  0.1172252E+00
          2   -1    0    0  501    0  0.00000000000E+00  0.00000000000E+00  0.21645667420E+04  0.21645667420E+04  0.00000000000E+00 0. -1.
         -2   -1    0    0    0  501 -0.00000000000E+00 -0.00000000000E+00 -0.17691419841E+02  0.17691419841E+02  0.00000000000E+00 0.  1.
         25    2    1    2    0    0  0.11763545837E+03  0.10845957278E+03  0.12817062934E+04  0.12976985408E+04  0.12509556415E+03 0.  0.
         23    2    1    2    0    0 -0.11763545837E+03 -0.10845957278E+03  0.86516902878E+03  0.88455962110E+03  0.91250725582E+02 0.  0.
          5    1    3    3  502    0 -0.34157709339E+01  0.30878220926E+01  0.48182466745E+03  0.48186479919E+03  0.41800000000E+01 0.  1.
         -5    1    3    3    0  502  0.12105122930E+03  0.10537175069E+03  0.79988162596E+03  0.81583374158E+03  0.41800000000E+01 0.  1.
        -11    1    4    4    0    0 -0.10862873332E+03 -0.12485090953E+03  0.77677881142E+03  0.79421236026E+03  0.00000000000E+00 0. -1.
         11    1    4    4    0    0 -0.90067250466E+01  0.16391336743E+02  0.88390217357E+02  0.90347260837E+02  0.00000000000E+00 0.  1.
</event>
<event>
 8    1  0.6834011E-009  0.8984236E+02  0.7561462E-02  0.1303234E+00
         -2   -1    0    0    0  501 -0.00000000000E+00  0.00000000000E+00  0.24757055411E+03  0.24757055411E+03  0.00000000000E+00 0.  1.
          2   -1    0    0  501    0  0.00000000000E+00 -0.00000000000E+00 -0.47595956270E+02  0.47595956270E+02  0.00000000000E+00 0. -1.
         25    2    1    2    0    0  0.13639420946E+02  0.60745955720E+00  0.11481522229E+03  0.17033950821E+03  0.12508641004E+03 0.  0.
         23    2    1    2    0    0 -0.13639420946E+02 -0.60745955720E+00  0.85159375550E+02  0.12482700217E+03  0.90240004525E+02 0.  0.
          5    1    3    3  502    0 -0.42272881916E+02  0.39158031385E+02  0.53931963196E+02  0.79034657091E+02  0.41800000000E+01 0. -1.
         -5    1    3    3    0  502  0.55912302862E+02 -0.38550571827E+02  0.60883259098E+02  0.91304851119E+02  0.41800000000E+01 0. -1.
        -11    1    4    4    0    0  0.15652347640E+02  0.14122084012E+02  0.89322947284E+02  0.91777002321E+02  0.00000000000E+00 0.  1.
         11    1    4    4    0    0 -0.29291768586E+02 -0.14729543569E+02 -0.41635717344E+01  0.33049999852E+02  0.00000000000E+00 0. -1.
</event>
<event>
 8    1  0.6834011E-009  0.1081092E+03  0.7561462E-02  0.1264112E+00
          2   -1    0    0  501    0  0.00000000000E+00  0.00000000000E+00  0.38442230286E+03  0.38442230286E+03  0.00000000000E+00 0. -1.
         -2   -1    0    0    0  501 -0.00000000000E+00 -0.00000000000E+00 -0.42524643395E+02  0.42524643395E+02  0.00000000000E+00 0.  1.
         25    2    1    2    0    0 -0.38069020169E+02  0.45542259214E+02  0.13561871799E+03  0.19381195142E+03  0.12508912091E+03 0.  0.
         23    2    1    2    0    0  0.38069020169E+02 -0.45542259214E+02  0.20627894147E+03  0.23313499484E+03  0.90981187354E+02 0.  0.
          5    1    3    3  502    0 -0.25245554808E+02  0.85935875661E+02  0.62851548526E+02  0.10949932564E+03  0.41800000000E+01 0. -1.
         -5    1    3    3    0  502 -0.12823465361E+02 -0.40393616446E+02  0.72767169468E+02  0.84312625780E+02  0.41800000000E+01 0. -1.
        -11    1    4    4    0    0 -0.69173957118E+01  0.10207685871E+02 -0.23473779186E+01  0.12552186956E+02  0.00000000000E+00 0.  1.
         11    1    4    4    0    0  0.44986415881E+02 -0.55749945085E+02  0.20862631939E+03  0.22058280788E+03  0.00000000000E+00 0. -1.
</event>
<event>
 8    1  0.6834011E-009  0.8437147E+02  0.7561462E-02  0.1317084E+00
         -1   -1    0    0    0  501 -0.00000000000E+00  0.00000000000E+00  0.65322935266E+02  0.65322935266E+02  0.00000000000E+00 0.  1.
          1   -1    0    0  501    0  0.00000000000E+00 -0.00000000000E+00 -0.20859361820E+03  0.20859361820E+03  0.00000000000E+00 0. -1.
         25    2    1    2    0    0  0.31908235469E+02 -0.82444346913E+01 -0.88289047062E+02  0.15661605764E+03  0.12509007749E+03 0.  0.
         23    2    1    2    0    0 -0.31908235469E+02  0.82444346913E+01 -0.54981635868E+02  0.11730049582E+03  0.98236041468E+02 0.  0.
          5    1    3    3  502    0  0.54947905220E+01 -0.53045941137E+02  0.65559722374E+00  0.53497353222E+02  0.41800000000E+01 0.  1.
         -5    1    3    3    0  502  0.26413444947E+02  0.44801506446E+02 -0.88944644286E+02  0.10311870442E+03  0.41800000000E+01 0.  1.
        -11    1    4    4    0    0 -0.12145979530E+02 -0.23054306283E+02  0.20550068278E+02  0.33186309876E+02  0.00000000000E+00 0.  1.
         11    1    4    4    0    0 -0.19762255939E+02  0.31298740975E+02 -0.75531704145E+02  0.84114185947E+02  0.00000000000E+00 0. -1.
</event>
<event>
 8    1  0.6834011E-009  0.1114580E+03  0.7561462E-02  0.1257893E+00
         -2   -1    0    0    0  501 -0.00000000000E+00  0.00000000000E+00  0.79319588301E+03  0.79319588301E+03  0.00000000000E+00 0.  1.
          2   -1    0    0  501    0  0.00000000000E+00 -0.00000000000E+00 -0.24666928467E+02  0.24666928467E+02  0.00000000000E+00 0. -1.
         25    2    1    2    0    0 -0.77869802553E+02  0.39636722235E+02  0.51336932386E+03  0.53556545507E+03  0.12509003990E+03 0.  0.
         23    2    1    2    0    0  0.77869802553E+02 -0.39636722235E+02  0.25515963068E+03  0.28229735640E+03  0.83370164964E+02 0.  0.
          5    1    3    3  502    0 -0.80009584085E+02  0.13377222509E+02  0.14476067176E+03  0.16599279538E+03  0.41800000000E+01 0. -1.
         -5    1    3    3    0  502  0.21397815319E+01  0.26259499726E+02  0.36860865210E+03  0.36957265969E+03  0.41800000000E+01 0. -1.
        -11    1    4    4    0    0 -0.12912729459E+02 -0.17182991208E+02  0.20555357987E+02  0.29740822297E+02  0.00000000000E+00 0. -1.
         11    1    4    4    0    0  0.90782532012E+02 -0.22453731027E+02  0.23460427269E+03  0.25255653411E+03  0.00000000000E+00 0.  1.
</event>
<event>
 8    1  0.6834011E-009  0.1033586E+03  0.7561462E-02  0.1273388E+00
          2   -1    0    0  501    0  0.00000000000E+00  0.00000000000E+00  0.46021508873E+03  0.46021508873E+03  0.00000000000E+00 0. -1.
         -2   -1    0    0    0  501 -0.00000000000E+00 -0.00000000000E+00 -0.30183692571E+02  0.30183692571E+02  0.00000000000E+00 0.  1.
         25    2    1    2    0    0 -0.34516009508E+02  0.19961850776E+02  0.19707216960E+03  0.23680085049E+03  0.12508945744E+03 0.  0.
         23    2    1    2    0    0  0.34516009508E+02 -0.19961850776E+02  0.23295922655E+03  0.25359793081E+03  0.91935188446E+02 0.  0.
          5    1    3    3  502    0  0.35774986344E+02  0.83534930062E+01  0.12693392086E+02  0.39092519693E+02  0.41800000000E+01 0. -1.
         -5    1    3    3    0  502 -0.70290995852E+02  0.11608357769E+02  0.18437877752E+03  0.19770833080E+03  0.41800000000E+01 0. -1.
        -11    1    4    4    0    0  0.13076881621E+02 -0.55419802601E+02  0.15801866935E+03  0.16796505355E+03  0.00000000000E+00 0. -1.
         11    1    4    4    0    0  0.21439127887E+02  0.35457951826E+02  0.74940557208E+02  0.85632877254E+02  0.00000000000E+00 0.  1.
</event>
<event>
 8    1  0.6834011E-009  0.2906462E+03  0.7561462E-02  0.1090012E+00
         -3   -1    0    0    0  501 -0.00000000000E+00  0.00000000000E+00  0.65874540519E+02  0.65874540519E+02  0.00000000000E+00 0.  1.
          3   -1    0    0  501    0  0.00000000000E+00 -0.00000000000E+00 -0.16326396639E+04  0.16326396639E+04  0.00000000000E+00 0. -1.
         25    2    1    2    0    0 -0.26248031447E+03 -0.82109760187E+02 -0.11589093366E+04  0.11976456878E+04  0.12508563034E+03 0.  0.
         23    2    1    2    0    0  0.26248031447E+03  0.82109760187E+02 -0.40785578681E+03  0.50086851661E+03  0.94260277415E+02 0.  0.
          5    1    3    3  502    0 -0.11626921439E+03  0.22809887136E+02 -0.55278860753E+03  0.56535965383E+03  0.41800000000E+01 0. -1.
         -5    1    3    3    0  502 -0.14621110009E+03 -0.10491964732E+03 -0.60612072907E+03  0.63228603400E+03  0.41800000000E+01 0. -1.
        -11    1    4    4    0    0  0.12372985003E+03  0.46523378849E+01 -0.23792594448E+03  0.26821535208E+03  0.00000000000E+00 0. -1.
         11    1    4    4    0    0  0.13875046444E+03  0.77457422302E+02 -0.16992984233E+03  0.23265316454E+03  0.00000000000E+00 0.  1.
</event>
<event>
 8    1  0.6834011E-009  0.9789911E+02  0.7561462E-02  0.1284777E+00
          1   -1    0    0  501    0  0.00000000000E+00  0.00000000000E+00  0.10845494689E+04  0.10845494689E+04  0.00000000000E+00 0. -1.
         -1   -1    0    0    0  501 -0.00000000000E+00 -0.00000000000E+00 -0.15298087084E+02  0.15298087084E+02  0.00000000000E+00 0.  1.
         25    2    1    2    0    0  0.25734713259E+02 -0.54654214782E+02  0.69741477194E+03  0.71111490587E+03  0.12509071336E+03 0.  0.
         23    2    1    2    0    0 -0.25734713259E+02  0.54654214782E+02  0.37183660992E+03  0.38873265016E+03  0.95923147168E+02 0.  0.
          5    1    3    3  502    0 -0.15389235223E+02 -0.26622904650E+01  0.71774929231E+01  0.17689125358E+02  0.41800000000E+01 0.  1.
         -5    1    3    3    0  502  0.41123948482E+02 -0.51991924317E+02  0.69023727901E+03  0.69342578051E+03  0.41800000000E+01 0.  1.
        -11    1    4    4    0    0 -0.62280664631E+02  0.30037367736E+02  0.23678982286E+03  0.24667903206E+03  0.00000000000E+00 0.  1.
         11    1    4    4    0    0  0.36545951371E+02  0.24616847046E+02  0.13504678706E+03  0.14205361810E+03  0.00000000000E+00 0. -1.
</event>
<event>
 8    1  0.6834011E-009  0.1640289E+03  0.7561462E-02  0.1184222E+00
         -1   -1    0    0    0  501 -0.00000000000E+00  0.00000000000E+00  0.24721799915E+02  0.24721799915E+02  0.00000000000E+00 0.  1.
          1   -1    0    0  501    0  0.00000000000E+00 -0.00000000000E+00 -0.13168939395E+04  0.13168939395E+04  0.00000000000E+00 0. -1.
         25    2    1    2    0    0 -0.58672111591E+02 -0.11032132465E+03 -0.92318919469E+03  0.93996708898E+03  0.12508648135E+03 0.  0.
         23    2    1    2    0    0  0.58672111591E+02  0.11032132465E+03 -0.36898294490E+03  0.40164865045E+03  0.97775321133E+02 0.  0.
          5    1    3    3  502    0 -0.50407028604E+02 -0.13823057432E+03 -0.75189330990E+03  0.76616550567E+03  0.41800000000E+01 0. -1.
         -5    1    3    3    0  502 -0.82650829872E+01  0.27909249665E+02 -0.17129588480E+03  0.17380158331E+03  0.41800000000E+01 0. -1.
        -11    1    4    4    0    0  0.56254955193E+02  0.17941919353E+02 -0.88972136214E+02  0.10678283325E+03  0.00000000000E+00 0. -1.
         11    1    4    4    0    0  0.24171563983E+01  0.92379405301E+02 -0.28001080869E+03  0.29486581720E+03  0.00000000000E+00 0.  1.
</event>
<event>
 8    1  0.6834011E-009  0.1177502E+03  0.7561462E-02  0.1246855E+00
         -3   -1    0    0    0  501 -0.00000000000E+00  0.00000000000E+00  0.42979304136E+03  0.42979304136E+03  0.00000000000E+00 0.  1.
          3   -1    0    0  501    0  0.00000000000E+00 -0.00000000000E+00 -0.34244992473E+02  0.34244992473E+02  0.00000000000E+00 0. -1.
         25    2    1    2    0    0  0.43738159058E+02 -0.15930586401E+02  0.26477082265E+03  0.29650536120E+03  0.12508009655E+03 0.  0.
         23    2    1    2    0    0 -0.43738159058E+02  0.15930586401E+02  0.13077722624E+03  0.16753267263E+03  0.93796073246E+02 0.  0.
          5    1    3    3  502    0 -0.27153415184E+02 -0.46075861436E+02  0.80502705530E+02  0.96739087037E+02  0.41800000000E+01 0.  1.
         -5    1    3    3    0  502  0.70891574242E+02  0.30145275035E+02  0.18426811712E+03  0.19976627416E+03  0.41800000000E+01 0.  1.
        -11    1    4    4    0    0  0.29269331054E+02  0.11878145771E+02  0.38783914727E+02  0.50019757385E+02  0.00000000000E+00 0.  1.
         11    1    4    4    0    0 -0.73007490112E+02  0.40524406300E+01  0.91993311508E+02  0.11751291525E+03  0.00000000000E+00 0. -1.
</event>
<event>
 8    1  0.6834011E-009  0.1118640E+03  0.7561462E-02  0.1257157E+00
          1   -1    0    0  501    0  0.00000000000E+00  0.00000000000E+00  0.10237532270E+04  0.10237532270E+04  0.00000000000E+00 0. -1.
         -1   -1    0    0    0  501 -0.00000000000E+00 -0.00000000000E+00 -0.14097046630E+02  0.14097046630E+02  0.00000000000E+00 0.  1.
         25    2    1    2    0    0  0.45566609522E+02 -0.37641101430E+02  0.61533255699E+03  0.63069260659E+03  0.12508333179E+03 0.  0.
         23    2    1    2    0    0 -0.45566609522E+02  0.37641101430E+02  0.39432362337E+03  0.40715766704E+03  0.82420127733E+02 0.  0.
          5    1    3    3  502    0  0.65347597491E+00 -0.71835615818E+02  0.45514754870E+03  0.46080098330E+03  0.41800000000E+01 0. -1.
         -5    1    3    3    0  502  0.44913133548E+02  0.34194514388E+02  0.16018500830E+03  0.16989162328E+03  0.41800000000E+01 0. -1.
        -11    1    4    4    0    0  0.37242256273E+01  0.45151506807E+02  0.11852839767E+03  0.12689172344E+03  0.00000000000E+00 0.  1.
         11    1    4    4    0    0 -0.49290835150E+02 -0.75104053769E+01  0.27579522571E+03  0.28026594360E+03  0.00000000000E+00 0. -1.
</event>
<event>
 8    1  0.6834011E-009  0.9411268E+02  0.7561462E-02  0.1293187E+00
         -2   -1    0    0    0  501 -0.00000000000E+00  0.00000000000E+00  0.29439667136E+02  0.29439667136E+02  0.00000000000E+00 0. -1.
          2   -1    0    0  501    0  0.00000000000E+00 -0.00000000000E+00 -0.75594432275E+03  0.75594432275E+03  0.00000000000E+00 0.  1.
         25    2    1    2    0    0 -0.53761049033E+02 -0.64789684408E+02 -0.54431491079E+03  0.56481323387E+03  0.12508922199E+03 0.  0.
         23    2    1    2    0    0  0.53761049033E+02  0.64789684408E+02 -0.18218974483E+03  0.22057075601E+03  0.91489899377E+02 0.  0.
          5    1    3    3  502    0 -0.25386669267E+02 -0.70194031440E+02 -0.13386039364E+03  0.15332241327E+03  0.41800000000E+01 0. -1.
         -5    1    3    3    0  502 -0.28374379765E+02  0.54043470318E+01 -0.41045451715E+03  0.41149082061E+03  0.41800000000E+01 0. -1.
        -11    1    4    4    0    0  0.45924668660E+02  0.53080596797E+02 -0.19131504305E+03  0.20378437291E+03  0.00000000000E+00 0.  1.
         11    1    4    4    0    0  0.78363803722E+01  0.11709087611E+02  0.91252982163E+01  0.16786383099E+02  0.00000000000E+00 0. -1.
</event>
<event>
 8    1  0.6834011E-009  0.8602428E+02  0.7561462E-02  0.1312775E+00
          1   -1    0    0  501    0  0.00000000000E+00  0.00000000000E+00  0.12799032175E+03  0.12799032175E+03  0.00000000000E+00 0. -1.
         -1   -1    0    0    0  501 -0.00000000000E+00 -0.00000000000E+00 -0.12370918551E+03  0.12370918551E+03  0.00000000000E+00 0.  1.
         25    2    1    2    0    0  0.40905456715E+02  0.36572627356E+01 -0.45317772239E+02  0.13924205418E+03  0.12509203497E+03 0.  0.
         23    2    1    2    0    0 -0.40905456715E+02 -0.36572627356E+01  0.49598908480E+02  0.11245745307E+03  0.92195417831E+02 0.  0.
          5    1    3    3  502    0  0.53522389625E+02  0.35063760867E+02 -0.71652512121E+02  0.96154398810E+02  0.41800000000E+01 0. -1.
         -5    1    3    3    0  502 -0.12616932910E+02 -0.31406498132E+02  0.26334739883E+02  0.43087655374E+02  0.41800000000E+01 0. -1.
        -11    1    4    4    0    0 -0.32195934389E+02  0.26959179522E+02  0.64773381782E+02  0.77194342663E+02  0.00000000000E+00 0. -1.
         11    1    4    4    0    0 -0.87095223258E+01 -0.30616442257E+02 -0.15174473302E+02  0.35263110408E+02  0.00000000000E+00 0.  1.
</event>
<event>
 8    1  0.6834011E-009  0.8888394E+02  0.7561462E-02  0.1305577E+00
         -4   -1    0    0    0  501 -0.00000000000E+00  0.00000000000E+00  0.46765978958E+02  0.46765978958E+02  0.00000000000E+00 0. -1.
          4   -1    0    0  501    0  0.00000000000E+00 -0.00000000000E+00 -0.29983900960E+03  0.29983900960E+03  0.00000000000E+00 0.  1.
         25    2    1    2    0    0 -0.41810509490E+02  0.15929401709E+02 -0.14582442225E+03  0.19726989480E+03  0.12509510273E+03 0.  0.
         23    2    1    2    0    0  0.41810509490E+02 -0.15929401709E+02 -0.10724860839E+03  0.14933509376E+03  0.93791479802E+02 0.  0.
          5    1    3    3  502    0 -0.77900275325E+02  0.39733524019E+02 -0.11234756498E+03  0.14243122405E+03  0.41800000000E+01 0. -1.
         -5    1    3    3    0  502  0.36089765836E+02 -0.23804122310E+02 -0.33476857265E+02  0.54838670748E+02  0.41800000000E+01 0. -1.
        -11    1    4    4    0    0  0.18974085539E+02 -0.56869081354E-01  0.14859316407E+02  0.24100175108E+02  0.00000000000E+00 0. -1.
         11    1    4    4    0    0  0.22836423950E+02 -0.15872532627E+02 -0.12210792480E+03  0.12523491865E+03  0.00000000000E+00 0.  1.
</event>
<event>
 8    1  0.6834011E-009  0.1135215E+03  0.7561462E-02  0.1254184E+00
          2   -1    0    0  501    0  0.00000000000E+00  0.00000000000E+00  0.28991949429E+03  0.28991949429E+03  0.00000000000E+00 0. -1.
         -2   -1    0    0    0  501 -0.00000000000E+00 -0.00000000000E+00 -0.61246658733E+02  0.61246658733E+02  0.00000000000E+00 0.  1.
         25    2    1    2    0    0  0.28634880824E+01  0.43286225642E+02  0.20633462500E+03  0.24515971262E+03  0.12508960917E+03 0.  0.
         23    2    1    2    0    0 -0.28634880824E+01 -0.43286225642E+02  0.22338210555E+02  0.10600644040E+03  0.94108835196E+02 0.  0.
          5    1    3    3  502    0  0.57839812387E+02  0.44913828976E+02  0.87711040139E+02  0.11433894740E+03  0.41800000000E+01 0. -1.
         -5    1    3    3    0  502 -0.54976324305E+02 -0.16276033336E+01  0.11862358486E+03  0.13082076522E+03  0.41800000000E+01 0. -1.
        -11    1    4    4    0    0  0.37445881327E+02  0.25039978112E+01 -0.72204245445E+01  0.38217778114E+02  0.00000000000E+00 0.  1.
         11    1    4    4    0    0 -0.40309369409E+02 -0.45790223453E+02  0.29558635100E+02  0.67788662289E+02  0.00000000000E+00 0. -1.
</event>
<event>
 8    1  0.6834011E-009  0.1060316E+03  0.7561462E-02  0.1268100E+00
         -1   -1    0    0    0  501 -0.00000000000E+00  0.00000000000E+00  0.16224341134E+03  0.16224341134E+03  0.00000000000E+00 0.  1.
          1   -1    0    0  501    0  0.00000000000E+00 -0.00000000000E+00 -0.12720189964E+03  0.12720189964E+03  0.00000000000E+00 0. -1.
         25    2    1    2    0    0 -0.66417757744E+02  0.44671465311E+02 -0.32625291711E+02  0.15204708308E+03  0.12508815874E+03 0.  0.
         23    2    1    2    0    0  0.66417757744E+02 -0.44671465311E+02  0.67666803408E+02  0.13739822790E+03  0.88840409661E+02 0.  0.
          5    1    3    3  502    0 -0.58438510604E+02  0.61355603474E+02 -0.70099074241E+02  0.11004963520E+03  0.41800000000E+01 0. -1.
         -5    1    3    3    0  502 -0.79792471405E+01 -0.16684138163E+02  0.37473782530E+02  0.41997447878E+02  0.41800000000E+01 0. -1.
        -11    1    4    4    0    0  0.60037362546E+02  0.30562368149E+01  0.78764519885E+01  0.60628903840E+02  0.00000000000E+00 0. -1.
         11    1    4    4    0    0  0.63803951984E+01 -0.47727702126E+02  0.59790351420E+02  0.76769324056E+02  0.00000000000E+00 0.  1.
</event>
<event>
 8    1  0.6834011E-009  0.2038188E+03  0.7561462E-02  0.1146556E+00
         -2   -1    0    0    0  501 -0.00000000000E+00  0.00000000000E+00  0.64436564529E+02  0.64436564529E+02  0.00000000000E+00 0.  1.
          2   -1    0    0  501    0  0.00000000000E+00 -0.00000000000E+00 -0.66775663968E+03  0.66775663968E+03  0.00000000000E+00 0. -1.
         25    2    1    2    0    0  0.17527072297E+03  0.17572538997E+02 -0.33155622815E+03  0.39573460647E+03  0.12509087047E+03 0.  0.
         23    2    1    2    0    0 -0.17527072297E+03 -0.17572538997E+02 -0.27176384700E+03  0.33645859774E+03  0.91215015218E+02 0.  0.
          5    1    3    3  502    0  0.17206247483E+03  0.52100740780E+02 -0.29232952887E+03  0.34321131725E+03  0.41800000000E+01 0. -1.
         -5    1    3    3    0  502  0.32082481358E+01 -0.34528201783E+02 -0.39226699279E+02  0.52523289223E+02  0.41800000000E+01 0. -1.
        -11    1    4    4    0    0 -0.13972948300E+03 -0.46282356797E+02 -0.16974929160E+03  0.22468023270E+03  0.00000000000E+00 0.  1.
         11    1    4    4    0    0 -0.35541239970E+02  0.28709817800E+02 -0.10201455540E+03  0.11177836504E+03  0.00000000000E+00 0. -1.
</event>
<event>
 8    1  0.6834011E-009  0.1291712E+03  0.7561462E-02  0.1228691E+00
         -2   -1    0    0    0  501 -0.00000000000E+00  0.00000000000E+00  0.99263486575E+03  0.99263486575E+03  0.00000000000E+00 0.  1.
          2   -1    0    0  501    0  0.00000000000E+00 -0.00000000000E+00 -0.24042145437E+02  0.24042145437E+02  0.00000000000E+00 0. -1.
         25    2    1    2    0    0 -0.79080777088E+00 -0.10830132257E+03  0.55402302491E+03  0.57819999479E+03  0.12507565711E+03 0.  0.
         23    2    1    2    0    0  0.79080777088E+00  0.10830132257E+03  0.41456969541E+03  0.43847701640E+03  0.93082005308E+02 0.  0.
          5    1    3    3  502    0 -0.23941292028E+02  0.12217505469E+02  0.23149467797E+03  0.23308734679E+03  0.41800000000E+01 0.  1.
         -5    1    3    3    0  502  0.23150484257E+02 -0.12051882804E+03  0.32252834693E+03  0.34511264800E+03  0.41800000000E+01 0.  1.
        -11    1    4    4    0    0  0.14528350391E+01  0.24159887033E+02  0.11643456414E+02  0.26858535857E+02  0.00000000000E+00 0. -1.
         11    1    4    4    0    0 -0.66202726817E+00  0.84141435538E+02  0.40292623899E+03  0.41161848054E+03  0.00000000000E+00 0.  1.
</event>
<event>
 8    1  0.6834011E-009  0.2239884E+03  0.7561462E-02  0.1130944E+00
         -1   -1    0    0    0  501 -0.00000000000E+00  0.00000000000E+00  0.92732388963E+02  0.92732388963E+02  0.00000000000E+00 0.  1.
          1   -1    0    0  501    0  0.00000000000E+00 -0.00000000000E+00 -0.59851476306E+03  0.59851476306E+03  0.00000000000E+00 0. -1.
         25    2    1    2    0    0 -0.65880395589E+02  0.19571589978E+03 -0.22894303750E+03  0.33272764129E+03  0.12509128230E+03 0.  0.
         23    2    1    2    0    0  0.65880395589E+02 -0.19571589978E+03 -0.27683933660E+03  0.35851951073E+03  0.96183581433E+02 0.  0.
          5    1    3    3  502    0 -0.92863854868E+02  0.99296672729E+02 -0.16507500731E+03  0.21389426172E+03  0.41800000000E+01 0.  1.
         -5    1    3    3    0  502  0.26983459280E+02  0.96419227056E+02 -0.63868030185E+02  0.11883337957E+03  0.41800000000E+01 0.  1.
        -11    1    4    4    0    0  0.12636112489E+02 -0.11080741146E+03 -0.78771022027E+02  0.13653874060E+03  0.00000000000E+00 0.  1.
         11    1    4    4    0    0  0.53244283100E+02 -0.84908488325E+02 -0.19806831457E+03  0.22198077013E+03  0.00000000000E+00 0. -1.
</event>
<event>
 8    1  0.6834011E-009  0.1153836E+03  0.7561462E-02  0.1250913E+00
          1   -1    0    0  501    0  0.00000000000E+00  0.00000000000E+00  0.78372860339E+02  0.78372860339E+02  0.00000000000E+00 0. -1.
         -1   -1    0    0    0  501 -0.00000000000E+00 -0.00000000000E+00 -0.27165451897E+03  0.27165451897E+03  0.00000000000E+00 0.  1.
         25    2    1    2    0    0 -0.70600250181E+02 -0.62200387202E+02 -0.67218834213E+02  0.17034914664E+03  0.12508867493E+03 0.  0.
         23    2    1    2    0    0  0.70600250181E+02  0.62200387202E+02 -0.12606282442E+03  0.17967823267E+03  0.86828267864E+02 0.  0.
          5    1    3    3  502    0  0.46876505700E+01 -0.85957492310E+01 -0.76620676456E+02  0.77356715503E+02  0.41800000000E+01 0.  1.
         -5    1    3    3    0  502 -0.75287900751E+02 -0.53604637971E+02  0.94018422434E+01  0.92992431139E+02  0.41800000000E+01 0.  1.
        -11    1    4    4    0    0  0.14761861932E+02  0.69717627411E+02 -0.77638081332E+02  0.10538563381E+03  0.00000000000E+00 0. -1.
         11    1    4    4    0    0  0.55838388249E+02 -0.75172402092E+01 -0.48424743084E+02  0.74292598860E+02  0.00000000000E+00 0.  1.
</event>
<event>
 8    1  0.6834011E-009  0.1000565E+03  0.7561462E-02  0.1280177E+00
         -1   -1    0    0    0  501 -0.00000000000E+00  0.00000000000E+00  0.22053806944E+02  0.22053806944E+02  0.00000000000E+00 0.  1.
          1   -1    0    0  501    0  0.00000000000E+00 -0.00000000000E+00 -0.64688759805E+03  0.64688759805E+03  0.00000000000E+00 0. -1.
         25    2    1    2    0    0  0.29153755045E+01  0.50105124457E+02 -0.36869300804E+03  0.39255856482E+03  0.12509464306E+03 0.  0.
         23    2    1    2    0    0 -0.29153755045E+01 -0.50105124457E+02 -0.25614078307E+03  0.27638284018E+03  0.90886471402E+02 0.  0.
          5    1    3    3  502    0 -0.33102238863E+02 -0.28269792714E+02 -0.17682734900E+03  0.18215466822E+03  0.41800000000E+01 0.  1.
         -5    1    3    3    0  502  0.36017614368E+02  0.78374917171E+02 -0.19186565903E+03  0.21040389660E+03  0.41800000000E+01 0.  1.
        -11    1    4    4    0    0  0.22459612458E+02 -0.16273808219E+02 -0.14941624957E+02  0.31504335925E+02  0.00000000000E+00 0.  1.
         11    1    4    4    0    0 -0.25374987963E+02 -0.33831316239E+02 -0.24119915811E+03  0.24487850426E+03  0.00000000000E+00 0. -1.
</event>
<event>
 8    1  0.6834011E-009  0.1017238E+03  0.7561462E-02  0.1276712E+00
         -1   -1    0    0    0  501 -0.00000000000E+00  0.00000000000E+00  0.65682397430E+02  0.65682397430E+02  0.00000000000E+00 0.  1.
          1   -1    0    0  501    0  0.00000000000E+00 -0.00000000000E+00 -0.22043395764E+03  0.22043395764E+03  0.00000000000E+00 0. -1.
         25    2    1    2    0    0 -0.11931219223E+02  0.22915410883E+01 -0.26344860982E+02  0.12840794962E+03  0.12508774789E+03 0.  0.
         23    2    1    2    0    0  0.11931219223E+02 -0.22915410883E+01 -0.12840669923E+03  0.15770840545E+03  0.90752716709E+02 0.  0.
          5    1    3    3  502    0 -0.42436245076E+02  0.51794947787E+02 -0.97505346784E+01  0.67794519240E+02  0.41800000000E+01 0. -1.
         -5    1    3    3    0  502  0.30505025853E+02 -0.49503406699E+02 -0.16594326304E+02  0.60613430381E+02  0.41800000000E+01 0. -1.
        -11    1    4    4    0    0  0.35734046648E+02  0.23651424881E+02 -0.27702450817E+02  0.51026833823E+02  0.00000000000E+00 0.  1.
         11    1    4    4    0    0 -0.23802827426E+02 -0.25942965969E+02 -0.10070424841E+03  0.10668157162E+03  0.00000000000E+00 0. -1.
</event>
<event>
 8    1  0.6834011E-009  0.1785722E+03  0.7561462E-02  0.1169192E+00
         -1   -1    0    0    0  501 -0.00000000000E+00  0.00000000000E+00  0.80690196007E+02  0.80690196007E+02  0.00000000000E+00 0.  1.
          1   -1    0    0  501    0  0.00000000000E+00 -0.00000000000E+00 -0.45380691705E+03  0.45380691705E+03  0.00000000000E+00 0. -1.
         25    2    1    2    0    0  0.23509085440E+02  0.14917196483E+03 -0.12845003416E+03  0.23441056880E+03  0.12507578223E+03 0.  0.
         23    2    1    2    0    0 -0.23509085440E+02 -0.14917196483E+03 -0.24466668688E+03  0.30008654425E+03  0.85937152541E+02 0.  0.
          5    1    3    3  502    0  0.62361681621E+02  0.40389466364E+02 -0.79471299715E+02  0.10887354227E+03  0.41800000000E+01 0. -1.
         -5    1    3    3    0  502 -0.38852596181E+02  0.10878249846E+03 -0.48978734450E+02  0.12553702653E+03  0.41800000000E+01 0. -1.
        -11    1    4    4    0    0 -0.48488277252E+02 -0.79438851202E+02 -0.94443237614E+02  0.13259400153E+03  0.00000000000E+00 0.  1.
         11    1    4    4    0    0  0.24979191813E+02 -0.69733113626E+02 -0.15022344926E+03  0.16749254272E+03  0.00000000000E+00 0. -1.
</event>
<event>
 8    1  0.6834011E-009  0.1439414E+03  0.7561462E-02  0.1208122E+00
          2   -1    0    0  501    0  0.00000000000E+00  0.00000000000E+00  0.41798779891E+03  0.41798779891E+03  0.00000000000E+00 0. -1.
         -2   -1    0    0    0  501 -0.00000000000E+00 -0.00000000000E+00 -0.60672606084E+02  0.60672606084E+02  0.00000000000E+00 0.  1.
         25    2    1    2    0    0 -0.10781805527E+03  0.44466641603E+02  0.21694179722E+03  0.27624846951E+03  0.12508980083E+03 0.  0.
         23    2    1    2    0    0  0.10781805527E+03 -0.44466641603E+02  0.14037339561E+03  0.20241193548E+03  0.87543624394E+02 0.  0.
          5    1    3    3  502    0 -0.47033954231E+01  0.64488827822E+02  0.67817606772E+02  0.93795687698E+02  0.41800000000E+01 0. -1.
         -5    1    3    3    0  502 -0.10311465985E+03 -0.20022186219E+02  0.14912419044E+03  0.18245278181E+03  0.41800000000E+01 0. -1.
        -11    1    4    4    0    0  0.85326460425E+02 -0.27031106459E+02  0.14799026052E+03  0.17295202449E+03  0.00000000000E+00 0. -1.
         11    1    4    4    0    0  0.22491594846E+02 -0.17435535144E+02 -0.76168649144E+01  0.29459910991E+02  0.00000000000E+00 0.  1.
</event>
<event>
 8    1  0.6834011E-009  0.2873076E+03  0.7561462E-02  0.1091763E+00
         -2   -1    0    0    0  501 -0.00000000000E+00  0.00000000000E+00  0.62025750723E+02  0.62025750723E+02  0.00000000000E+00 0. -1.
          2   -1    0    0  501    0  0.00000000000E+00 -0.00000000000E+00 -0.14204958817E+04  0.14204958817E+04  0.00000000000E+00 0.  1.
         25    2    1    2    0    0 -0.12944596078E+03 -0.24138908879E+03 -0.76997109125E+03  0.82675736766E+03  0.12508922686E+03 0.  0.
         23    2    1    2    0    0  0.12944596078E+03  0.24138908879E+03 -0.58849903975E+03  0.65576426478E+03  0.93116605544E+02 0.  0.
          5    1    3    3  502    0 -0.32554084704E+01 -0.97876540164E+02 -0.38029648621E+03  0.39272548252E+03  0.41800000000E+01 0.  1.
         -5    1    3    3    0  502 -0.12619055231E+03 -0.14351254863E+03 -0.38967460504E+03  0.43403188514E+03  0.41800000000E+01 0.  1.
        -11    1    4    4    0    0  0.11965707420E+03  0.14250001445E+03 -0.33037010930E+03  0.37916814033E+03  0.00000000000E+00 0.  1.
         11    1    4    4    0    0  0.97888865793E+01  0.98889074337E+02 -0.25812893045E+03  0.27659612444E+03  0.00000000000E+00 0. -1.
</event>
<event>
 8    1  0.6834011E-009  0.1147813E+03  0.7561462E-02  0.1251963E+00
          2   -1    0    0  501    0  0.00000000000E+00  0.00000000000E+00  0.13418817138E+02  0.13418817138E+02  0.00000000000E+00 0. -1.
         -2   -1    0    0    0  501 -0.00000000000E+00 -0.00000000000E+00 -0.12680251899E+04  0.12680251899E+04  0.00000000000E+00 0.  1.
         25    2    1    2    0    0 -0.51520068206E+02  0.54100875697E+02 -0.71520651105E+03  0.72989669283E+03  0.12509039364E+03 0.  0.
         23    2    1    2    0    0  0.51520068206E+02 -0.54100875697E+02 -0.53939986167E+03  0.55154731417E+03  0.87584284049E+02 0.  0.
          5    1    3    3  502    0 -0.20900302813E+02 -0.23152101511E+02 -0.46812675003E+03  0.46918329996E+03  0.41800000000E+01 0.  1.
         -5    1    3    3    0  502 -0.30619765393E+02  0.77252977209E+02 -0.24707976101E+03  0.26071339287E+03  0.41800000000E+01 0.  1.
        -11    1    4    4    0    0 -0.24404142964E+02 -0.20455612329E+02 -0.13438001328E+03  0.13810134770E+03  0.00000000000E+00 0.  1.
         11    1    4    4    0    0  0.75924211170E+02 -0.33645263368E+02 -0.40501984840E+03  0.41344596646E+03  0.00000000000E+00 0. -1.
</event>
<event>
 8    1  0.6834011E-009  0.8381364E+02  0.7561462E-02  0.1318564E+00
         -2   -1    0    0    0  501 -0.00000000000E+00  0.00000000000E+00  0.57107779093E+03  0.57107779093E+03  0.00000000000E+00 0. -1.
          2   -1    0    0  501    0  0.00000000000E+00 -0.00000000000E+00 -0.31723742150E+02  0.31723742150E+02  0.00000000000E+00 0.  1.
         25    2    1    2    0    0  0.14008984022E+02  0.40627609190E+02  0.42509325347E+03  0.44519613596E+03  0.12509384905E+03 0.  0.
         23    2    1    2    0    0 -0.14008984022E+02 -0.40627609190E+02  0.11426079531E+03  0.15760539712E+03  0.99684891499E+02 0.  0.
          5    1    3    3  502    0 -0.15882972827E+02  0.56793839290E+02  0.85898781921E+02  0.10427790822E+03  0.41800000000E+01 0. -1.
         -5    1    3    3    0  502  0.29891956849E+02 -0.16166230100E+02  0.33919447154E+03  0.34091822774E+03  0.41800000000E+01 0. -1.
        -11    1    4    4    0    0  0.69341870644E+01  0.14075944501E+02  0.94488849946E+02  0.95782868656E+02  0.00000000000E+00 0. -1.
         11    1    4    4    0    0 -0.20943171086E+02 -0.54703553692E+02  0.19771945365E+02  0.61822528460E+02  0.00000000000E+00 0.  1.
</event>
<event>
 8    1  0.6834011E-009  0.9315930E+02  0.7561462E-02  0.1295376E+00
         -1   -1    0    0    0  501 -0.00000000000E+00  0.00000000000E+00  0.36685214958E+03  0.36685214958E+03  0.00000000000E+00 0.  1.
          1   -1    0    0  501    0  0.00000000000E+00 -0.00000000000E+00 -0.51780271374E+02  0.51780271374E+02  0.00000000000E+00 0. -1.
         25    2    1    2    0    0  0.45385933741E+02  0.30799816163E+02  0.27097085748E+03  0.30344921665E+03  0.12509080631E+03 0.  0.
         23    2    1    2    0    0 -0.45385933741E+02 -0.30799816163E+02  0.44101020731E+02  0.11518320431E+03  0.91179816124E+02 0.  0.
          5    1    3    3  502    0 -0.78831989105E+01  0.64588216052E+02  0.18900467150E+03  0.19993504127E+03  0.41800000000E+01 0. -1.
         -5    1    3    3    0  502  0.53269132651E+02 -0.33788399889E+02  0.81966185973E+02  0.10351417537E+03  0.41800000000E+01 0. -1.
        -11    1    4    4    0    0 -0.22046139985E+02 -0.40823013183E+01 -0.27376438082E+02  0.35385969456E+02  0.00000000000E+00 0. -1.
         11    1    4    4    0    0 -0.23339793756E+02 -0.26717514844E+02  0.71477458813E+02  0.79797234854E+02  0.00000000000E+00 0.  1.
</event>
<event>
 8    1  0.6834011E-009  0.8645123E+02  0.7561462E-02  0.1311680E+00
          2   -1    0    0  501    0  0.00000000000E+00  0.00000000000E+00  0.89014767681E+03  0.89014767681E+03  0.00000000000E+00 0. -1.
         -2   -1    0    0    0  501 -0.00000000000E+00 -0.00000000000E+00 -0.16104184010E+02  0.16104184010E+02  0.00000000000E+00 0.  1.
         25    2    1    2    0    0 -0.63698288100E+01  0.36706840959E+02  0.61197365097E+03  0.62573740095E+03  0.12509028172E+03 0.  0.
         23    2    1    2    0    0  0.63698288100E+01 -0.36706840959E+02  0.26206984183E+03  0.28051445987E+03  0.92842841966E+02 0.  0.
          5    1    3    3  502    0  0.90759801329E+01  0.53099475449E+02  0.59443771044E+03  0.59688825730E+03  0.41800000000E+01 0.  1.
         -5    1    3    3    0  502 -0.15445808943E+02 -0.16392634490E+02  0.17535940529E+02  0.28849143656E+02  0.41800000000E+01 0.  1.
        -11    1    4    4    0    0  0.47167461909E+02 -0.25664703868E+02  0.10603295612E+03  0.11885467711E+03  0.00000000000E+00 0.  1.
         11    1    4    4    0    0 -0.40797633099E+02 -0.11042137091E+02  0.15603688571E+03  0.16165978276E+03  0.00000000000E+00 0. -1.
</event>
<event>
 8    1  0.6834011E-009  0.8635034E+02  0.7561462E-02  0.1311939E+00
          3   -1    0    0  501    0  0.00000000000E+00  0.00000000000E+00  0.27715053942E+03  0.27715053942E+03  0.00000000000E+00 0. -1.
         -3   -1    0    0    0  501 -0.00000000000E+00 -0.00000000000E+00 -0.43874456335E+02  0.43874456335E+02  0.00000000000E+00 0.  1.
         25    2    1    2    0    0  0.20562325069E+02  0.96565520339E+01  0.13653402961E+03  0.18656215110E+03  0.12509131373E+03 0.  0.
         23    2    1    2    0    0 -0.20562325069E+02 -0.96565520339E+01  0.96742053474E+02  0.13446284466E+03  0.90582412604E+02 0.  0.
          5    1    3    3  502    0 -0.22652448486E+02  0.25581915370E+02  0.13602595550E+03  0.14031429288E+03  0.41800000000E+01 0. -1.
         -5    1    3    3    0  502  0.43214773555E+02 -0.15925363336E+02  0.50807411288E+00  0.46247858222E+02  0.41800000000E+01 0. -1.
        -11    1    4    4    0    0 -0.40739697614E+02 -0.39014524011E+02  0.47849906218E+02  0.73969382657E+02  0.00000000000E+00 0.  1.
         11    1    4    4    0    0  0.20177372545E+02  0.29357971977E+02  0.48892147256E+02  0.60493462000E+02  0.00000000000E+00 0. -1.
</event>
<event>
 8    1  0.6834011E-009  0.8121515E+02  0.7561462E-02  0.1325638E+00
         -4   -1    0    0    0  501 -0.00000000000E+00  0.00000000000E+00  0.28474411621E+03  0.28474411621E+03  0.00000000000E+00 0.  1.
          4   -1    0    0  501    0  0.00000000000E+00 -0.00000000000E+00 -0.51120466850E+02  0.51120466850E+02  0.00000000000E+00 0. -1.
         25    2    1    2    0    0  0.36888310359E+02 -0.36908860301E+02  0.10291293724E+03  0.17018200904E+03  0.12509129523E+03 0.  0.
         23    2    1    2    0    0 -0.36888310359E+02  0.36908860301E+02  0.13071071213E+03  0.16568257402E+03  0.87420899436E+02 0.  0.
          5    1    3    3  502    0 -0.84466565695E+01 -0.40852360498E+02  0.11542414253E+03  0.12280255065E+03  0.41800000000E+01 0. -1.
         -5    1    3    3    0  502  0.45334966929E+02  0.39435001971E+01 -0.12511205297E+02  0.47379458399E+02  0.41800000000E+01 0. -1.
        -11    1    4    4    0    0 -0.34592828596E+02 -0.31010254339E+01  0.11895003870E+03  0.12391687478E+03  0.00000000000E+00 0.  1.
         11    1    4    4    0    0 -0.22954817631E+01  0.40009885735E+02  0.11760673426E+02  0.41765699234E+02  0.00000000000E+00 0. -1.
</event>
<event>
 8    1  0.6834011E-009  0.1279123E+03  0.7561462E-02  0.1230587E+00
         -2   -1    0    0    0  501 -0.00000000000E+00  0.00000000000E+00  0.45002148384E+02  0.45002148384E+02  0.00000000000E+00 0.  1.
          2   -1    0    0  501    0  0.00000000000E+00 -0.00000000000E+00 -0.51930822314E+03  0.51930822314E+03  0.00000000000E+00 0. -1.
         25    2    1    2    0    0  0.24382578598E+02 -0.80860255687E+02 -0.37755958151E+03  0.40661012990E+03  0.12509064336E+03 0.  0.
         23    2    1    2    0    0 -0.24382578598E+02  0.80860255687E+02 -0.96746493243E+02  0.15770024162E+03  0.91523719134E+02 0.  0.
          5    1    3    3  502    0  0.11529120668E+02  0.23318646726E+02 -0.18843289224E+03  0.19026588550E+03  0.41800000000E+01 0.  1.
         -5    1    3    3    0  502  0.12853457929E+02 -0.10417890241E+03 -0.18912668927E+03  0.21634424440E+03  0.41800000000E+01 0.  1.
        -11    1    4    4    0    0 -0.59189049079E+02  0.57403777972E+02 -0.60931594364E+02  0.10252412618E+03  0.00000000000E+00 0. -1.
         11    1    4    4    0    0  0.34806470481E+02  0.23456477715E+02 -0.35814898879E+02  0.55176115448E+02  0.00000000000E+00 0.  1.
</event>
<event>
 8    1  0.6834011E-009  0.9809325E+02  0.7561462E-02  0.1284357E+00
          2   -1    0    0  501    0  0.00000000000E+00  0.00000000000E+00  0.27780337450E+03  0.27780337450E+03  0.00000000000E+00 0. -1.
         -2   -1    0    0    0  501 -0.00000000000E+00 -0.00000000000E+00 -0.48412115300E+02  0.48412115300E+02  0.00000000000E+00 0.  1.
         25    2    1    2    0    0 -0.36950085333E+02 -0.19916470402E+02  0.12446496312E+03  0.18138676400E+03  0.12509059322E+03 0.  0.
         23    2    1    2    0    0  0.36950085333E+02  0.19916470402E+02  0.10492629609E+03  0.14482872580E+03  0.90575148952E+02 0.  0.
          5    1    3    3  502    0 -0.56538577402E+02  0.13819778843E+02  0.85052425124E+01  0.58969556316E+02  0.41800000000E+01 0. -1.
         -5    1    3    3    0  502  0.19588492069E+02 -0.33736249245E+02  0.11595972060E+03  0.12241720768E+03  0.41800000000E+01 0. -1.
        -11    1    4    4    0    0 -0.97921812102E+01  0.44653807432E+02  0.37440374684E+02  0.59090024433E+02  0.00000000000E+00 0.  1.
         11    1    4    4    0    0  0.46742266543E+02 -0.24737337030E+02  0.67485921403E+02  0.85738701369E+02  0.00000000000E+00 0. -1.
</event>
<event>
 8    1  0.6834011E-009  0.7793694E+02  0.7561462E-02  0.1335010E+00
          4   -1    0    0  501    0  0.00000000000E+00  0.00000000000E+00  0.45539911590E+03  0.45539911590E+03  0.00000000000E+00 0. -1.
         -4   -1    0    0    0  501 -0.00000000000E+00 -0.00000000000E+00 -0.36377963898E+02  0.36377963898E+02  0.00000000000E+00 0.  1.
         25    2    1    2    0    0 -0.87518181139E+01  0.21297329296E+01  0.35369485571E+03  0.37527110737E+03  0.12508886038E+03 0.  0.
         23    2    1    2    0    0  0.87518181139E+01 -0.21297329296E+01  0.65326296295E+02  0.11650597243E+03  0.96046793497E+02 0.  0.
          5    1    3    3  502    0 -0.18727063262E+00  0.29931263561E+02  0.12325599510E+02  0.32639062669E+02  0.41800000000E+01 0.  1.
         -5    1    3    3    0  502 -0.85645474813E+01 -0.27801530631E+02  0.34136925620E+03  0.34263204470E+03  0.41800000000E+01 0.  1.
        -11    1    4    4    0    0  0.36700924204E+02 -0.36635704911E+02  0.38976638813E+02  0.64871496706E+02  0.00000000000E+00 0.  1.
         11    1    4    4    0    0 -0.27949106090E+02  0.34505971982E+02  0.26349657482E+02  0.51634475721E+02  0.00000000000E+00 0. -1.
</event>
<event>
 8    1  0.6834011E-009  0.1243806E+03  0.7561462E-02  0.1236041E+00
          1   -1    0    0  501    0  0.00000000000E+00  0.00000000000E+00  0.77021652338E+03  0.77021652338E+03  0.00000000000E+00 0. -1.
         -1   -1    0    0    0  501 -0.00000000000E+00 -0.00000000000E+00 -0.28256434270E+02  0.28256434270E+02  0.00000000000E+00 0.  1.
         25    2    1    2    0    0 -0.92880301544E+02  0.79232854099E+01  0.46351954527E+03  0.48906767475E+03  0.12508913932E+03 0.  0.
         23    2    1    2    0    0  0.92880301544E+02 -0.79232854099E+01  0.27844054385E+03  0.30940528290E+03  0.97534423479E+02 0.  0.
          5    1    3    3  502    0 -0.76376960984E+01 -0.21885579516E+02  0.31011252498E+03  0.31100572911E+03  0.41800000000E+01 0. -1.
         -5    1    3    3    0  502 -0.85242605446E+02  0.29808864926E+02  0.15340702029E+03  0.17806194564E+03  0.41800000000E+01 0. -1.
        -11    1    4    4    0    0  0.11304869992E+03  0.23849786285E+00  0.22874006947E+03  0.25515110193E+03  0.00000000000E+00 0. -1.
         11    1    4    4    0    0 -0.20168398381E+02 -0.81617832728E+01  0.49700474380E+02  0.54254180973E+02  0.00000000000E+00 0.  1.
</event>
<event>
 8    1  0.6834011E-009  0.1135510E+03  0.7561462E-02  0.1254132E+00
         -1   -1    0    0    0  501 -0.00000000000E+00  0.00000000000E+00  0.68251209541E+02  0.68251209541E+02  0.00000000000E+00 0.  1.
          1   -1    0    0  501    0  0.00000000000E+00 -0.00000000000E+00 -0.19833262648E+03  0.19833262648E+03  0.00000000000E+00 0. -1.
         25    2    1    2    0    0 -0.37542228469E+02  0.86827812026E+01 -0.59375475925E+02  0.14372610569E+03  0.12508771605E+03 0.  0.
         23    2    1    2    0    0  0.37542228469E+02 -0.86827812026E+01 -0.70705941013E+02  0.12285773033E+03  0.92789450909E+02 0.  0.
          5    1    3    3  502    0 -0.56786332472E+02 -0.43757141482E+02 -0.17847758602E+02  0.73995877408E+02  0.41800000000E+01 0. -1.
         -5    1    3    3    0  502  0.19244104003E+02  0.52439922684E+02 -0.41527717323E+02  0.69730228281E+02  0.41800000000E+01 0. -1.
        -11    1    4    4    0    0  0.40438571476E+02  0.36214760126E+02 -0.29170004657E+02  0.61625287713E+02  0.00000000000E+00 0.  1.
         11    1    4    4    0    0 -0.28963430077E+01 -0.44897541328E+02 -0.41535936356E+02  0.61232442619E+02  0.00000000000E+00 0. -1.
</event>
<event>
 8    1  0.6834011E-009  0.1393238E+03  0.7561462E-02  0.1214242E+00
         -1   -1    0    0    0  501 -0.00000000000E+00  0.00000000000E+00  0.60073822339E+02  0.60073822339E+02  0.00000000000E+00 0.  1.
          1   -1    0    0  501    0  0.00000000000E+00 -0.00000000000E+00 -0.51502090008E+03  0.51502090008E+03  0.00000000000E+00 0. -1.
         25    2    1    2    0    0 -0.93282326547E+02  0.99961124496E+02 -0.27088707692E+03  0.32820956428E+03  0.12509152964E+03 0.  0.
         23    2    1    2    0    0  0.93282326547E+02 -0.99961124496E+02 -0.18406000082E+03  0.24688515814E+03  0.91544407523E+02 0.  0.
          5    1    3    3  502    0 -0.55583426473E+02  0.43712900910E+02 -0.28242107464E+02  0.76258927599E+02  0.41800000000E+01 0.  1.
         -5    1    3    3    0  502 -0.37698900074E+02  0.56248223586E+02 -0.24264496946E+03  0.25195063668E+03  0.41800000000E+01 0.  1.
        -11    1    4    4    0    0  0.59191703251E+02 -0.82857840454E+02 -0.18216951750E+03  0.20869789784E+03  0.00000000000E+00 0. -1.
         11    1    4    4    0    0  0.34090623296E+02 -0.17103284042E+02 -0.18904833269E+01  0.38187260296E+02  0.00000000000E+00 0.  1.
</event>
<event>
 8    1  0.6834011E-009  0.1713338E+03  0.7561462E-02  0.1176464E+00
         -3   -1    0    0    0  501 -0.00000000000E+00  0.00000000000E+00  0.38372927427E+02  0.38372927427E+02  0.00000000000E+00 0.  1.
          3   -1    0    0  501    0  0.00000000000E+00 -0.00000000000E+00 -0.79216027962E+03  0.79216027962E+03  0.00000000000E+00 0. -1.
         25    2    1    2    0    0  0.29232671680E+02 -0.13156023641E+03 -0.40979393079E+03  0.44916030093E+03  0.12510501718E+03 0.  0.
         23    2    1    2    0    0 -0.29232671680E+02  0.13156023641E+03 -0.34399342141E+03  0.38137290612E+03  0.94610647679E+02 0.  0.
          5    1    3    3  502    0  0.44007611726E+02  0.67357908790E+01 -0.96587707923E+02  0.10643635887E+03  0.41800000000E+01 0. -1.
         -5    1    3    3    0  502 -0.14774940046E+02 -0.13829602729E+03 -0.31320622287E+03  0.34272394206E+03  0.41800000000E+01 0. -1.
        -11    1    4    4    0    0  0.24832152080E+02  0.81227599308E+02 -0.23344066876E+03  0.24841317296E+03  0.00000000000E+00 0.  1.
         11    1    4    4    0    0 -0.54064823760E+02  0.50332637099E+02 -0.11055275264E+03  0.13295973316E+03  0.00000000000E+00 0. -1.
</event>
<event>
 8    1  0.6834011E-009  0.1003920E+03  0.7561462E-02  0.1279474E+00
          1   -1    0    0  501    0  0.00000000000E+00  0.00000000000E+00  0.11319783173E+04  0.11319783173E+04  0.00000000000E+00 0. -1.
         -1   -1    0    0    0  501 -0.00000000000E+00 -0.00000000000E+00 -0.13149179396E+02  0.13149179396E+02  0.00000000000E+00 0.  1.
         25    2    1    2    0    0 -0.36923788821E+02  0.36476260104E+02  0.68289341742E+03  0.69619225267E+03  0.12508536839E+03 0.  0.
         23    2    1    2    0    0  0.36923788821E+02 -0.36476260104E+02  0.43593572050E+03  0.44893524405E+03  0.93856364768E+02 0.  0.
          5    1    3    3  502    0  0.14062965780E+02  0.41343185239E+02  0.57515600873E+03  0.57682660545E+03  0.41800000000E+01 0. -1.
         -5    1    3    3    0  502 -0.50986754600E+02 -0.48669251349E+01  0.10773740869E+03  0.11936564722E+03  0.41800000000E+01 0. -1.
        -11    1    4    4    0    0 -0.27348974034E+02  0.66242164025E+01  0.15511917043E+03  0.15765089171E+03  0.00000000000E+00 0.  1.
         11    1    4    4    0    0  0.64272762855E+02 -0.43100476506E+02  0.28081655007E+03  0.29128435233E+03  0.00000000000E+00 0. -1.
</event>
<event>
 8    1  0.6834011E-009  0.1088679E+03  0.7561462E-02  0.1262681E+00
          2   -1    0    0  501    0  0.00000000000E+00  0.00000000000E+00  0.33742436704E+03  0.33742436704E+03  0.00000000000E+00 0.  1.
         -2   -1    0    0    0  501 -0.00000000000E+00 -0.00000000000E+00 -0.49796345650E+02  0.49796345650E+02  0.00000000000E+00 0. -1.
         25    2    1    2    0    0 -0.25363824408E+02  0.55182227858E+02  0.95867164505E+02  0.16889193107E+03  0.12508225010E+03 0.  0.
         23    2    1    2    0    0  0.25363824408E+02 -0.55182227858E+02  0.19176085689E+03  0.21832878162E+03  0.84893043247E+02 0.  0.
          5    1    3    3  502    0 -0.62129259463E+02  0.12455974362E+02  0.92590974568E+02  0.11227536306E+03  0.41800000000E+01 0.  1.
         -5    1    3    3    0  502  0.36765435055E+02  0.42726253495E+02  0.32761899375E+01  0.56616568008E+02  0.41800000000E+01 0.  1.
        -11    1    4    4    0    0 -0.95808380965E+01 -0.61463793735E+02  0.15595826382E+03  0.16790643363E+03  0.00000000000E+00 0.  1.
         11    1    4    4    0    0  0.34944662505E+02  0.62815658775E+01  0.35802593066E+02  0.50422347998E+02  0.00000000000E+00 0. -1.
</event>
<event>
 8    1  0.6834011E-009  0.1193997E+03  0.7561462E-02  0.1244091E+00
         -1   -1    0    0    0  501 -0.00000000000E+00  0.00000000000E+00  0.18927636931E+02  0.18927636931E+02  0.00000000000E+00 0. -1.
          1   -1    0    0  501    0  0.00000000000E+00 -0.00000000000E+00 -0.11725499622E+04  0.11725499622E+04  0.00000000000E+00 0.  1.
         25    2    1    2    0    0  0.25249979717E+01  0.69006678822E+02 -0.91705207989E+03  0.92811655782E+03  0.12509008888E+03 0.  0.
         23    2    1    2    0    0 -0.25249979717E+01 -0.69006678822E+02 -0.23657024534E+03  0.26336104127E+03  0.92872276498E+02 0.  0.
          5    1    3    3  502    0 -0.60568180718E+02  0.42487090457E+02 -0.50164473707E+03  0.50708832761E+03  0.41800000000E+01 0.  1.
         -5    1    3    3    0  502  0.63093178690E+02  0.26519588365E+02 -0.41540734282E+03  0.42102823021E+03  0.41800000000E+01 0.  1.
        -11    1    4    4    0    0 -0.26558138120E+02 -0.66930276714E+02 -0.22568912343E+03  0.23689781990E+03  0.00000000000E+00 0.  1.
         11    1    4    4    0    0  0.24033140148E+02 -0.20764021083E+01 -0.10881121913E+02  0.26463221368E+02  0.00000000000E+00 0. -1.
</event>
<event>
 8    1  0.6834011E-009  0.8347763E+02  0.7561462E-02  0.1319462E+00
         -1   -1    0    0    0  501 -0.00000000000E+00  0.00000000000E+00  0.13585819268E+03  0.13585819268E+03  0.00000000000E+00 0.  1.
          1   -1    0    0  501    0  0.00000000000E+00 -0.00000000000E+00 -0.88864186411E+02  0.88864186411E+02  0.00000000000E+00 0. -1.
         25    2    1    2    0    0  0.96602627362E+01  0.12346432441E+02  0.17524409547E+02  0.12728078527E+03  0.12509012070E+03 0.  0.
         23    2    1    2    0    0 -0.96602627362E+01 -0.12346432441E+02  0.29469596722E+02  0.97441593825E+02  0.91545901088E+02 0.  0.
          5    1    3    3  502    0  0.34207145844E+02  0.32054715698E+02  0.58727856914E+02  0.75259997362E+02  0.41800000000E+01 0.  1.
         -5    1    3    3    0  502 -0.24546883108E+02 -0.19708283257E+02 -0.41203447367E+02  0.52020787904E+02  0.41800000000E+01 0.  1.
        -11    1    4    4    0    0  0.75095187778E+01  0.36028503223E+02  0.27730260447E+02  0.46080508474E+02  0.00000000000E+00 0. -1.
         11    1    4    4    0    0 -0.17169781514E+02 -0.48374935664E+02  0.17393362750E+01  0.51361085351E+02  0.00000000000E+00 0.  1.
</event>
<event>
 8    1  0.6834011E-009  0.9128982E+02  0.7561462E-02  0.1299758E+00
          2   -1    0    0  501    0  0.00000000000E+00  0.00000000000E+00  0.65554321677E+03  0.65554321677E+03  0.00000000000E+00 0. -1.
         -2   -1    0    0    0  501 -0.00000000000E+00 -0.00000000000E+00 -0.39224505508E+02  0.39224505508E+02  0.00000000000E+00 0.  1.
         25    2    1    2    0    0 -0.51995297431E+02 -0.61635729580E+01  0.10122986579E+03  0.16922436966E+03  0.12509157035E+03 0.  0.
         23    2    1    2    0    0  0.51995297431E+02  0.61635729580E+01  0.51508884547E+03  0.52554335261E+03  0.90209734296E+02 0.  0.
          5    1    3    3  502    0 -0.48795272424E+02  0.20188242644E+02 -0.10761634209E+02  0.54053944563E+02  0.41800000000E+01 0. -1.
         -5    1    3    3    0  502 -0.32000250066E+01 -0.26351815602E+02  0.11199150000E+03  0.11517042510E+03  0.41800000000E+01 0. -1.
        -11    1    4    4    0    0  0.70980982932E+01 -0.38652250392E+02  0.15467202434E+03  0.15958638592E+03  0.00000000000E+00 0. -1.
         11    1    4    4    0    0  0.44897199138E+02  0.44815823350E+02  0.36041682113E+03  0.36595696669E+03  0.00000000000E+00 0.  1.
</event>
<event>
 8    1  0.6834011E-009  0.1149967E+03  0.7561462E-02  0.1251587E+00
         -3   -1    0    0    0  501 -0.00000000000E+00  0.00000000000E+00  0.77553476604E+02  0.77553476604E+02  0.00000000000E+00 0.  1.
          3   -1    0    0  501    0  0.00000000000E+00 -0.00000000000E+00 -0.26724937160E+03  0.26724937160E+03  0.00000000000E+00 0. -1.
         25    2    1    2    0    0  0.71162703848E+02  0.94525038576E+01 -0.29939048476E+02  0.14729915273E+03  0.12508882253E+03 0.  0.
         23    2    1    2    0    0 -0.71162703848E+02 -0.94525038576E+01 -0.15975684652E+03  0.19750369548E+03  0.91279677198E+02 0.  0.
          5    1    3    3  502    0  0.68050962260E+02  0.52408116944E+02  0.12253386186E+02  0.86862892302E+02  0.41800000000E+01 0. -1.
         -5    1    3    3    0  502  0.31117415876E+01 -0.42955613086E+02 -0.42192434661E+02  0.60436260423E+02  0.41800000000E+01 0. -1.
        -11    1    4    4    0    0 -0.85718676433E+02 -0.75906405598E+01 -0.83705999822E+02  0.12005000508E+03  0.00000000000E+00 0.  1.
         11    1    4    4    0    0  0.14555972585E+02 -0.18618632978E+01 -0.76050846696E+02  0.77453690396E+02  0.00000000000E+00 0. -1.
</event>
<event>
 8    1  0.6834011E-009  0.1388012E+03  0.7561462E-02  0.1214951E+00
         -1   -1    0    0    0  501 -0.00000000000E+00  0.00000000000E+00  0.23198498980E+03  0.23198498980E+03  0.00000000000E+00 0.  1.
          1   -1    0    0  501    0  0.00000000000E+00 -0.00000000000E+00 -0.89593731052E+02  0.89593731052E+02  0.00000000000E+00 0. -1.
         25    2    1    2    0    0  0.82111035302E+02  0.39585897669E+02  0.11289830211E+03  0.19157750831E+03  0.12508656865E+03 0.  0.
         23    2    1    2    0    0 -0.82111035302E+02 -0.39585897669E+02  0.29492956628E+02  0.13000121254E+03  0.87870446445E+02 0.  0.
          5    1    3    3  502    0 -0.14780715098E+01 -0.39428524417E+02  0.29152063084E+02  0.49235235504E+02  0.41800000000E+01 0.  1.
         -5    1    3    3    0  502  0.83589106811E+02  0.79014422086E+02  0.83746239031E+02  0.14234227280E+03  0.41800000000E+01 0.  1.
        -11    1    4    4    0    0 -0.72372495636E+02 -0.63955789205E+02  0.95763959124E+01  0.97055800733E+02  0.00000000000E+00 0. -1.
         11    1    4    4    0    0 -0.97385396661E+01  0.24369891536E+02  0.19916560716E+02  0.32945411806E+02  0.00000000000E+00 0.  1.
</event>
<event>
 8    1  0.6834011E-009  0.1194852E+03  0.7561462E-02  0.1243949E+00
         -2   -1    0    0    0  501 -0.00000000000E+00  0.00000000000E+00  0.30139524507E+02  0.30139524507E+02  0.00000000000E+00 0.  1.
          2   -1    0    0  501    0  0.00000000000E+00 -0.00000000000E+00 -0.51424198195E+03  0.51424198195E+03  0.00000000000E+00 0. -1.
         25    2    1    2    0    0  0.13188599257E+02 -0.56858623504E+02 -0.28990088869E+03  0.32108045506E+03  0.12507314316E+03 0.  0.
         23    2    1    2    0    0 -0.13188599257E+02  0.56858623504E+02 -0.19420156875E+03  0.22330105139E+03  0.93500096429E+02 0.  0.
          5    1    3    3  502    0  0.30123772465E+02 -0.88029646569E+02 -0.25356116772E+03  0.27012478324E+03  0.41800000000E+01 0.  1.
         -5    1    3    3    0  502 -0.16935173208E+02  0.31171023066E+02 -0.36339720966E+02  0.50955671818E+02  0.41800000000E+01 0.  1.
        -11    1    4    4    0    0 -0.51782329019E+02  0.16676872346E+02 -0.91016904047E+02  0.10603586418E+03  0.00000000000E+00 0.  1.
         11    1    4    4    0    0  0.38593729762E+02  0.40181751158E+02 -0.10318466470E+03  0.11726518722E+03  0.00000000000E+00 0. -1.
</event>
<event>
 8    1  0.6834011E-009  0.5572758E+02  0.7561462E-02  0.1416689E+00
         -1   -1    0    0    0  501 -0.00000000000E+00  0.00000000000E+00  0.14273482836E+03  0.14273482836E+03  0.00000000000E+00 0.  1.
          1   -1    0    0  501    0  0.00000000000E+00 -0.00000000000E+00 -0.83440145509E+02  0.83440145509E+02  0.00000000000E+00 0. -1.
         25    2    1    2    0    0 -0.92015327956E+01  0.57386802229E+01  0.21196798030E+02  0.12733238678E+03  0.12508649735E+03 0.  0.
         23    2    1    2    0    0  0.92015327956E+01 -0.57386802229E+01  0.38097884816E+02  0.98842587086E+02  0.90558310154E+02 0.  0.
          5    1    3    3  502    0  0.15942031365E+01  0.17617411676E+02 -0.50536738513E+02  0.53706135751E+02  0.41800000000E+01 0.  1.
         -5    1    3    3    0  502 -0.10795735932E+02 -0.11878731453E+02  0.71733536543E+02  0.73626251026E+02  0.41800000000E+01 0.  1.
        -11    1    4    4    0    0 -0.27665478881E+02  0.17849955745E+02  0.43703592451E+02  0.54717489297E+02  0.00000000000E+00 0.  1.
         11    1    4    4    0    0  0.36867011677E+02 -0.23588635968E+02 -0.56057076350E+01  0.44125097789E+02  0.00000000000E+00 0. -1.
</event>
<event>
 8    1  0.6834011E-009  0.1231431E+03  0.7561462E-02  0.1238000E+00
         -2   -1    0    0    0  501 -0.00000000000E+00  0.00000000000E+00  0.85701841025E+02  0.85701841025E+02  0.00000000000E+00 0.  1.
          2   -1    0    0  501    0  0.00000000000E+00 -0.00000000000E+00 -0.20671670187E+03  0.20671670187E+03  0.00000000000E+00 0. -1.
         25    2    1    2    0    0  0.61738574428E+02 -0.15015272241E+01 -0.11419643365E+03  0.18028494917E+03  0.12509169150E+03 0.  0.
         23    2    1    2    0    0 -0.61738574428E+02  0.15015272241E+01 -0.68184271982E+01  0.11213359373E+03  0.93346375059E+02 0.  0.
          5    1    3    3  502    0 -0.22870068793E+02  0.38738836684E+02 -0.29839895252E+02  0.54144522002E+02  0.41800000000E+01 0.  1.
         -5    1    3    3    0  502  0.84608643221E+02 -0.40240363908E+02 -0.84356538397E+02  0.12614042717E+03  0.41800000000E+01 0.  1.
        -11    1    4    4    0    0 -0.43857059294E+02 -0.41730675438E+02 -0.19604494177E+02  0.63633537654E+02  0.00000000000E+00 0.  1.
         11    1    4    4    0    0 -0.17881515135E+02  0.43232202662E+02  0.12786066979E+02  0.48500056075E+02  0.00000000000E+00 0. -1.
</event>
<event>
 8    1  0.6834011E-009  0.1836867E+03  0.7561462E-02  0.1164282E+00
          1   -1    0    0  501    0  0.00000000000E+00  0.00000000000E+00  0.63139477824E+02  0.63139477824E+02  0.00000000000E+00 0. -1.
         -1   -1    0    0    0  501 -0.00000000000E+00 -0.00000000000E+00 -0.91169957930E+03  0.91169957930E+03  0.00000000000E+00 0.  1.
         25    2    1    2    0    0 -0.15474662099E+03 -0.45698901081E+02 -0.72160678255E+03  0.74993273193E+03  0.12509135677E+03 0.  0.
         23    2    1    2    0    0  0.15474662099E+03  0.45698901081E+02 -0.12695331893E+03  0.22490632519E+03  0.91819407829E+02 0.  0.
          5    1    3    3  502    0 -0.14373640493E+03 -0.14274217976E+01 -0.64358999929E+03  0.65946019685E+03  0.41800000000E+01 0. -1.
         -5    1    3    3    0  502 -0.11010216068E+02 -0.44271479284E+02 -0.78016783253E+02  0.90472535087E+02  0.41800000000E+01 0. -1.
        -11    1    4    4    0    0  0.53602909857E+02  0.54235662330E+02 -0.87347132299E+02  0.11594956030E+03  0.00000000000E+00 0.  1.
         11    1    4    4    0    0  0.10114371114E+03 -0.85367612484E+01 -0.39606186627E+02  0.10895676488E+03  0.00000000000E+00 0. -1.
</event>
<event>
 8    1  0.6834011E-009  0.1692744E+03  0.7561462E-02  0.1178607E+00
         -2   -1    0    0    0  501 -0.00000000000E+00  0.00000000000E+00  0.94077450659E+03  0.94077450659E+03  0.00000000000E+00 0. -1.
          2   -1    0    0  501    0  0.00000000000E+00 -0.00000000000E+00 -0.43815170616E+02  0.43815170616E+02  0.00000000000E+00 0.  1.
         25    2    1    2    0    0 -0.13248688044E+03 -0.10037385090E+03  0.37056463575E+03  0.42496287705E+03  0.12509042398E+03 0.  0.
         23    2    1    2    0    0  0.13248688044E+03  0.10037385090E+03  0.52639470023E+03  0.55962680015E+03  0.91995062850E+02 0.  0.
          5    1    3    3  502    0 -0.84422329811E+02 -0.70417633809E+02  0.10055403714E+03  0.14904482449E+03  0.41800000000E+01 0.  1.
         -5    1    3    3    0  502 -0.48064550634E+02 -0.29956217093E+02  0.27001059861E+03  0.27591805256E+03  0.41800000000E+01 0.  1.
        -11    1    4    4    0    0  0.11834137051E+03  0.10354741639E+03  0.52091005716E+03  0.54412685568E+03  0.00000000000E+00 0.  1.
         11    1    4    4    0    0  0.14145509935E+02 -0.31735654908E+01  0.54846430638E+01  0.15499944477E+02  0.00000000000E+00 0. -1.
</event>
<event>
 8    1  0.6834011E-009  0.1211523E+03  0.7561462E-02  0.1241208E+00
         -1   -1    0    0    0  501 -0.00000000000E+00  0.00000000000E+00  0.12270361065E+03  0.12270361065E+03  0.00000000000E+00 0.  1.
          1   -1    0    0  501    0  0.00000000000E+00 -0.00000000000E+00 -0.15433070562E+03  0.15433070562E+03  0.00000000000E+00 0. -1.
         25    2    1    2    0    0  0.73114513064E+02 -0.34308878005E+02  0.38123369534E+01  0.14894300153E+03  0.12508658066E+03 0.  0.
         23    2    1    2    0    0 -0.73114513064E+02  0.34308878005E+02 -0.35439431923E+02  0.12809131474E+03  0.92890260229E+02 0.  0.
          5    1    3    3  502    0 -0.16213908317E+02  0.99779527565E+01  0.38615980861E+02  0.43256406947E+02  0.41800000000E+01 0.  1.
         -5    1    3    3    0  502  0.89328421381E+02 -0.44286830762E+02 -0.34803643908E+02  0.10568659458E+03  0.41800000000E+01 0.  1.
        -11    1    4    4    0    0  0.22403361203E+02  0.94999195217E+01 -0.53047292453E+01  0.24905806883E+02  0.00000000000E+00 0.  1.
         11    1    4    4    0    0 -0.95517874268E+02  0.24808958484E+02 -0.30134702677E+02  0.10318550785E+03  0.00000000000E+00 0. -1.
</event>
<event>
 8    1  0.6834011E-009  0.1070010E+03  0.7561462E-02  0.1266227E+00
         -1   -1    0    0    0  501 -0.00000000000E+00  0.00000000000E+00  0.39761357502E+03  0.39761357502E+03  0.00000000000E+00 0.  1.
          1   -1    0    0  501    0  0.00000000000E+00 -0.00000000000E+00 -0.45239123114E+02  0.45239123114E+02  0.00000000000E+00 0. -1.
         25    2    1    2    0    0 -0.50129675286E+02  0.58769779182E+02  0.22150382328E+03  0.26585325801E+03  0.12508852776E+03 0.  0.
         23    2    1    2    0    0  0.50129675286E+02 -0.58769779182E+02  0.13087062863E+03  0.17699944012E+03  0.90745848815E+02 0.  0.
          5    1    3    3  502    0  0.20000004633E+02  0.87369282188E+01 -0.56055596418E+01  0.22917870733E+02  0.41800000000E+01 0. -1.
         -5    1    3    3    0  502 -0.70129679919E+02  0.50032850963E+02  0.22710938292E+03  0.24293538728E+03  0.41800000000E+01 0. -1.
        -11    1    4    4    0    0  0.68414654672E+02 -0.52371756332E+02  0.63860031519E+02  0.10724490412E+03  0.00000000000E+00 0. -1.
         11    1    4    4    0    0 -0.18284979386E+02 -0.63980228502E+01  0.67010597107E+02  0.69754535997E+02  0.00000000000E+00 0.  1.
</event>
<event>
 8    1  0.6834011E-009  0.1611714E+03  0.7561462E-02  0.1187381E+00
          2   -1    0    0  501    0  0.00000000000E+00  0.00000000000E+00  0.17077701177E+03  0.17077701177E+03  0.00000000000E+00 0. -1.
         -2   -1    0    0    0  501 -0.00000000000E+00 -0.00000000000E+00 -0.17699730755E+03  0.17699730755E+03  0.00000000000E+00 0.  1.
         25    2    1    2    0    0 -0.12404162383E+03  0.37957603196E+02 -0.33161445682E+02  0.18323189308E+03  0.12508853295E+03 0.  0.
         23    2    1    2    0    0  0.12404162383E+03 -0.37957603196E+02  0.26941149898E+02  0.16454242624E+03  0.97577048493E+02 0.  0.
          5    1    3    3  502    0 -0.33333552445E+02 -0.38274760460E+02  0.18121111838E+02  0.54054880456E+02  0.41800000000E+01 0. -1.
         -5    1    3    3    0  502 -0.90708071388E+02  0.76232363656E+02 -0.51282557520E+02  0.12917701262E+03  0.41800000000E+01 0. -1.
        -11    1    4    4    0    0  0.53902939120E+02 -0.58718147128E+02 -0.13680093251E+02  0.80873312034E+02  0.00000000000E+00 0.  1.
         11    1    4    4    0    0  0.70138684713E+02  0.20760543932E+02  0.40621243149E+02  0.83669114210E+02  0.00000000000E+00 0. -1.
</event>
<event>
 8    1  0.6834011E-009  0.1024577E+03  0.7561462E-02  0.1275211E+00
         -1   -1    0    0    0  501 -0.00000000000E+00  0.00000000000E+00  0.30051832926E+02  0.30051832926E+02  0.00000000000E+00 0.  1.
          1   -1    0    0  501    0  0.00000000000E+00 -0.00000000000E+00 -0.58587747279E+03  0.58587747279E+03  0.00000000000E+00 0. -1.
         25    2    1    2    0    0 -0.20031417645E+02 -0.71958058466E+02 -0.34402693089E+03  0.37360509023E+03  0.12508802659E+03 0.  0.
         23    2    1    2    0    0  0.20031417645E+02  0.71958058466E+02 -0.21179870897E+03  0.24232421548E+03  0.91011605949E+02 0.  0.
          5    1    3    3  502    0  0.14080784249E+02 -0.11300448698E+02 -0.27456788090E+03  0.27519259120E+03  0.41800000000E+01 0. -1.
         -5    1    3    3    0  502 -0.34112201894E+02 -0.60657609768E+02 -0.69459049991E+02  0.98412499036E+02  0.41800000000E+01 0. -1.
        -11    1    4    4    0    0 -0.35801318096E+02  0.31879020877E+02 -0.10342758382E+03  0.11399680453E+03  0.00000000000E+00 0.  1.
         11    1    4    4    0    0  0.55832735742E+02  0.40079037589E+02 -0.10837112515E+03  0.12832741095E+03  0.00000000000E+00 0. -1.
</event>
<event>
 8    1  0.6834011E-009  0.1350809E+03  0.7561462E-02  0.1220106E+00
          1   -1    0    0  501    0  0.00000000000E+00  0.00000000000E+00  0.56188235922E+02  0.56188235922E+02  0.00000000000E+00 0. -1.
         -1   -1    0    0    0  501 -0.00000000000E+00 -0.00000000000E+00 -0.36826244296E+03  0.36826244296E+03  0.00000000000E+00 0.  1.
         25    2    1    2    0    0 -0.70065246356E+02 -0.66106152218E+02 -0.18941762578E+03  0.24658477340E+03  0.12508337781E+03 0.  0.
         23    2    1    2    0    0  0.70065246356E+02  0.66106152218E+02 -0.12265658125E+03  0.17786590549E+03  0.85513047553E+02 0.  0.
          5    1    3    3  502    0 -0.54170471742E+02 -0.10161446236E+03 -0.11665405758E+03  0.16396823021E+03  0.41800000000E+01 0.  1.
         -5    1    3    3    0  502 -0.15894774613E+02  0.35508310144E+02 -0.72763568206E+02  0.82616543182E+02  0.41800000000E+01 0.  1.
        -11    1    4    4    0    0 -0.12204516063E+02  0.13283485682E+02  0.33821237939E+01  0.18353200417E+02  0.00000000000E+00 0. -1.
         11    1    4    4    0    0  0.82269762419E+02  0.52822666536E+02 -0.12603870505E+03  0.15951270507E+03  0.00000000000E+00 0.  1.
</event>
<event>
 8    1  0.6834011E-009  0.1075851E+03  0.7561462E-02  0.1265108E+00
         -1   -1    0    0    0  501 -0.00000000000E+00  0.00000000000E+00  0.27220660922E+02  0.27220660922E+02  0.00000000000E+00 0.  1.
          1   -1    0    0  501    0  0.00000000000E+00 -0.00000000000E+00 -0.61271360363E+03  0.61271360363E+03  0.00000000000E+00 0. -1.
         25    2    1    2    0    0  0.16122306496E+02 -0.66843312849E+02 -0.28143259155E+03  0.31555889289E+03  0.12508059023E+03 0.  0.
         23    2    1    2    0    0 -0.16122306496E+02  0.66843312849E+02 -0.30406035115E+03  0.32437537166E+03  0.89658950252E+02 0.  0.
          5    1    3    3  502    0 -0.40341426587E+01 -0.87504746006E+02 -0.10533831825E+03  0.13706563600E+03  0.41800000000E+01 0.  1.
         -5    1    3    3    0  502  0.20156449155E+02  0.20661433157E+02 -0.17609427331E+03  0.17849325689E+03  0.41800000000E+01 0.  1.
        -11    1    4    4    0    0  0.22506101447E+02  0.52466267438E+02 -0.24977123677E+03  0.25621261589E+03  0.00000000000E+00 0. -1.
         11    1    4    4    0    0 -0.38628407943E+02  0.14377045411E+02 -0.54289114380E+02  0.68162755777E+02  0.00000000000E+00 0.  1.
</event>
<event>
 8    1  0.6834011E-009  0.1125331E+03  0.7561462E-02  0.1255950E+00
          1   -1    0    0  501    0  0.00000000000E+00  0.00000000000E+00  0.18533736383E+03  0.18533736383E+03  0.00000000000E+00 0. -1.
         -1   -1    0    0    0  501 -0.00000000000E+00 -0.00000000000E+00 -0.11074481690E+03  0.11074481690E+03  0.00000000000E+00 0.  1.
         25    2    1    2    0    0  0.89494730800E+02 -0.13871289297E+02  0.41278258893E+02  0.15984948118E+03  0.12508494102E+03 0.  0.
         23    2    1    2    0    0 -0.89494730800E+02  0.13871289297E+02  0.33314288039E+02  0.13623269954E+03  0.96165415447E+02 0.  0.
          5    1    3    3  502    0  0.47183086941E+02  0.27224190125E+02  0.74220630008E+02  0.92160591036E+02  0.41800000000E+01 0. -1.
         -5    1    3    3    0  502  0.42311643859E+02 -0.41095479422E+02 -0.32942371115E+02  0.67688890149E+02  0.41800000000E+01 0. -1.
        -11    1    4    4    0    0 -0.61712792507E+02 -0.22364205493E+02  0.55044726185E+02  0.85665327449E+02  0.00000000000E+00 0. -1.
         11    1    4    4    0    0 -0.27781938293E+02  0.36235494789E+02 -0.21730438145E+02  0.50567372089E+02  0.00000000000E+00 0.  1.
</event>
<event>
 8    1  0.6834011E-009  0.8113649E+02  0.7561462E-02  0.1325857E+00
          2   -1    0    0  501    0  0.00000000000E+00  0.00000000000E+00  0.22149191954E+03  0.22149191954E+03  0.00000000000E+00 0. -1.
         -2   -1    0    0    0  501 -0.00000000000E+00 -0.00000000000E+00 -0.93413077966E+02  0.93413077966E+02  0.00000000000E+00 0.  1.
         25    2    1    2    0    0  0.19527046875E+02  0.65030843991E+02 -0.19179819169E+01  0.14234824500E+03  0.12509607496E+03 0.  0.
         23    2    1    2    0    0 -0.19527046875E+02 -0.65030843991E+02  0.12999682349E+03  0.17255675251E+03  0.90919428554E+02 0.  0.
          5    1    3    3  502    0  0.31769663421E+02  0.14530326278E+02  0.54919980036E+02  0.65223603877E+02  0.41800000000E+01 0.  1.
         -5    1    3    3    0  502 -0.12242616546E+02  0.50500517712E+02 -0.56837961953E+02  0.77124641121E+02  0.41800000000E+01 0.  1.
        -11    1    4    4    0    0  0.75377659587E+01 -0.28582591113E+02  0.12314681577E+03  0.12664486039E+03  0.00000000000E+00 0. -1.
         11    1    4    4    0    0 -0.27064812833E+02 -0.36448252878E+02  0.68500077204E+01  0.45911892112E+02  0.00000000000E+00 0.  1.
</event>
<event>
 8    1  0.6834011E-009  0.1016945E+03  0.7561462E-02  0.1276772E+00
         -1   -1    0    0    0  501 -0.00000000000E+00  0.00000000000E+00  0.66352187240E+02  0.66352187240E+02  0.00000000000E+00 0.  1.
          1   -1    0    0  501    0  0.00000000000E+00 -0.00000000000E+00 -0.35184083151E+03  0.35184083151E+03  0.00000000000E+00 0. -1.
         25    2    1    2    0    0  0.87860535108E+01  0.73430325439E+02 -0.47226940390E+02  0.15279625105E+03  0.12508838078E+03 0.  0.
         23    2    1    2    0    0 -0.87860535108E+01 -0.73430325439E+02 -0.23826170388E+03  0.26539676770E+03  0.90540583929E+02 0.  0.
          5    1    3    3  502    0 -0.44028512637E+02  0.81725120151E+01 -0.51819063298E+02  0.68614776825E+02  0.41800000000E+01 0.  1.
         -5    1    3    3    0  502  0.52814566148E+02  0.65257813424E+02  0.45921229081E+01  0.84181474227E+02  0.41800000000E+01 0.  1.
        -11    1    4    4    0    0 -0.54018010125E+01 -0.17262409093E+02  0.23981194255E+01  0.18246128320E+02  0.00000000000E+00 0.  1.
         11    1    4    4    0    0 -0.33842524983E+01 -0.56167916346E+02 -0.24065982330E+03  0.24715063938E+03  0.00000000000E+00 0. -1.
</event>
<event>
 8    1  0.6834011E-009  0.1024691E+03  0.7561462E-02  0.1275188E+00
         -3   -1    0    0    0  501 -0.00000000000E+00  0.00000000000E+00  0.27887559393E+03  0.27887559393E+03  0.00000000000E+00 0.  1.
          3   -1    0    0  501    0  0.00000000000E+00 -0.00000000000E+00 -0.43715592036E+02  0.43715592036E+02  0.00000000000E+00 0. -1.
         25    2    1    2    0    0  0.45627587572E+01 -0.24705364199E+02  0.10240814208E+03  0.16359852899E+03  0.12508348147E+03 0.  0.
         23    2    1    2    0    0 -0.45627587572E+01  0.24705364199E+02  0.13275185981E+03  0.15899265697E+03  0.83811901892E+02 0.  0.
          5    1    3    3  502    0 -0.56383999611E+02 -0.31414754448E+01  0.73170068380E+02  0.92522189700E+02  0.41800000000E+01 0. -1.
         -5    1    3    3    0  502  0.60946758368E+02 -0.21563888754E+02  0.29238073700E+02  0.71076339294E+02  0.41800000000E+01 0. -1.
        -11    1    4    4    0    0  0.33706528853E+02 -0.62813597390E+01  0.78866350940E+02  0.85997016681E+02  0.00000000000E+00 0.  1.
         11    1    4    4    0    0 -0.38269287610E+02  0.30986723938E+02  0.53885508872E+02  0.72995640288E+02  0.00000000000E+00 0. -1.
</event>
<event>
 8    1  0.6834011E-009  0.8607063E+02  0.7561462E-02  0.1312656E+00
          2   -1    0    0  501    0  0.00000000000E+00  0.00000000000E+00  0.11249197701E+03  0.11249197701E+03  0.00000000000E+00 0. -1.
         -2   -1    0    0    0  501 -0.00000000000E+00 -0.00000000000E+00 -0.15276604541E+03  0.15276604541E+03  0.00000000000E+00 0.  1.
         25    2    1    2    0    0  0.40404481277E+02  0.12717741983E+02 -0.83510261235E+02  0.15625890301E+03  0.12509443620E+03 0.  0.
         23    2    1    2    0    0 -0.40404481277E+02 -0.12717741983E+02  0.43236192838E+02  0.10899911942E+03  0.90648643643E+02 0.  0.
          5    1    3    3  502    0  0.57820838522E+02 -0.34755711278E+02 -0.80943861234E+02  0.10545420762E+03  0.41800000000E+01 0. -1.
         -5    1    3    3    0  502 -0.17416357245E+02  0.47473453261E+02 -0.25664000015E+01  0.50804695385E+02  0.41800000000E+01 0. -1.
        -11    1    4    4    0    0 -0.21069683555E+02  0.10544546836E+02 -0.25003742814E+02  0.34355584521E+02  0.00000000000E+00 0.  1.
         11    1    4    4    0    0 -0.19334797722E+02 -0.23262288819E+02  0.68239935652E+02  0.74643534897E+02  0.00000000000E+00 0. -1.
</event>
<event>
 8    1  0.6834011E-009  0.8516224E+02  0.7561462E-02  0.1315009E+00
          1   -1    0    0  501    0  0.00000000000E+00  0.00000000000E+00  0.37849249227E+02  0.37849249227E+02  0.00000000000E+00 0. -1.
         -1   -1    0    0    0  501 -0.00000000000E+00 -0.00000000000E+00 -0.49471652636E+03  0.49471652636E+03  0.00000000000E+00 0.  1.
         25    2    1    2    0    0 -0.52054162596E+02  0.46770140117E+02 -0.33681048135E+03  0.36604015593E+03  0.12508802322E+03 0.  0.
         23    2    1    2    0    0  0.52054162596E+02 -0.46770140117E+02 -0.12005679579E+03  0.16652561966E+03  0.91760917277E+02 0.  0.
          5    1    3    3  502    0  0.87294209183E+01  0.34048139778E+02 -0.15302935123E+02  0.38563335376E+02  0.41800000000E+01 0.  1.
         -5    1    3    3    0  502 -0.60783583514E+02  0.12722000339E+02 -0.32150754623E+03  0.32747682055E+03  0.41800000000E+01 0.  1.
        -11    1    4    4    0    0  0.31180310019E+02 -0.14823305589E+02  0.58018639108E+01  0.35008623885E+02  0.00000000000E+00 0. -1.
         11    1    4    4    0    0  0.20873852577E+02 -0.31946834528E+02 -0.12585865970E+03  0.13151699578E+03  0.00000000000E+00 0.  1.
</event>
<event>
 8    1  0.6834011E-009  0.1139235E+03  0.7561462E-02  0.1253472E+00
         -1   -1    0    0    0  501 -0.00000000000E+00  0.00000000000E+00  0.35460052045E+02  0.35460052045E+02  0.00000000000E+00 0.  1.
          1   -1    0    0  501    0  0.00000000000E+00 -0.00000000000E+00 -0.50968023590E+03  0.50968023590E+03  0.00000000000E+00 0. -1.
         25    2    1    2    0    0  0.23545098947E+02  0.49379733509E+02 -0.37800363573E+03  0.40190398838E+03  0.12508931802E+03 0.  0.
         23    2    1    2    0    0 -0.23545098947E+02 -0.49379733509E+02 -0.96216548130E+02  0.14323629957E+03  0.90919104785E+02 0.  0.
          5    1    3    3  502    0 -0.17189576143E+02  0.78136424231E+02 -0.16948537912E+03  0.18746612616E+03  0.41800000000E+01 0. -1.
         -5    1    3    3    0  502  0.40734675090E+02 -0.28756690723E+02 -0.20851825661E+03  0.21443786222E+03  0.41800000000E+01 0. -1.
        -11    1    4    4    0    0 -0.15128261610E+02 -0.71993715308E+02 -0.93474530129E+02  0.11895144861E+03  0.00000000000E+00 0. -1.
         11    1    4    4    0    0 -0.84168373368E+01  0.22613981799E+02 -0.27420180012E+01  0.24284850963E+02  0.00000000000E+00 0.  1.
</event>
<event>
 8    1  0.6834011E-009  0.1092749E+03  0.7561462E-02  0.1261919E+00
          1   -1    0    0  501    0  0.00000000000E+00  0.00000000000E+00  0.35735833583E+02  0.35735833583E+02  0.00000000000E+00 0. -1.
         -1   -1    0    0    0  501 -0.00000000000E+00 -0.00000000000E+00 -0.47280016895E+03  0.47280016895E+03  0.00000000000E+00 0.  1.
         25    2    1    2    0    0 -0.24598318037E+02  0.58528005500E+02 -0.17671558527E+03  0.22562886438E+03  0.12509748872E+03 0.  0.
         23    2    1    2    0    0  0.24598318037E+02 -0.58528005500E+02 -0.26034875009E+03  0.28290713815E+03  0.90688325961E+02 0.  0.
          5    1    3    3  502    0  0.17513356138E+02 -0.25454597254E+02 -0.98481793293E+02  0.10329951682E+03  0.41800000000E+01 0. -1.
         -5    1    3    3    0  502 -0.42111674175E+02  0.83982602754E+02 -0.78233791981E+02  0.12232934756E+03  0.41800000000E+01 0. -1.
        -11    1    4    4    0    0 -0.22622875142E+02 -0.75713443390E+01 -0.15635256895E+02  0.28523341196E+02  0.00000000000E+00 0. -1.
         11    1    4    4    0    0  0.47221193179E+02 -0.50956661161E+02 -0.24471349320E+03  0.25438379696E+03  0.00000000000E+00 0.  1.
</event>
<event>
 8    1  0.6834011E-009  0.7339614E+02  0.7561462E-02  0.1348911E+00
         -1   -1    0    0    0  501 -0.00000000000E+00  0.00000000000E+00  0.36367718663E+02  0.36367718663E+02  0.00000000000E+00 0.  1.
          1   -1    0    0  501    0  0.00000000000E+00 -0.00000000000E+00 -0.54785932392E+03  0.54785932392E+03  0.00000000000E+00 0. -1.
         25    2    1    2    0    0  0.33057186702E+02  0.20064096216E+02 -0.44508654703E+03  0.46394766637E+03  0.12510018879E+03 0.  0.
         23    2    1    2    0    0 -0.33057186702E+02 -0.20064096216E+02 -0.66405058227E+02  0.12027937621E+03  0.92531891982E+02 0.  0.
          5    1    3    3  502    0  0.50075425238E+02  0.25483545922E+01 -0.43382264805E+03  0.43673058593E+03  0.41800000000E+01 0.  1.
         -5    1    3    3    0  502 -0.17018238536E+02  0.17515741624E+02 -0.11263898976E+02  0.27217080439E+02  0.41800000000E+01 0.  1.
        -11    1    4    4    0    0  0.17518478402E+02 -0.65981165949E+00  0.14611146861E+02  0.22821438376E+02  0.00000000000E+00 0.  1.
         11    1    4    4    0    0 -0.50575665105E+02 -0.19404284557E+02 -0.81016205088E+02  0.97457937834E+02  0.00000000000E+00 0. -1.
</event>
<event>
 8    1  0.6834011E-009  0.8702499E+02  0.7561462E-02  0.1310220E+00
         -2   -1    0    0    0  501 -0.00000000000E+00  0.00000000000E+00  0.20717839448E+03  0.20717839448E+03  0.00000000000E+00 0.  1.
          2   -1    0    0  501    0  0.00000000000E+00 -0.00000000000E+00 -0.11028953120E+03  0.11028953120E+03  0.00000000000E+00 0. -1.
         25    2    1    2    0    0 -0.20166728751E+02  0.21537736390E+02  0.15685403857E+03  0.20278069080E+03  0.12508496355E+03 0.  0.
         23    2    1    2    0    0  0.20166728751E+02 -0.21537736390E+02 -0.59965175280E+02  0.11468723488E+03  0.93202835587E+02 0.  0.
          5    1    3    3  502    0 -0.72692144512E+02  0.58011011081E+01  0.80701038497E+02  0.10884820009E+03  0.41800000000E+01 0. -1.
         -5    1    3    3    0  502  0.52525415761E+02  0.15736635282E+02  0.76153000070E+02  0.93932490708E+02  0.41800000000E+01 0. -1.
        -11    1    4    4    0    0  0.14604584338E+02  0.75224833712E+01  0.22050714178E+02  0.27497556901E+02  0.00000000000E+00 0.  1.
         11    1    4    4    0    0  0.55621444126E+01 -0.29060219761E+02 -0.82015889458E+02  0.87189677982E+02  0.00000000000E+00 0. -1.
</event>
<event>
 8    1  0.6834011E-009  0.3262083E+03  0.7561462E-02  0.1072827E+00
          1   -1    0    0  501    0  0.00000000000E+00  0.00000000000E+00  0.17008129770E+04  0.17008129770E+04  0.00000000000E+00 0. -1.
         -1   -1    0    0    0  501 -0.00000000000E+00 -0.00000000000E+00 -0.69798406782E+02  0.69798406782E+02  0.00000000000E+00 0.  1.
         25    2    1    2    0    0 -0.32300452497E+03 -0.38173305706E+02  0.80792139763E+03  0.87987131469E+03  0.12508965280E+03 0.  0.
         23    2    1    2    0    0  0.32300452497E+03  0.38173305706E+02  0.82309317255E+03  0.89074006906E+03  0.10072921875E+03 0.  0.
          5    1    3    3  502    0 -0.16102281886E+03 -0.28370840132E+02  0.24947331768E+03  0.29830799755E+03  0.41800000000E+01 0. -1.
         -5    1    3    3    0  502 -0.16198170611E+03 -0.98024655739E+01  0.55844807995E+03  0.58156331714E+03  0.41800000000E+01 0. -1.
        -11    1    4    4    0    0  0.86168444741E+02  0.23110296087E+02  0.35355501246E+03  0.36463712577E+03  0.00000000000E+00 0. -1.
         11    1    4    4    0    0  0.23683608023E+03  0.15063009620E+02  0.46953816008E+03  0.52610294328E+03  0.00000000000E+00 0.  1.
</event>
<event>
 8    1  0.6834011E-009  0.8197897E+02  0.7561462E-02  0.1323527E+00
          1   -1    0    0  501    0  0.00000000000E+00  0.00000000000E+00  0.51169756105E+02  0.51169756105E+02  0.00000000000E+00 0. -1.
         -1   -1    0    0    0  501 -0.00000000000E+00 -0.00000000000E+00 -0.28398875865E+03  0.28398875865E+03  0.00000000000E+00 0.  1.
         25    2    1    2    0    0  0.39038255167E+02  0.37267083718E+02 -0.13555965625E+03  0.19218699462E+03  0.12508636858E+03 0.  0.
         23    2    1    2    0    0 -0.39038255167E+02 -0.37267083718E+02 -0.97259346293E+02  0.14297152013E+03  0.89825688032E+02 0.  0.
          5    1    3    3  502    0  0.66632825764E+02  0.30297593309E+02 -0.14452314109E+03  0.16205643566E+03  0.41800000000E+01 0.  1.
         -5    1    3    3    0  502 -0.27594570597E+02  0.69694904086E+01  0.89634848392E+01  0.30130558963E+02  0.41800000000E+01 0.  1.
        -11    1    4    4    0    0 -0.29257269396E+02 -0.70229719043E+01 -0.10585115487E+03  0.11004443163E+03  0.00000000000E+00 0.  1.
         11    1    4    4    0    0 -0.97809857718E+01 -0.30244111813E+02  0.85918085738E+01  0.32927088493E+02  0.00000000000E+00 0. -1.
</event>
<event>
 8    1  0.6834011E-009  0.1357105E+03  0.7561462E-02  0.1219220E+00
         -2   -1    0    0    0  501 -0.00000000000E+00  0.00000000000E+00  0.60475103839E+02  0.60475103839E+02  0.00000000000E+00 0.  1.
          2   -1    0    0  501    0  0.00000000000E+00 -0.00000000000E+00 -0.45843006438E+03  0.45843006438E+03  0.00000000000E+00 0. -1.
         25    2    1    2    0    0  0.32682898258E+02 -0.12166973284E+03 -0.24308198830E+03  0.30101167959E+03  0.12508989762E+03 0.  0.
         23    2    1    2    0    0 -0.32682898258E+02  0.12166973284E+03 -0.15487297225E+03  0.21789348863E+03  0.87293981038E+02 0.  0.
          5    1    3    3  502    0 -0.18699027507E+02 -0.68001183202E+02 -0.20617848308E+03  0.21794690599E+03  0.41800000000E+01 0.  1.
         -5    1    3    3    0  502  0.51381925766E+02 -0.53668549642E+02 -0.36903505219E+02  0.83064773602E+02  0.41800000000E+01 0.  1.
        -11    1    4    4    0    0 -0.31598210042E+02  0.10503611763E+03 -0.16519032528E+03  0.19828987985E+03  0.00000000000E+00 0. -1.
         11    1    4    4    0    0 -0.10846882162E+01  0.16633615215E+02  0.10317353032E+02  0.19603608781E+02  0.00000000000E+00 0.  1.
</event>
<event>
 8    1  0.6834011E-009  0.8266527E+02  0.7561462E-02  0.1321654E+00
         -2   -1    0    0    0  501 -0.00000000000E+00  0.00000000000E+00  0.15469087691E+02  0.15469087691E+02  0.00000000000E+00 0. -1.
          2   -1    0    0  501    0  0.00000000000E+00 -0.00000000000E+00 -0.84017635098E+03  0.84017635098E+03  0.00000000000E+00 0.  1.
         25    2    1    2    0    0 -0.23175234390E+02  0.30051121666E+01 -0.52565521948E+03  0.54083850949E+03  0.12508701527E+03 0.  0.
         23    2    1    2    0    0  0.23175234390E+02 -0.30051121666E+01 -0.29905204380E+03  0.31480692918E+03  0.95525680144E+02 0.  0.
          5    1    3    3  502    0  0.64484633537E+01  0.34261389373E+02 -0.39857855929E+02  0.53118231905E+02  0.41800000000E+01 0.  1.
         -5    1    3    3    0  502 -0.29623697743E+02 -0.31256277207E+02 -0.48579736355E+03  0.48772027759E+03  0.41800000000E+01 0.  1.
        -11    1    4    4    0    0  0.29079067001E+02 -0.40019728085E+02 -0.92653881637E+02  0.10503291178E+03  0.00000000000E+00 0. -1.
         11    1    4    4    0    0 -0.59038326116E+01  0.37014615919E+02 -0.20639816217E+03  0.20977401740E+03  0.00000000000E+00 0.  1.
</event>
<event>
 8    1  0.6834011E-009  0.9533578E+02  0.7561462E-02  0.1290422E+00
         -1   -1    0    0    0  501 -0.00000000000E+00  0.00000000000E+00  0.90738962753E+02  0.90738962753E+02  0.00000000000E+00 0.  1.
          1   -1    0    0  501    0  0.00000000000E+00 -0.00000000000E+00 -0.23152793354E+03  0.23152793354E+03  0.00000000000E+00 0. -1.
         25    2    1    2    0    0  0.77849158857E+02 -0.27498255905E+02 -0.12811084072E+03  0.19716791585E+03  0.12508458706E+03 0.  0.
         23    2    1    2    0    0 -0.77849158857E+02  0.27498255905E+02 -0.12678130067E+02  0.12509898044E+03  0.93125583551E+02 0.  0.
          5    1    3    3  502    0  0.10805852167E+02 -0.38231888987E+02  0.11750154810E+02  0.41641113273E+02  0.41800000000E+01 0. -1.
         -5    1    3    3    0  502  0.67043306691E+02  0.10733633082E+02 -0.13986099553E+03  0.15552680258E+03  0.41800000000E+01 0. -1.
        -11    1    4    4    0    0 -0.58879473177E+02  0.22915580050E+02  0.35955421923E+02  0.72696000827E+02  0.00000000000E+00 0.  1.
         11    1    4    4    0    0 -0.18969685681E+02  0.45826758553E+01 -0.48633551990E+02  0.52402979610E+02  0.00000000000E+00 0. -1.
</event>
<event>
 8    1  0.6834011E-009  0.8129818E+02  0.7561462E-02  0.1325407E+00
         -2   -1    0    0    0  501 -0.00000000000E+00  0.00000000000E+00  0.10691057232E+03  0.10691057232E+03  0.00000000000E+00 0.  1.
          2   -1    0    0  501    0  0.00000000000E+00 -0.00000000000E+00 -0.12270233612E+03  0.12270233612E+03  0.00000000000E+00 0. -1.
         25    2    1    2    0    0 -0.11797714050E+02  0.34862793777E+02 -0.19442614577E+02  0.13183505744E+03  0.12509143321E+03 0.  0.
         23    2    1    2    0    0  0.11797714050E+02 -0.34862793777E+02  0.36508507819E+01  0.97777850994E+02  0.90512866416E+02 0.  0.
          5    1    3    3  502    0 -0.33374981715E+02  0.24221658710E+02  0.46038906331E+02  0.61948619446E+02  0.41800000000E+01 0. -1.
         -5    1    3    3    0  502  0.21577267665E+02  0.10641135067E+02 -0.65481520907E+02  0.69886437996E+02  0.41800000000E+01 0. -1.
        -11    1    4    4    0    0  0.26064525947E+02 -0.61342080872E+02  0.89118346399E+01  0.67243075444E+02  0.00000000000E+00 0.  1.
         11    1    4    4    0    0 -0.14266811897E+02  0.26479287095E+02 -0.52609838580E+01  0.30534775550E+02  0.00000000000E+00 0. -1.
</event>
<event>
 8    1  0.6834011E-009  0.1308070E+03  0.7561462E-02  0.1226263E+00
         -1   -1    0    0    0  501 -0.00000000000E+00  0.00000000000E+00  0.59308688498E+02  0.59308688498E+02  0.00000000000E+00 0.  1.
          1   -1    0    0  501    0  0.00000000000E+00 -0.00000000000E+00 -0.31523694230E+03  0.31523694230E+03  0.00000000000E+00 0. -1.
         25    2    1    2    0    0 -0.32365534484E+02 -0.76384722005E+02 -0.12285712893E+03  0.19396361160E+03  0.12508339185E+03 0.  0.
         23    2    1    2    0    0  0.32365534484E+02  0.76384722005E+02 -0.13307112487E+03  0.18058201920E+03  0.89553267983E+02 0.  0.
          5    1    3    3  502    0  0.18093106388E+02 -0.89467484650E+02 -0.49635819157E+02  0.10398547135E+03  0.41800000000E+01 0. -1.
         -5    1    3    3    0  502 -0.50458640872E+02  0.13082762645E+02 -0.73221309775E+02  0.89978140247E+02  0.41800000000E+01 0. -1.
        -11    1    4    4    0    0  0.45534623550E+02  0.55208656818E+01 -0.75473195532E+02  0.88318090693E+02  0.00000000000E+00 0. -1.
         11    1    4    4    0    0 -0.13169089066E+02  0.70863856324E+02 -0.57597929336E+02  0.92263928507E+02  0.00000000000E+00 0.  1.
</event>
<event>
 8    1  0.6834011E-009  0.9908992E+02  0.7561462E-02  0.1282221E+00
         -1   -1    0    0    0  501 -0.00000000000E+00  0.00000000000E+00  0.36548823026E+02  0.36548823026E+02  0.00000000000E+00 0.  1.
          1   -1    0    0  501    0  0.00000000000E+00 -0.00000000000E+00 -0.57926026561E+03  0.57926026561E+03  0.00000000000E+00 0. -1.
         25    2    1    2    0    0  0.54558226586E+02  0.77699755144E+02 -0.26677713025E+03  0.30956858809E+03  0.12509524960E+03 0.  0.
         23    2    1    2    0    0 -0.54558226586E+02 -0.77699755144E+02 -0.27593431233E+03  0.30624050054E+03  0.92895895558E+02 0.  0.
          5    1    3    3  502    0  0.59865918878E+02  0.64036926520E+02 -0.70153246542E+02  0.11235482456E+03  0.41800000000E+01 0. -1.
         -5    1    3    3    0  502 -0.53076922924E+01  0.13662828624E+02 -0.19662388371E+03  0.19721376354E+03  0.41800000000E+01 0. -1.
        -11    1    4    4    0    0 -0.19468559059E+02 -0.22344512005E+02 -0.84119871637E+01  0.30806874827E+02  0.00000000000E+00 0.  1.
         11    1    4    4    0    0 -0.35089667527E+02 -0.55355243139E+02 -0.26752232517E+03  0.27543362571E+03  0.00000000000E+00 0. -1.
</event>
<event>
 8    1  0.6834011E-009  0.1270242E+03  0.7561462E-02  0.1231939E+00
         -1   -1    0    0    0  501 -0.00000000000E+00  0.00000000000E+00  0.29799362013E+02  0.29799362013E+02  0.00000000000E+00 0.  1.
          1   -1    0    0  501    0  0.00000000000E+00 -0.00000000000E+00 -0.76664583868E+03  0.76664583868E+03  0.00000000000E+00 0. -1.
         25    2    1    2    0    0  0.75507136488E+02 -0.50525925390E+02 -0.26811232839E+03  0.30949264387E+03  0.12508908496E+03 0.  0.
         23    2    1    2    0    0 -0.75507136488E+02  0.50525925390E+02 -0.46873414828E+03  0.48695255683E+03  0.95691661298E+02 0.  0.
          5    1    3    3  502    0  0.75924175096E+02 -0.34228357844E+01 -0.24558666026E+03  0.25711179721E+03  0.41800000000E+01 0. -1.
         -5    1    3    3    0  502 -0.41703860820E+00 -0.47103089606E+02 -0.22525668134E+02  0.52380846657E+02  0.41800000000E+01 0. -1.
        -11    1    4    4    0    0 -0.36939910019E+02 -0.25846380141E+02 -0.19575182091E+03  0.20087649864E+03  0.00000000000E+00 0. -1.
         11    1    4    4    0    0 -0.38567226469E+02  0.76372305531E+02 -0.27298232737E+03  0.28607605819E+03  0.00000000000E+00 0.  1.
</event>
<event>
 8    1  0.6834011E-009  0.1238994E+03  0.7561462E-02  0.1236799E+00
         -2   -1    0    0    0  501 -0.00000000000E+00  0.00000000000E+00  0.45081462908E+02  0.45081462908E+02  0.00000000000E+00 0.  1.
          2   -1    0    0  501    0  0.00000000000E+00 -0.00000000000E+00 -0.53920256599E+03  0.53920256599E+03  0.00000000000E+00 0. -1.
         25    2    1    2    0    0  0.15258508485E+02  0.78212093487E+02 -0.41209040306E+03  0.43796865422E+03  0.12509231843E+03 0.  0.
         23    2    1    2    0    0 -0.15258508485E+02 -0.78212093487E+02 -0.82030700016E+02  0.14631537468E+03  0.91264448023E+02 0.  0.
          5    1    3    3  502    0  0.29405433537E+02  0.10953814202E+03 -0.30587417213E+03  0.32625107763E+03  0.41800000000E+01 0. -1.
         -5    1    3    3    0  502 -0.14146925052E+02 -0.31326048531E+02 -0.10621623093E+03  0.11171757658E+03  0.41800000000E+01 0. -1.
        -11    1    4    4    0    0  0.22244477818E+02 -0.17433727459E+02  0.98620122378E+01  0.29933441698E+02  0.00000000000E+00 0.  1.
         11    1    4    4    0    0 -0.37502986303E+02 -0.60778366027E+02 -0.91892712254E+02  0.11638193298E+03  0.00000000000E+00 0. -1.
</event>
<event>
 8    1  0.6834011E-009  0.8511938E+02  0.7561462E-02  0.1315121E+00
          2   -1    0    0  501    0  0.00000000000E+00  0.00000000000E+00  0.77539163454E+02  0.77539163454E+02  0.00000000000E+00 0. -1.
         -2   -1    0    0    0  501 -0.00000000000E+00 -0.00000000000E+00 -0.19335281613E+03  0.19335281613E+03  0.00000000000E+00 0.  1.
         25    2    1    2    0    0  0.52483099655E+02 -0.19585722945E+02 -0.60558177117E+02  0.14983888145E+03  0.12508525607E+03 0.  0.
         23    2    1    2    0    0 -0.52483099655E+02  0.19585722945E+02 -0.55255475562E+02  0.12105309813E+03  0.91992438250E+02 0.  0.
          5    1    3    3  502    0 -0.82708285682E+01 -0.96310817667E+01 -0.83082421960E+02  0.84150612475E+02  0.41800000000E+01 0. -1.
         -5    1    3    3    0  502  0.60753928224E+02 -0.99546411784E+01  0.22524244844E+02  0.65688268978E+02  0.41800000000E+01 0. -1.
        -11    1    4    4    0    0 -0.10389750039E+02  0.44874597603E+02  0.13941109390E+01  0.46082751234E+02  0.00000000000E+00 0. -1.
         11    1    4    4    0    0 -0.42093349616E+02 -0.25288874658E+02 -0.56649586501E+02  0.74970346899E+02  0.00000000000E+00 0.  1.
</event>
<event>
 8    1  0.6834011E-009  0.9834197E+02  0.7561462E-02  0.1283822E+00
         -2   -1    0    0    0  501 -0.00000000000E+00  0.00000000000E+00  0.14489287739E+02  0.14489287739E+02  0.00000000000E+00 0.  1.
          2   -1    0    0  501    0  0.00000000000E+00 -0.00000000000E+00 -0.99438623161E+03  0.99438623161E+03  0.00000000000E+00 0. -1.
         25    2    1    2    0    0 -0.14016597288E+02 -0.50455819334E+02 -0.57907133694E+03  0.59473860574E+03  0.12509253048E+03 0.  0.
         23    2    1    2    0    0  0.14016597288E+02  0.50455819334E+02 -0.40082560693E+03  0.41413691361E+03  0.90033112475E+02 0.  0.
          5    1    3    3  502    0  0.24516659061E+02 -0.47550067552E+02 -0.52718322617E+03  0.52990725778E+03  0.41800000000E+01 0. -1.
         -5    1    3    3    0  502 -0.38533256349E+02 -0.29057517818E+01 -0.51888110776E+02  0.64831347959E+02  0.41800000000E+01 0. -1.
        -11    1    4    4    0    0 -0.36317228227E+02  0.37450015378E+02 -0.20023662213E+03  0.20692063590E+03  0.00000000000E+00 0.  1.
         11    1    4    4    0    0  0.50333825515E+02  0.13005803956E+02 -0.20058898480E+03  0.20721627771E+03  0.00000000000E+00 0. -1.
</event>
<event>
 8    1  0.6834011E-009  0.1222869E+03  0.7561462E-02  0.1239371E+00
          1   -1    0    0  501    0  0.00000000000E+00  0.00000000000E+00  0.95721993239E+02  0.95721993239E+02  0.00000000000E+00 0. -1.
         -1   -1    0    0    0  501 -0.00000000000E+00 -0.00000000000E+00 -0.17138314674E+03  0.17138314674E+03  0.00000000000E+00 0.  1.
         25    2    1    2    0    0 -0.61292506449E+02  0.36828871070E+02 -0.48875791665E+02  0.15214991519E+03  0.12509043365E+03 0.  0.
         23    2    1    2    0    0  0.61292506449E+02 -0.36828871070E+02 -0.26785361831E+02  0.11495522478E+03  0.85930850134E+02 0.  0.
          5    1    3    3  502    0  0.30487971734E+02 -0.61082981781E+01  0.12316884173E+02  0.33704684583E+02  0.41800000000E+01 0. -1.
         -5    1    3    3    0  502 -0.91780478183E+02  0.42937169248E+02 -0.61192675838E+02  0.11844523061E+03  0.41800000000E+01 0. -1.
        -11    1    4    4    0    0 -0.16948788362E+02 -0.28426176167E+02 -0.83980078831E+01  0.34144332690E+02  0.00000000000E+00 0. -1.
         11    1    4    4    0    0  0.78241294811E+02 -0.84026949024E+01 -0.18387353948E+02  0.80810892091E+02  0.00000000000E+00 0.  1.
</event>
<event>
 8    1  0.6834011E-009  0.1345832E+03  0.7561462E-02  0.1220809E+00
          2   -1    0    0  501    0  0.00000000000E+00  0.00000000000E+00  0.38329504032E+03  0.38329504032E+03  0.00000000000E+00 0. -1.
         -2   -1    0    0    0  501 -0.00000000000E+00 -0.00000000000E+00 -0.58605552428E+02  0.58605552428E+02  0.00000000000E+00 0.  1.
         25    2    1    2    0    0  0.25704247589E+02  0.91379855076E+02  0.11404716445E+03  0.19407262604E+03  0.12508573941E+03 0.  0.
         23    2    1    2    0    0 -0.25704247589E+02 -0.91379855076E+02  0.21064232345E+03  0.24782796670E+03  0.89652252598E+02 0.  0.
          5    1    3    3  502    0  0.45409553714E+02  0.11404903150E+03  0.72478815264E+02  0.14261788182E+03  0.41800000000E+01 0.  1.
         -5    1    3    3    0  502 -0.19705306125E+02 -0.22669176422E+02  0.41568349182E+02  0.51454744221E+02  0.41800000000E+01 0.  1.
        -11    1    4    4    0    0 -0.39558027944E+02 -0.22002120145E+02  0.14282393889E+03  0.14982525951E+03  0.00000000000E+00 0. -1.
         11    1    4    4    0    0  0.13853780355E+02 -0.69377734930E+02  0.67818384551E+02  0.98002707193E+02  0.00000000000E+00 0.  1.
</event>
<event>
 8    1  0.6834011E-009  0.1138020E+03  0.7561462E-02  0.1253687E+00
          1   -1    0    0  501    0  0.00000000000E+00  0.00000000000E+00  0.38108955475E+03  0.38108955475E+03  0.00000000000E+00 0. -1.
         -1   -1    0    0    0  501 -0.00000000000E+00 -0.00000000000E+00 -0.40080618361E+02  0.40080618361E+02  0.00000000000E+00 0.  1.
         25    2    1    2    0    0  0.58483851239E+01  0.47557149005E+02  0.13207226533E+03  0.18811495472E+03  0.12509303293E+03 0.  0.
         23    2    1    2    0    0 -0.58483851239E+01 -0.47557149005E+02  0.20893667106E+03  0.23305521840E+03  0.91456636053E+02 0.  0.
          5    1    3    3  502    0 -0.57407167842E+02  0.13748852111E+02  0.40444441349E+02  0.71678721319E+02  0.41800000000E+01 0. -1.
         -5    1    3    3    0  502  0.63255552965E+02  0.33808296894E+02  0.91627823983E+02  0.11643623340E+03  0.41800000000E+01 0. -1.
        -11    1    4    4    0    0 -0.45641823206E+01 -0.71979548036E+02  0.11304050729E+03  0.13408968411E+03  0.00000000000E+00 0.  1.
         11    1    4    4    0    0 -0.12842028033E+01  0.24422399031E+02  0.95896163767E+02  0.98965534286E+02  0.00000000000E+00 0. -1.
</event>
<event>
 8    1  0.6834011E-009  0.1723507E+03  0.7561462E-02  0.1175418E+00
          1   -1    0    0  501    0  0.00000000000E+00  0.00000000000E+00  0.49755246795E+02  0.49755246795E+02  0.00000000000E+00 0. -1.
         -1   -1    0    0    0  501 -0.00000000000E+00 -0.00000000000E+00 -0.75590886478E+03  0.75590886478E+03  0.00000000000E+00 0.  1.
         25    2    1    2    0    0 -0.14837325734E+03  0.65943013096E+02 -0.36479124043E+03  0.41842736085E+03  0.12508278357E+03 0.  0.
         23    2    1    2    0    0  0.14837325734E+03 -0.65943013096E+02 -0.34136237755E+03  0.38723675072E+03  0.84029303417E+02 0.  0.
          5    1    3    3  502    0 -0.55051223400E+02  0.19797577221E+02 -0.27406646885E+03  0.28027215882E+03  0.41800000000E+01 0. -1.
         -5    1    3    3    0  502 -0.93322033936E+02  0.46145435875E+02 -0.90724771581E+02  0.13815520203E+03  0.41800000000E+01 0. -1.
        -11    1    4    4    0    0  0.12209482623E+03 -0.13041778510E+02 -0.24847241450E+03  0.27715658994E+03  0.00000000000E+00 0. -1.
         11    1    4    4    0    0  0.26278431102E+02 -0.52901234586E+02 -0.92889963059E+02  0.11008016079E+03  0.00000000000E+00 0.  1.
</event>
<event>
 8    1  0.6834011E-009  0.8798982E+02  0.7561462E-02  0.1307794E+00
         -1   -1    0    0    0  501 -0.00000000000E+00  0.00000000000E+00  0.21244973856E+03  0.21244973856E+03  0.00000000000E+00 0.  1.
          1   -1    0    0  501    0  0.00000000000E+00 -0.00000000000E+00 -0.59926918108E+02  0.59926918108E+02  0.00000000000E+00 0. -1.
         25    2    1    2    0    0 -0.30117676012E+02  0.20463782842E+01  0.91126057358E+02  0.15767894250E+03  0.12508968185E+03 0.  0.
         23    2    1    2    0    0  0.30117676012E+02 -0.20463782842E+01  0.61396763090E+02  0.11469771417E+03  0.92058356735E+02 0.  0.
          5    1    3    3  502    0 -0.67875502617E+02  0.36452667397E+02  0.59708016780E+02  0.97562290275E+02  0.41800000000E+01 0. -1.
         -5    1    3    3    0  502  0.37757826605E+02 -0.34406289113E+02  0.31418040578E+02  0.60116652221E+02  0.41800000000E+01 0. -1.
        -11    1    4    4    0    0 -0.34399559352E+01  0.11029136492E+02 -0.21448797728E+02  0.24362390535E+02  0.00000000000E+00 0. -1.
         11    1    4    4    0    0  0.33557631948E+02 -0.13075514776E+02  0.82845560818E+02  0.90335323633E+02  0.00000000000E+00 0.  1.
</event>
<event>
 8    1  0.6834011E-009  0.2787261E+03  0.7561462E-02  0.1096387E+00
         -4   -1    0    0    0  501 -0.00000000000E+00  0.00000000000E+00  0.24766994101E+03  0.24766994101E+03  0.00000000000E+00 0.  1.
          4   -1    0    0  501    0  0.00000000000E+00 -0.00000000000E+00 -0.35339795328E+03  0.35339795328E+03  0.00000000000E+00 0. -1.
         25    2    1    2    0    0 -0.20562298346E+03 -0.17846706613E+03 -0.92703021692E+02  0.31364478242E+03  0.12509154364E+03 0.  0.
         23    2    1    2    0    0  0.20562298346E+03  0.17846706613E+03 -0.13024990580E+02  0.28742311187E+03  0.91165178857E+02 0.  0.
          5    1    3    3  502    0 -0.58961314330E+02 -0.29140951526E+02 -0.80372571735E+02  0.10393678045E+03  0.41800000000E+01 0.  1.
         -5    1    3    3    0  502 -0.14666166913E+03 -0.14932611460E+03 -0.12330449957E+02  0.20970800197E+03  0.41800000000E+01 0.  1.
        -11    1    4    4    0    0  0.16806502581E+03  0.10091007991E+03  0.15520266226E+02  0.19664581306E+03  0.00000000000E+00 0.  1.
         11    1    4    4    0    0  0.37557957654E+02  0.77556986213E+02 -0.28545256806E+02  0.90777298812E+02  0.00000000000E+00 0. -1.
</event>
<event>
 8    1  0.6834011E-009  0.1097459E+03  0.7561462E-02  0.1261041E+00
         -1   -1    0    0    0  501 -0.00000000000E+00  0.00000000000E+00  0.25828711877E+03  0.25828711877E+03  0.00000000000E+00 0.  1.
          1   -1    0    0  501    0  0.00000000000E+00 -0.00000000000E+00 -0.62903392325E+02  0.62903392325E+02  0.00000000000E+00 0. -1.
         25    2    1    2    0    0  0.34626674527E+02 -0.49997572990E+02  0.14351082289E+03  0.19985436060E+03  0.12509054828E+03 0.  0.
         23    2    1    2    0    0 -0.34626674527E+02  0.49997572990E+02  0.51872903551E+02  0.12133615050E+03  0.91284716138E+02 0.  0.
          5    1    3    3  502    0  0.73839218634E+02 -0.50788639631E+02  0.13041429587E+03  0.15829427372E+03  0.41800000000E+01 0. -1.
         -5    1    3    3    0  502 -0.39212544107E+02  0.79106664054E+00  0.13096527025E+02  0.41560086885E+02  0.41800000000E+01 0. -1.
        -11    1    4    4    0    0  0.18563111993E+02  0.19698341824E+01  0.45748318044E+02  0.49410302341E+02  0.00000000000E+00 0.  1.
         11    1    4    4    0    0 -0.53189786520E+02  0.48027738808E+02  0.61245855071E+01  0.71925848154E+02  0.00000000000E+00 0. -1.
</event>
<event>
 8    1  0.6834011E-009  0.1835632E+03  0.7561462E-02  0.1164398E+00
         -1   -1    0    0    0  501 -0.00000000000E+00  0.00000000000E+00  0.17741370742E+03  0.17741370742E+03  0.00000000000E+00 0.  1.
          1   -1    0    0  501    0  0.00000000000E+00 -0.00000000000E+00 -0.23163488886E+03  0.23163488886E+03  0.00000000000E+00 0. -1.
         25    2    1    2    0    0 -0.17145535659E+03 -0.65418310794E+01 -0.19943429310E+02  0.21327216600E+03  0.12509013374E+03 0.  0.
         23    2    1    2    0    0  0.17145535659E+03  0.65418310794E+01 -0.34277752139E+02  0.19577643028E+03  0.87827737671E+02 0.  0.
          5    1    3    3  502    0 -0.11918136527E+03 -0.18569815850E+02  0.45115440671E+02  0.12884840424E+03  0.41800000000E+01 0.  1.
         -5    1    3    3    0  502 -0.52273991319E+02  0.12027984771E+02 -0.65058869980E+02  0.84423761757E+02  0.41800000000E+01 0.  1.
        -11    1    4    4    0    0  0.42328036786E+02  0.41059609722E+02 -0.13688280223E+02  0.60538609698E+02  0.00000000000E+00 0.  1.
         11    1    4    4    0    0  0.12912731981E+03 -0.34517778642E+02 -0.20589471916E+02  0.13523782058E+03  0.00000000000E+00 0. -1.
</event>
<event>
 8    1  0.6834011E-009  0.1024069E+03  0.7561462E-02  0.1275315E+00
          3   -1    0    0  501    0  0.00000000000E+00  0.00000000000E+00  0.97475443691E+02  0.97475443691E+02  0.00000000000E+00 0. -1.
         -3   -1    0    0    0  501 -0.00000000000E+00 -0.00000000000E+00 -0.15962040345E+03  0.15962040345E+03  0.00000000000E+00 0.  1.
         25    2    1    2    0    0 -0.29754642536E+02 -0.50676729884E+02 -0.58413822746E+02  0.15004024132E+03  0.12508568913E+03 0.  0.
         23    2    1    2    0    0  0.29754642536E+02  0.50676729884E+02 -0.37311370083E+01  0.10705560581E+03  0.89406440756E+02 0.  0.
          5    1    3    3  502    0  0.17517349017E+02  0.12159944701E+02  0.26476470242E+02  0.34251972909E+02  0.41800000000E+01 0.  1.
         -5    1    3    3    0  502 -0.47271991553E+02 -0.62836674585E+02 -0.84890292989E+02  0.11578826841E+03  0.41800000000E+01 0.  1.
        -11    1    4    4    0    0 -0.30554198266E+02  0.12824398410E+02  0.98476707715E+01  0.34568784270E+02  0.00000000000E+00 0. -1.
         11    1    4    4    0    0  0.60308840802E+02  0.37852331473E+02 -0.13578807780E+02  0.72486821544E+02  0.00000000000E+00 0.  1.
</event>
<event>
 8    1  0.6834011E-009  0.1763843E+03  0.7561462E-02  0.1171349E+00
         -2   -1    0    0    0  501 -0.00000000000E+00  0.00000000000E+00  0.58575762351E+02  0.58575762351E+02  0.00000000000E+00 0.  1.
          2   -1    0    0  501    0  0.00000000000E+00 -0.00000000000E+00 -0.81378048437E+03  0.81378048437E+03  0.00000000000E+00 0. -1.
         25    2    1    2    0    0 -0.40273946085E+02 -0.14361931652E+03 -0.62729132270E+03  0.65680328850E+03  0.12509059692E+03 0.  0.
         23    2    1    2    0    0  0.40273946085E+02  0.14361931652E+03 -0.12791339932E+03  0.21555295822E+03  0.88615694229E+02 0.  0.
          5    1    3    3  502    0  0.29304544647E+02 -0.11473634613E+03 -0.35512044071E+03  0.37436771398E+03  0.41800000000E+01 0.  1.
         -5    1    3    3    0  502 -0.69578490733E+02 -0.28882970389E+02 -0.27217088199E+03  0.28243557452E+03  0.41800000000E+01 0.  1.
        -11    1    4    4    0    0  0.52446273463E+02  0.93069469925E+02 -0.41306693055E+02  0.11453724601E+03  0.00000000000E+00 0.  1.
         11    1    4    4    0    0 -0.12172327378E+02  0.50549846591E+02 -0.86606706264E+02  0.10101571221E+03  0.00000000000E+00 0. -1.
</event>
<event>
 8    1  0.6834011E-009  0.1351903E+03  0.7561462E-02  0.1219951E+00
          1   -1    0    0  501    0  0.00000000000E+00  0.00000000000E+00  0.25707824609E+03  0.25707824609E+03  0.00000000000E+00 0. -1.
         -1   -1    0    0    0  501 -0.00000000000E+00 -0.00000000000E+00 -0.11166366547E+03  0.11166366547E+03  0.00000000000E+00 0.  1.
         25    2    1    2    0    0  0.43736490290E+02  0.11957074759E+03  0.10647555327E+03  0.20783291840E+03  0.12508970487E+03 0.  0.
         23    2    1    2    0    0 -0.43736490290E+02 -0.11957074759E+03  0.38939027345E+02  0.16090899316E+03  0.90362669108E+02 0.  0.
          5    1    3    3  502    0  0.12582554610E+00  0.19252886476E+02  0.95847157161E+02  0.97851108351E+02  0.41800000000E+01 0.  1.
         -5    1    3    3    0  502  0.43610664744E+02  0.10031786112E+03  0.10628396111E+02  0.10998181005E+03  0.41800000000E+01 0.  1.
        -11    1    4    4    0    0 -0.54724678895E+02 -0.62411931740E+02 -0.11614260042E+02  0.83814859900E+02  0.00000000000E+00 0.  1.
         11    1    4    4    0    0  0.10988188605E+02 -0.57158815851E+02  0.50553287387E+02  0.77094133265E+02  0.00000000000E+00 0. -1.
</event>
<event>
 8    1  0.6834011E-009  0.1406082E+03  0.7561462E-02  0.1212513E+00
          2   -1    0    0  501    0  0.00000000000E+00  0.00000000000E+00  0.26874664664E+03  0.26874664664E+03  0.00000000000E+00 0.  1.
         -2   -1    0    0    0  501 -0.00000000000E+00 -0.00000000000E+00 -0.80457759912E+02  0.80457759912E+02  0.00000000000E+00 0. -1.
         25    2    1    2    0    0 -0.74393242884E+02 -0.56863411660E+02  0.61715722338E+02  0.16799993825E+03  0.12508935484E+03 0.  0.
         23    2    1    2    0    0  0.74393242884E+02  0.56863411660E+02  0.12657316439E+03  0.18120446830E+03  0.89702236413E+02 0.  0.
          5    1    3    3  502    0  0.16449983749E+02 -0.62851355870E+02  0.26843951129E+02  0.70419919144E+02  0.41800000000E+01 0.  1.
         -5    1    3    3    0  502 -0.90843226633E+02  0.59879442100E+01  0.34871771209E+02  0.97580019103E+02  0.41800000000E+01 0.  1.
        -11    1    4    4    0    0  0.29382407779E+02  0.71778683814E+02  0.53973791432E+02  0.94491668938E+02  0.00000000000E+00 0.  1.
         11    1    4    4    0    0  0.45010835105E+02 -0.14915272154E+02  0.72599372956E+02  0.86712799366E+02  0.00000000000E+00 0. -1.
</event>
<event>
 8    1  0.6834011E-009  0.8487177E+02  0.7561462E-02  0.1315768E+00
          1   -1    0    0  501    0  0.00000000000E+00  0.00000000000E+00  0.52857532221E+03  0.52857532221E+03  0.00000000000E+00 0. -1.
         -1   -1    0    0    0  501 -0.00000000000E+00 -0.00000000000E+00 -0.31065223335E+02  0.31065223335E+02  0.00000000000E+00 0.  1.
         25    2    1    2    0    0  0.65765806625E+02  0.10098974672E+01  0.22042592115E+03  0.26184170717E+03  0.12508929486E+03 0.  0.
         23    2    1    2    0    0 -0.65765806625E+02 -0.10098974672E+01  0.27708417773E+03  0.29779883837E+03  0.87076663769E+02 0.  0.
          5    1    3    3  502    0  0.45808831465E+02  0.95344162454E+01  0.23212851863E+03  0.23683427896E+03  0.41800000000E+01 0.  1.
         -5    1    3    3    0  502  0.19956975160E+02 -0.85245187782E+01 -0.11702597480E+02  0.25007428210E+02  0.41800000000E+01 0.  1.
        -11    1    4    4    0    0  0.10267406996E+02  0.19393030329E+02  0.12113362793E+03  0.12310509773E+03  0.00000000000E+00 0.  1.
         11    1    4    4    0    0 -0.76033213621E+02 -0.20402927796E+02  0.15595054980E+03  0.17469374064E+03  0.00000000000E+00 0. -1.
</event>
<event>
 8    1  0.6834011E-009  0.2807847E+03  0.7561462E-02  0.1095261E+00
         -2   -1    0    0    0  501 -0.00000000000E+00  0.00000000000E+00  0.59010494469E+02  0.59010494469E+02  0.00000000000E+00 0.  1.
          2   -1    0    0  501    0  0.00000000000E+00 -0.00000000000E+00 -0.17006084149E+04  0.17006084149E+04  0.00000000000E+00 0. -1.
         25    2    1    2    0    0 -0.26775285460E+03 -0.16456369926E+02 -0.12021638066E+04  0.12380662299E+04  0.12509104045E+03 0.  0.
         23    2    1    2    0    0  0.26775285460E+03  0.16456369926E+02 -0.43943411382E+03  0.52155267948E+03  0.83381375777E+02 0.  0.
          5    1    3    3  502    0 -0.14685899715E+03  0.47543096358E+02 -0.74607502018E+03  0.76188799649E+03  0.41800000000E+01 0. -1.
         -5    1    3    3    0  502 -0.12089385746E+03 -0.63999466285E+02 -0.45608878641E+03  0.47617823338E+03  0.41800000000E+01 0. -1.
        -11    1    4    4    0    0  0.20864145763E+03 -0.10623308592E+01 -0.26980952974E+03  0.34107120771E+03  0.00000000000E+00 0. -1.
         11    1    4    4    0    0  0.59111396971E+02  0.17518700786E+02 -0.16962458407E+03  0.18048147177E+03  0.00000000000E+00 0.  1.
</event>
<event>
 8    1  0.6834011E-009  0.1066027E+03  0.7561462E-02  0.1266994E+00
          2   -1    0    0  501    0  0.00000000000E+00  0.00000000000E+00  0.11003629976E+03  0.11003629976E+03  0.00000000000E+00 0. -1.
         -2   -1    0    0    0  501 -0.00000000000E+00 -0.00000000000E+00 -0.18632702478E+03  0.18632702478E+03  0.00000000000E+00 0.  1.
         25    2    1    2    0    0  0.18279369643E+02 -0.71488711276E+02  0.16365867545E+02  0.14614668219E+03  0.12508493075E+03 0.  0.
         23    2    1    2    0    0 -0.18279369643E+02  0.71488711276E+02 -0.92656592568E+02  0.15021664235E+03  0.92385195236E+02 0.  0.
          5    1    3    3  502    0 -0.39507103919E+02 -0.69998645616E+02  0.31199173786E+02  0.86321969932E+02  0.41800000000E+01 0.  1.
         -5    1    3    3    0  502  0.57786473562E+02 -0.14900656606E+01 -0.14833306241E+02  0.59824712255E+02  0.41800000000E+01 0.  1.
        -11    1    4    4    0    0 -0.12145105406E+02  0.24192731477E+02 -0.98514566658E+02  0.10216609851E+03  0.00000000000E+00 0.  1.
         11    1    4    4    0    0 -0.61342642369E+01  0.47295979799E+02  0.58579740893E+01  0.48050543840E+02  0.00000000000E+00 0. -1.
</event>
<event>
 8    1  0.6834011E-009  0.1781884E+03  0.7561462E-02  0.1169568E+00
          2   -1    0    0  501    0  0.00000000000E+00  0.00000000000E+00  0.47880260697E+03  0.47880260697E+03  0.00000000000E+00 0. -1.
         -2   -1    0    0    0  501 -0.00000000000E+00 -0.00000000000E+00 -0.84201374976E+02  0.84201374976E+02  0.00000000000E+00 0.  1.
         25    2    1    2    0    0  0.95258528121E+02  0.11975689397E+03  0.30562989589E+03  0.36396871852E+03  0.12509074292E+03 0.  0.
         23    2    1    2    0    0 -0.95258528121E+02 -0.11975689397E+03  0.88971336101E+02  0.19903526343E+03  0.91012288222E+02 0.  0.
          5    1    3    3  502    0 -0.83492747626E+01  0.72545273900E+02  0.18040788185E+03  0.19467152690E+03  0.41800000000E+01 0. -1.
         -5    1    3    3    0  502  0.10360780288E+03  0.47211620066E+02  0.12522201405E+03  0.16929719162E+03  0.41800000000E+01 0. -1.
        -11    1    4    4    0    0  0.61327223335E+01 -0.39539630056E+02  0.49926436514E+02  0.63981573059E+02  0.00000000000E+00 0.  1.
         11    1    4    4    0    0 -0.10139125045E+03 -0.80217263910E+02  0.39044899587E+02  0.13505369037E+03  0.00000000000E+00 0. -1.
</event>
<event>
 8    1  0.6834011E-009  0.1605977E+03  0.7561462E-02  0.1188024E+00
         -2   -1    0    0    0  501 -0.00000000000E+00  0.00000000000E+00  0.32329845427E+03  0.32329845427E+03  0.00000000000E+00 0.  1.
          2   -1    0    0  501    0  0.00000000000E+00 -0.00000000000E+00 -0.86988292681E+02  0.86988292681E+02  0.00000000000E+00 0. -1.
         25    2    1    2    0    0  0.10060969349E+03  0.77835507869E+02  0.12694438626E+03  0.21895932448E+03  0.12509049468E+03 0.  0.
         23    2    1    2    0    0 -0.10060969349E+03 -0.77835507869E+02  0.10936577533E+03  0.19132742248E+03  0.92003440530E+02 0.  0.
          5    1    3    3  502    0  0.42549069863E+02 -0.26891842811E+02  0.99163204677E+01  0.51472326230E+02  0.41800000000E+01 0.  1.
         -5    1    3    3    0  502  0.58060623632E+02  0.10472735068E+03  0.11702806580E+03  0.16748699825E+03  0.41800000000E+01 0.  1.
        -11    1    4    4    0    0  0.13708537307E+02 -0.24313339636E+01 -0.29286973148E+01  0.14227179899E+02  0.00000000000E+00 0. -1.
         11    1    4    4    0    0 -0.11431823080E+03 -0.75404173906E+02  0.11229447264E+03  0.17710024258E+03  0.00000000000E+00 0.  1.
</event>
<event>
 8    1  0.6834011E-009  0.1189604E+03  0.7561462E-02  0.1244822E+00
         -1   -1    0    0    0  501 -0.00000000000E+00  0.00000000000E+00  0.25108759537E+02  0.25108759537E+02  0.00000000000E+00 0.  1.
          1   -1    0    0  501    0  0.00000000000E+00 -0.00000000000E+00 -0.96450797784E+03  0.96450797784E+03  0.00000000000E+00 0. -1.
         25    2    1    2    0    0 -0.78960132369E+02 -0.26431453565E+02 -0.71788821641E+03  0.73344705878E+03  0.12509105695E+03 0.  0.
         23    2    1    2    0    0  0.78960132369E+02  0.26431453565E+02 -0.22151100189E+03  0.25616967860E+03  0.98094118238E+02 0.  0.
          5    1    3    3  502    0 -0.52045460657E+02 -0.58985635685E+02 -0.63924407477E+03  0.64407957173E+03  0.41800000000E+01 0.  1.
         -5    1    3    3    0  502 -0.26914671712E+02  0.32554182120E+02 -0.78644141642E+02  0.89367487049E+02  0.41800000000E+01 0.  1.
        -11    1    4    4    0    0  0.92260469559E+02  0.37308442719E+02 -0.13358074098E+03  0.16657649444E+03  0.00000000000E+00 0.  1.
         11    1    4    4    0    0 -0.13300337190E+02 -0.10876989154E+02 -0.87930260911E+02  0.89593184151E+02  0.00000000000E+00 0. -1.
</event>
<event>
 8    1  0.6834011E-009  0.3269992E+03  0.7561462E-02  0.1072472E+00
         -1   -1    0    0    0  501 -0.00000000000E+00  0.00000000000E+00  0.47546884929E+03  0.47546884929E+03  0.00000000000E+00 0.  1.
          1   -1    0    0  501    0  0.00000000000E+00 -0.00000000000E+00 -0.22563203365E+03  0.22563203365E+03  0.00000000000E+00 0. -1.
         25    2    1    2    0    0  0.25461407680E+03 -0.17475100133E+03  0.12934582021E+03  0.35741364214E+03  0.12509168562E+03 0.  0.
         23    2    1    2    0    0 -0.25461407680E+03  0.17475100133E+03  0.12049099542E+03  0.34368724080E+03  0.90755710230E+02 0.  0.
          5    1    3    3  502    0  0.22852695632E+03 -0.92690361000E+02  0.10279936592E+03  0.26721013234E+03  0.41800000000E+01 0. -1.
         -5    1    3    3    0  502  0.26087120479E+02 -0.82060640327E+02  0.26546454292E+02  0.90203509805E+02  0.41800000000E+01 0. -1.
        -11    1    4    4    0    0 -0.13914030366E+03  0.14694988779E+03  0.64694942092E+02  0.21246112387E+03  0.00000000000E+00 0.  1.
         11    1    4    4    0    0 -0.11547377314E+03  0.27801113542E+02  0.55796053333E+02  0.13122611693E+03  0.00000000000E+00 0. -1.
</event>
<event>
 8    1  0.6834011E-009  0.9282378E+02  0.7561462E-02  0.1296154E+00
         -1   -1    0    0    0  501 -0.00000000000E+00  0.00000000000E+00  0.10622649948E+03  0.10622649948E+03  0.00000000000E+00 0.  1.
          1   -1    0    0  501    0  0.00000000000E+00 -0.00000000000E+00 -0.14828342299E+03  0.14828342299E+03  0.00000000000E+00 0. -1.
         25    2    1    2    0    0  0.42347714417E+02 -0.37436234837E+02 -0.49346559732E+02  0.14586659875E+03  0.12508869285E+03 0.  0.
         23    2    1    2    0    0 -0.42347714417E+02  0.37436234837E+02  0.72896362168E+01  0.10864332372E+03  0.92495580423E+02 0.  0.
          5    1    3    3  502    0  0.86940723258E+01 -0.44045121927E+02 -0.85000200072E+02  0.96218844679E+02  0.41800000000E+01 0. -1.
         -5    1    3    3    0  502  0.33653642091E+02  0.66088870892E+01  0.35653640340E+02  0.49647754069E+02  0.41800000000E+01 0. -1.
        -11    1    4    4    0    0 -0.60141598463E+02 -0.46438355790E+01  0.15366897592E+02  0.62247237819E+02  0.00000000000E+00 0.  1.
         11    1    4    4    0    0  0.17793884045E+02  0.42080070416E+02 -0.80772613749E+01  0.46396085902E+02  0.00000000000E+00 0. -1.
</event>
<event>
 8    1  0.6834011E-009  0.2822687E+03  0.7561462E-02  0.1094456E+00
          2   -1    0    0  501    0  0.00000000000E+00  0.00000000000E+00  0.62176603690E+03  0.62176603690E+03  0.00000000000E+00 0. -1.
         -2   -1    0    0    0  501 -0.00000000000E+00 -0.00000000000E+00 -0.14434252111E+03  0.14434252111E+03  0.00000000000E+00 0.  1.
         25    2    1    2    0    0 -0.16958286677E+03 -0.20271061270E+03  0.35735371698E+03  0.46173533421E+03  0.12509156092E+03 0.  0.
         23    2    1    2    0    0  0.16958286677E+03  0.20271061270E+03  0.12006979880E+03  0.30437322380E+03  0.91522464878E+02 0.  0.
          5    1    3    3  502    0 -0.40954281877E+02 -0.14612483120E+03  0.18548019842E+03  0.23968749634E+03  0.41800000000E+01 0. -1.
         -5    1    3    3    0  502 -0.12862858489E+03 -0.56585781507E+02  0.17187351856E+03  0.22204783787E+03  0.41800000000E+01 0. -1.
        -11    1    4    4    0    0  0.40402751843E+02  0.12659328937E+02  0.46953359621E+02  0.63223879550E+02  0.00000000000E+00 0. -1.
         11    1    4    4    0    0  0.12918011492E+03  0.19005128377E+03  0.73116439183E+02  0.24114934425E+03  0.00000000000E+00 0.  1.
</event>
<event>
 8    1  0.6834011E-009  0.1149542E+03  0.7561462E-02  0.1251661E+00
         -1   -1    0    0    0  501 -0.00000000000E+00  0.00000000000E+00  0.13942464800E+02  0.13942464800E+02  0.00000000000E+00 0.  1.
          1   -1    0    0  501    0  0.00000000000E+00 -0.00000000000E+00 -0.99280781914E+03  0.99280781914E+03  0.00000000000E+00 0. -1.
         25    2    1    2    0    0  0.60036365621E+01 -0.41900738617E+02 -0.59129935511E+03  0.60586633746E+03  0.12508947185E+03 0.  0.
         23    2    1    2    0    0 -0.60036365621E+01  0.41900738617E+02 -0.38756599923E+03  0.40088394648E+03  0.93321054629E+02 0.  0.
          5    1    3    3  502    0  0.47266743891E+02 -0.68066941569E+02 -0.37918005979E+03  0.38815234606E+03  0.41800000000E+01 0.  1.
         -5    1    3    3    0  502 -0.41263107329E+02  0.26166202952E+02 -0.21211929533E+03  0.21771399140E+03  0.41800000000E+01 0.  1.
        -11    1    4    4    0    0 -0.46717912605E+02  0.14879051283E+02 -0.25331453661E+03  0.25801589870E+03  0.00000000000E+00 0.  1.
         11    1    4    4    0    0  0.40714276042E+02  0.27021687334E+02 -0.13425146262E+03  0.14286804778E+03  0.00000000000E+00 0. -1.
</event>
<event>
 8    1  0.6834011E-009  0.2488502E+03  0.7561462E-02  0.1114034E+00
          2   -1    0    0  501    0  0.00000000000E+00  0.00000000000E+00  0.25317764011E+04  0.25317764011E+04  0.00000000000E+00 0. -1.
         -2   -1    0    0    0  501 -0.00000000000E+00 -0.00000000000E+00 -0.28793652636E+02  0.28793652636E+02  0.00000000000E+00 0.  1.
         25    2    1    2    0    0 -0.20798867398E+03  0.11811674025E+03  0.15805767859E+04  0.16034593371E+04  0.12509203387E+03 0.  0.
         23    2    1    2    0    0  0.20798867398E+03 -0.11811674025E+03  0.92240596265E+03  0.95711071668E+03  0.89539439404E+02 0.  0.
          5    1    3    3  502    0 -0.14477382786E+03  0.10134816291E+03  0.14045282930E+04  0.14156087417E+04  0.41800000000E+01 0.  1.
         -5    1    3    3    0  502 -0.63214846118E+02  0.16768577336E+02  0.17604849288E+03  0.18785059542E+03  0.41800000000E+01 0.  1.
        -11    1    4    4    0    0  0.99051619762E+02 -0.10712976957E+03  0.52423344172E+03  0.54415871979E+03  0.00000000000E+00 0.  1.
         11    1    4    4    0    0  0.10893705421E+03 -0.10986970673E+02  0.39817252093E+03  0.41295199688E+03  0.00000000000E+00 0. -1.
</event>
<event>
 8    1  0.6834011E-009  0.1108926E+03  0.7561462E-02  0.1258926E+00
          2   -1    0    0  501    0  0.00000000000E+00  0.00000000000E+00  0.99429075088E+03  0.99429075088E+03  0.00000000000E+00 0. -1.
         -2   -1    0    0    0  501 -0.00000000000E+00 -0.00000000000E+00 -0.13089249608E+02  0.13089249608E+02  0.00000000000E+00 0.  1.
         25    2    1    2    0    0 -0.33442996471E+02 -0.67172362333E+01  0.61180647359E+03  0.62539452980E+03  0.12509037330E+03 0.  0.
         23    2    1    2    0    0  0.33442996471E+02  0.67172362333E+01  0.36939502768E+03  0.38198547069E+03  0.91085992729E+02 0.  0.
          5    1    3    3  502    0  0.21339300360E+02  0.45538588283E+02  0.31709021903E+03  0.32108068794E+03  0.41800000000E+01 0.  1.
         -5    1    3    3    0  502 -0.54782296830E+02 -0.52255824517E+02  0.29471625457E+03  0.30431384186E+03  0.41800000000E+01 0.  1.
        -11    1    4    4    0    0  0.62633043496E+02  0.16398256609E+02  0.21412606965E+03  0.22370018923E+03  0.00000000000E+00 0. -1.
         11    1    4    4    0    0 -0.29190047025E+02 -0.96810203757E+01  0.15526895803E+03  0.15828528147E+03  0.00000000000E+00 0.  1.
</event>
<event>
 8    1  0.6834011E-009  0.1903226E+03  0.7561462E-02  0.1158171E+00
          2   -1    0    0  501    0  0.00000000000E+00  0.00000000000E+00  0.87133117654E+03  0.87133117654E+03  0.00000000000E+00 0. -1.
         -2   -1    0    0    0  501 -0.00000000000E+00 -0.00000000000E+00 -0.49150306383E+02  0.49150306383E+02  0.00000000000E+00 0.  1.
         25    2    1    2    0    0 -0.49452200514E+00 -0.17553599280E+03  0.44797515264E+03  0.49713405163E+03  0.12508956223E+03 0.  0.
         23    2    1    2    0    0  0.49452200514E+00  0.17553599280E+03  0.37420571751E+03  0.42334743129E+03  0.91542335800E+02 0.  0.
          5    1    3    3  502    0 -0.51074817889E+02 -0.11007870504E+03  0.34012108078E+03  0.36114509593E+03  0.41800000000E+01 0. -1.
         -5    1    3    3    0  502  0.50580295883E+02 -0.65457287766E+02  0.10785407186E+03  0.13598895569E+03  0.41800000000E+01 0. -1.
        -11    1    4    4    0    0 -0.81349147728E+01  0.62050271431E+02  0.51136311512E+02  0.80816677598E+02  0.00000000000E+00 0.  1.
         11    1    4    4    0    0  0.86294367779E+01  0.11348572137E+03  0.32306940600E+03  0.34253075369E+03  0.00000000000E+00 0. -1.
</event>
<event>
 8    1  0.6834011E-009  0.9888566E+02  0.7561462E-02  0.1282657E+00
         -1   -1    0    0    0  501 -0.00000000000E+00  0.00000000000E+00  0.38731127498E+03  0.38731127498E+03  0.00000000000E+00 0.  1.
          1   -1    0    0  501    0  0.00000000000E+00 -0.00000000000E+00 -0.31899510128E+02  0.31899510128E+02  0.00000000000E+00 0. -1.
         25    2    1    2    0    0 -0.24908616371E+02 -0.30435823221E+01  0.20461597975E+03  0.24113056908E+03  0.12508616875E+03 0.  0.
         23    2    1    2    0    0  0.24908616371E+02  0.30435823221E+01  0.15079578511E+03  0.17808021603E+03  0.91342717133E+02 0.  0.
          5    1    3    3  502    0 -0.42756618315E+02 -0.43116088730E+02  0.45409800647E+02  0.75938448179E+02  0.41800000000E+01 0.  1.
         -5    1    3    3    0  502  0.17848001944E+02  0.40072506408E+02  0.15920617910E+03  0.16519212090E+03  0.41800000000E+01 0.  1.
        -11    1    4    4    0    0  0.10108260928E+02 -0.43157724619E+02  0.89798202993E+02  0.10014231570E+03  0.00000000000E+00 0.  1.
         11    1    4    4    0    0  0.14800355443E+02  0.46201306941E+02  0.60997582114E+02  0.77937900331E+02  0.00000000000E+00 0. -1.
</event>
<event>
 8    1  0.6834011E-009  0.1669568E+03  0.7561462E-02  0.1181059E+00
          1   -1    0    0  501    0  0.00000000000E+00  0.00000000000E+00  0.81348215302E+03  0.81348215302E+03  0.00000000000E+00 0. -1.
         -1   -1    0    0    0  501 -0.00000000000E+00 -0.00000000000E+00 -0.36598868627E+02  0.36598868627E+02  0.00000000000E+00 0.  1.
         25    2    1    2    0    0  0.99739834898E+02 -0.86624338150E+02  0.35916022451E+03  0.40261043986E+03  0.12508912339E+03 0.  0.
         23    2    1    2    0    0 -0.99739834898E+02  0.86624338150E+02  0.41772305988E+03  0.44747058179E+03  0.91025030507E+02 0.  0.
          5    1    3    3  502    0 -0.11572350233E+02 -0.63256459121E+02  0.17057126824E+03  0.18233850076E+03  0.41800000000E+01 0. -1.
         -5    1    3    3    0  502  0.11131218513E+03 -0.23367879029E+02  0.18858895627E+03  0.22027193910E+03  0.41800000000E+01 0. -1.
        -11    1    4    4    0    0 -0.16202679738E+02  0.68217410139E+02  0.13546134064E+03  0.15253169075E+03  0.00000000000E+00 0.  1.
         11    1    4    4    0    0 -0.83537155160E+02  0.18406928011E+02  0.28226171925E+03  0.29493889103E+03  0.00000000000E+00 0. -1.
</event>
<event>
 8    1  0.6834011E-009  0.1344946E+03  0.7561462E-02  0.1220935E+00
          2   -1    0    0  501    0  0.00000000000E+00  0.00000000000E+00  0.84506855011E+02  0.84506855011E+02  0.00000000000E+00 0. -1.
         -2   -1    0    0    0  501 -0.00000000000E+00 -0.00000000000E+00 -0.34552593362E+03  0.34552593362E+03  0.00000000000E+00 0.  1.
         25    2    1    2    0    0 -0.81333466300E+02 -0.67018394404E+02 -0.23797106765E+03  0.28876307585E+03  0.12508911628E+03 0.  0.
         23    2    1    2    0    0  0.81333466300E+02  0.67018394404E+02 -0.23048010964E+02  0.14126971278E+03  0.91210322936E+02 0.  0.
          5    1    3    3  502    0  0.25075427432E+02  0.53759728656E+01 -0.84615875231E+02  0.88515517771E+02  0.41800000000E+01 0.  1.
         -5    1    3    3    0  502 -0.10640889373E+03 -0.72394367270E+02 -0.15335519242E+03  0.20024755808E+03  0.41800000000E+01 0.  1.
        -11    1    4    4    0    0  0.21669697901E+02  0.46227975722E+02 -0.51015095859E+02  0.72174382935E+02  0.00000000000E+00 0.  1.
         11    1    4    4    0    0  0.59663768399E+02  0.20790418682E+02  0.27967084895E+02  0.69095329843E+02  0.00000000000E+00 0. -1.
</event>
<event>
 8    1  0.6834011E-009  0.1795668E+03  0.7561462E-02  0.1168223E+00
         -3   -1    0    0    0  501 -0.00000000000E+00  0.00000000000E+00  0.12112320095E+03  0.12112320095E+03  0.00000000000E+00 0.  1.
          3   -1    0    0  501    0  0.00000000000E+00 -0.00000000000E+00 -0.32451405284E+03  0.32451405284E+03  0.00000000000E+00 0. -1.
         25    2    1    2    0    0  0.11318786695E+03 -0.11240382995E+03 -0.56302860764E+02  0.21038968491E+03  0.12509073977E+03 0.  0.
         23    2    1    2    0    0 -0.11318786695E+03  0.11240382995E+03 -0.14708799113E+03  0.23524756887E+03  0.90886892978E+02 0.  0.
          5    1    3    3  502    0  0.40354555235E+02 -0.11557181540E+03 -0.78141776044E+01  0.12273495189E+03  0.41800000000E+01 0. -1.
         -5    1    3    3    0  502  0.72833311716E+02  0.31679854520E+01 -0.48488683160E+02  0.87654733026E+02  0.41800000000E+01 0. -1.
        -11    1    4    4    0    0 -0.11105146622E+03  0.95147868032E+02 -0.81544015620E+02  0.16743646982E+03  0.00000000000E+00 0.  1.
         11    1    4    4    0    0 -0.21364007258E+01  0.17255961916E+02 -0.65543975509E+02  0.67811099057E+02  0.00000000000E+00 0. -1.
</event>
<event>
 8    1  0.6834011E-009  0.1274565E+03  0.7561462E-02  0.1231279E+00
         -2   -1    0    0    0  501 -0.00000000000E+00  0.00000000000E+00  0.62067542162E+03  0.62067542162E+03  0.00000000000E+00 0. -1.
          2   -1    0    0  501    0  0.00000000000E+00 -0.00000000000E+00 -0.31006271609E+02  0.31006271609E+02  0.00000000000E+00 0.  1.
         25    2    1    2    0    0 -0.47262642979E+02  0.66188291455E+02  0.38213421419E+03  0.41022800535E+03  0.12508321778E+03 0.  0.
         23    2    1    2    0    0  0.47262642979E+02 -0.66188291455E+02  0.20753493582E+03  0.24145368789E+03  0.92814257843E+02 0.  0.
          5    1    3    3  502    0  0.34761824371E+02  0.39445450742E+02  0.78696566273E+02  0.94736212511E+02  0.41800000000E+01 0.  1.
         -5    1    3    3    0  502 -0.82024467350E+02  0.26742840714E+02  0.30343764792E+03  0.31549179284E+03  0.41800000000E+01 0.  1.
        -11    1    4    4    0    0  0.69155840696E+02 -0.34511506170E+02  0.94739606474E+02  0.12226678779E+03  0.00000000000E+00 0.  1.
         11    1    4    4    0    0 -0.21893197717E+02 -0.31676785286E+02  0.11279532935E+03  0.11918690010E+03  0.00000000000E+00 0. -1.
</event>
<event>
 8    1  0.6834011E-009  0.6650445E+02  0.7561462E-02  0.1372400E+00
          2   -1    0    0  501    0  0.00000000000E+00  0.00000000000E+00  0.40844267833E+02  0.40844267833E+02  0.00000000000E+00 0. -1.
         -2   -1    0    0    0  501 -0.00000000000E+00 -0.00000000000E+00 -0.30360625236E+03  0.30360625236E+03  0.00000000000E+00 0.  1.
         25    2    1    2    0    0 -0.83364712744E+01 -0.28330769599E+02 -0.14501387363E+03  0.19377906694E+03  0.12509665856E+03 0.  0.
         23    2    1    2    0    0  0.83364712744E+01  0.28330769599E+02 -0.11774811090E+03  0.15067145325E+03  0.89247632705E+02 0.  0.
          5    1    3    3  502    0 -0.74898907044E+01  0.22515562088E+02  0.13247357744E+02  0.27495706685E+02  0.41800000000E+01 0.  1.
         -5    1    3    3    0  502 -0.84658056994E+00 -0.50846331687E+02 -0.15826123137E+03  0.16628336026E+03  0.41800000000E+01 0.  1.
        -11    1    4    4    0    0  0.28627487314E+02  0.23485790010E+02 -0.66367187846E+01  0.37618631003E+02  0.00000000000E+00 0. -1.
         11    1    4    4    0    0 -0.20291016040E+02  0.48449795889E+01 -0.11111139212E+03  0.11305282225E+03  0.00000000000E+00 0.  1.
</event>
<event>
 8    1  0.6834011E-009  0.6290108E+02  0.7561462E-02  0.1386045E+00
          2   -1    0    0  501    0  0.00000000000E+00  0.00000000000E+00  0.31622607429E+03  0.31622607429E+03  0.00000000000E+00 0. -1.
         -2   -1    0    0    0  501 -0.00000000000E+00 -0.00000000000E+00 -0.60608411365E+02  0.60608411365E+02  0.00000000000E+00 0.  1.
         25    2    1    2    0    0  0.40105880040E+02  0.13881287279E+02  0.24062663655E+03  0.27449864251E+03  0.12508858771E+03 0.  0.
         23    2    1    2    0    0 -0.40105880040E+02 -0.13881287279E+02  0.14991026371E+02  0.10233584314E+03  0.91906050774E+02 0.  0.
          5    1    3    3  502    0 -0.16599331033E+02 -0.57362874825E+01  0.20245969646E+03  0.20326299190E+03  0.41800000000E+01 0. -1.
         -5    1    3    3    0  502  0.56705211073E+02  0.19617574761E+02  0.38166940083E+02  0.71235650609E+02  0.41800000000E+01 0. -1.
        -11    1    4    4    0    0 -0.79578177415E+01 -0.13238716052E+02  0.51452795954E+02  0.53721324233E+02  0.00000000000E+00 0. -1.
         11    1    4    4    0    0 -0.32148062298E+02 -0.64257122656E+00 -0.36461769582E+02  0.48614518905E+02  0.00000000000E+00 0.  1.
</event>
<event>
 8    1  0.6834011E-009  0.9467786E+02  0.7561462E-02  0.1291903E+00
         -2   -1    0    0    0  501 -0.00000000000E+00  0.00000000000E+00  0.15943262156E+02  0.15943262156E+02  0.00000000000E+00 0.  1.
          2   -1    0    0  501    0  0.00000000000E+00 -0.00000000000E+00 -0.78061673668E+03  0.78061673668E+03  0.00000000000E+00 0. -1.
         25    2    1    2    0    0 -0.31880297641E+01  0.35276238121E+01 -0.53337929314E+03  0.54787178124E+03  0.12508961054E+03 0.  0.
         23    2    1    2    0    0  0.31880297641E+01 -0.35276238121E+01 -0.23129418139E+03  0.24868821760E+03  0.91248142806E+02 0.  0.
          5    1    3    3  502    0 -0.58962829583E+02 -0.90401630302E+01 -0.17495255852E+03  0.18488972377E+03  0.41800000000E+01 0. -1.
         -5    1    3    3    0  502  0.55774799819E+02  0.12567786842E+02 -0.35842673462E+03  0.36298205748E+03  0.41800000000E+01 0. -1.
        -11    1    4    4    0    0  0.36418771465E+02 -0.11247685381E+02 -0.19572867216E+03  0.19940549252E+03  0.00000000000E+00 0. -1.
         11    1    4    4    0    0 -0.33230741701E+02  0.77200615688E+01 -0.35565509225E+02  0.49282725078E+02  0.00000000000E+00 0.  1.
</event>
<event>
 8    1  0.6834011E-009  0.1275393E+03  0.7561462E-02  0.1231153E+00
          1   -1    0    0  501    0  0.00000000000E+00  0.00000000000E+00  0.40150724351E+03  0.40150724351E+03  0.00000000000E+00 0. -1.
         -1   -1    0    0    0  501 -0.00000000000E+00 -0.00000000000E+00 -0.68766724491E+02  0.68766724491E+02  0.00000000000E+00 0.  1.
         25    2    1    2    0    0 -0.11272116019E+03  0.18780280344E+02  0.24747990036E+03  0.29992100676E+03  0.12509016879E+03 0.  0.
         23    2    1    2    0    0  0.11272116019E+03 -0.18780280344E+02  0.85260618651E+02  0.17035296123E+03  0.93230893069E+02 0.  0.
          5    1    3    3  502    0 -0.17267287118E+02 -0.18780958555E+02 -0.59134659999E+01  0.26520276937E+02  0.41800000000E+01 0. -1.
         -5    1    3    3    0  502 -0.95453873077E+02  0.37561238899E+02  0.25339336636E+03  0.27340072983E+03  0.41800000000E+01 0. -1.
        -11    1    4    4    0    0  0.96410597237E+02 -0.35936608628E+02  0.25396557262E+02  0.10597843281E+03  0.00000000000E+00 0.  1.
         11    1    4    4    0    0  0.16310562958E+02  0.17156328284E+02  0.59864061389E+02  0.64374528427E+02  0.00000000000E+00 0. -1.
</event>
<event>
 8    1  0.6834011E-009  0.1050389E+03  0.7561462E-02  0.1270043E+00
          1   -1    0    0  501    0  0.00000000000E+00  0.00000000000E+00  0.41526032195E+02  0.41526032195E+02  0.00000000000E+00 0. -1.
         -1   -1    0    0    0  501 -0.00000000000E+00 -0.00000000000E+00 -0.40311780901E+03  0.40311780901E+03  0.00000000000E+00 0.  1.
         25    2    1    2    0    0  0.26942173107E+02 -0.54269227189E+02 -0.16890702470E+03  0.21874243659E+03  0.12509053067E+03 0.  0.
         23    2    1    2    0    0 -0.26942173107E+02  0.54269227189E+02 -0.19268475211E+03  0.22590140461E+03  0.10115829772E+03 0.  0.
          5    1    3    3  502    0  0.53601525079E+02 -0.27074128504E+02 -0.17681487282E+02  0.62739455828E+02  0.41800000000E+01 0.  1.
         -5    1    3    3    0  502 -0.26659351972E+02 -0.27195098684E+02 -0.15122553742E+03  0.15600298077E+03  0.41800000000E+01 0.  1.
        -11    1    4    4    0    0 -0.62192547452E+02  0.33118446477E+02 -0.15443661708E+03  0.16975103285E+03  0.00000000000E+00 0. -1.
         11    1    4    4    0    0  0.35250374345E+02  0.21150780711E+02 -0.38248135025E+02  0.56150371762E+02  0.00000000000E+00 0.  1.
</event>
<event>
 8    1  0.6834011E-009  0.1040138E+03  0.7561462E-02  0.1272075E+00
         -1   -1    0    0    0  501 -0.00000000000E+00  0.00000000000E+00  0.40533397112E+02  0.40533397112E+02  0.00000000000E+00 0.  1.
          1   -1    0    0  501    0  0.00000000000E+00 -0.00000000000E+00 -0.47007068892E+03  0.47007068892E+03  0.00000000000E+00 0. -1.
         25    2    1    2    0    0  0.23869345223E+02 -0.79066336313E+02 -0.27729418056E+03  0.31521639199E+03  0.12509228605E+03 0.  0.
         23    2    1    2    0    0 -0.23869345223E+02  0.79066336313E+02 -0.15224311125E+03  0.19538769404E+03  0.90427622326E+02 0.  0.
          5    1    3    3  502    0 -0.26596938188E+02 -0.61935827855E+01 -0.40478697555E+01  0.27921590898E+02  0.41800000000E+01 0.  1.
         -5    1    3    3    0  502  0.50466283411E+02 -0.72872753528E+02 -0.27324631080E+03  0.28729480109E+03  0.41800000000E+01 0.  1.
        -11    1    4    4    0    0 -0.32028453535E+02  0.37565412402E+02 -0.14729208690E+02  0.51516323951E+02  0.00000000000E+00 0.  1.
         11    1    4    4    0    0  0.81591083116E+01  0.41500923911E+02 -0.13751390256E+03  0.14387137009E+03  0.00000000000E+00 0. -1.
</event>
<event>
 8    1  0.6834011E-009  0.2536384E+03  0.7561462E-02  0.1111027E+00
          2   -1    0    0  501    0  0.00000000000E+00  0.00000000000E+00  0.30069899463E+03  0.30069899463E+03  0.00000000000E+00 0. -1.
         -2   -1    0    0    0  501 -0.00000000000E+00 -0.00000000000E+00 -0.39998584363E+03  0.39998584363E+03  0.00000000000E+00 0.  1.
         25    2    1    2    0    0  0.63565444261E+02 -0.23441462104E+03  0.17402453625E+03  0.32391778225E+03  0.12508960860E+03 0.  0.
         23    2    1    2    0    0 -0.63565444261E+02  0.23441462104E+03 -0.27331138525E+03  0.37676705600E+03  0.90903910362E+02 0.  0.
          5    1    3    3  502    0  0.48022475682E+02 -0.50345459530E+02 -0.57277459625E+00  0.69703830144E+02  0.41800000000E+01 0. -1.
         -5    1    3    3    0  502  0.15542968579E+02 -0.18406916151E+03  0.17459731084E+03  0.25421395211E+03  0.41800000000E+01 0. -1.
        -11    1    4    4    0    0 -0.75608833658E+01  0.15738661242E+03 -0.12789606069E+03  0.20294116159E+03  0.00000000000E+00 0.  1.
         11    1    4    4    0    0 -0.56004560896E+02  0.77028008628E+02 -0.14541532455E+03  0.17382589441E+03  0.00000000000E+00 0. -1.
</event>
<event>
 8    1  0.6834011E-009  0.1261779E+03  0.7561462E-02  0.1233240E+00
         -2   -1    0    0    0  501 -0.00000000000E+00  0.00000000000E+00  0.16415902845E+02  0.16415902845E+02  0.00000000000E+00 0.  1.
          2   -1    0    0  501    0  0.00000000000E+00 -0.00000000000E+00 -0.19483266960E+04  0.19483266960E+04  0.00000000000E+00 0. -1.
         25    2    1    2    0    0 -0.10943855745E+03  0.18555243694E+02 -0.15362976658E+04  0.15453734531E+04  0.12508995381E+03 0.  0.
         23    2    1    2    0    0  0.10943855745E+03 -0.18555243694E+02 -0.39561312727E+03  0.41936914571E+03  0.83902556436E+02 0.  0.
          5    1    3    3  502    0 -0.16023465315E+01  0.41289136362E+01 -0.88624648756E+03  0.88626741142E+03  0.41800000000E+01 0. -1.
         -5    1    3    3    0  502 -0.10783621091E+03  0.14426330058E+02 -0.65005117828E+03  0.65910604167E+03  0.41800000000E+01 0. -1.
        -11    1    4    4    0    0  0.66403249522E+02  0.29690049671E+02 -0.17602571741E+03  0.19046244718E+03  0.00000000000E+00 0. -1.
         11    1    4    4    0    0  0.43035307924E+02 -0.48245293364E+02 -0.21958740986E+03  0.22890669853E+03  0.00000000000E+00 0.  1.
</event>
<event>
 8    1  0.6834011E-009  0.9197912E+02  0.7561462E-02  0.1298129E+00
          3   -1    0    0  501    0  0.00000000000E+00  0.00000000000E+00  0.37514094219E+02  0.37514094219E+02  0.00000000000E+00 0.  1.
         -3   -1    0    0    0  501 -0.00000000000E+00 -0.00000000000E+00 -0.41985428973E+03  0.41985428973E+03  0.00000000000E+00 0. -1.
         25    2    1    2    0    0 -0.13907236521E+00 -0.59960087422E+02 -0.19065619053E+03  0.23577298270E+03  0.12507551702E+03 0.  0.
         23    2    1    2    0    0  0.13907236521E+00  0.59960087422E+02 -0.19168400499E+03  0.22159540126E+03  0.93629763781E+02 0.  0.
          5    1    3    3  502    0 -0.76587691261E+01  0.58126947363E+01 -0.16391922101E+03  0.16425415544E+03  0.41800000000E+01 0. -1.
         -5    1    3    3    0  502  0.75196967609E+01 -0.65772782158E+02 -0.26736969519E+02  0.71518827250E+02  0.41800000000E+01 0. -1.
        -11    1    4    4    0    0 -0.40711417543E+02  0.51110539663E+02 -0.86466786530E+02  0.10837994259E+03  0.00000000000E+00 0.  1.
         11    1    4    4    0    0  0.40850489909E+02  0.88495477590E+01 -0.10521721846E+03  0.11321545867E+03  0.00000000000E+00 0. -1.
</event>
<event>
 8    1  0.6834011E-009  0.1058480E+03  0.7561462E-02  0.1268458E+00
         -1   -1    0    0    0  501 -0.00000000000E+00  0.00000000000E+00  0.26314649872E+02  0.26314649872E+02  0.00000000000E+00 0.  1.
          1   -1    0    0  501    0  0.00000000000E+00 -0.00000000000E+00 -0.83464543135E+03  0.83464543135E+03  0.00000000000E+00 0. -1.
         25    2    1    2    0    0  0.43581031401E+02 -0.38487412305E+02 -0.67797670616E+03  0.69186724449E+03  0.12508909905E+03 0.  0.
         23    2    1    2    0    0 -0.43581031401E+02  0.38487412305E+02 -0.13035407533E+03  0.16909283674E+03  0.90662093943E+02 0.  0.
          5    1    3    3  502    0 -0.36493163939E+02  0.14090261756E+02 -0.14046698864E+03  0.14587232016E+03  0.41800000000E+01 0. -1.
         -5    1    3    3    0  502  0.80074195341E+02 -0.52577674061E+02 -0.53750971752E+03  0.54599492433E+03  0.41800000000E+01 0. -1.
        -11    1    4    4    0    0 -0.19474426282E+02  0.47023830284E+02 -0.18189014022E+02  0.54049367477E+02  0.00000000000E+00 0.  1.
         11    1    4    4    0    0 -0.24106605119E+02 -0.85364179794E+01 -0.11216506130E+03  0.11504346926E+03  0.00000000000E+00 0. -1.
</event>
<event>
 8    1  0.6834011E-009  0.1106427E+03  0.7561462E-02  0.1259384E+00
          2   -1    0    0  501    0  0.00000000000E+00  0.00000000000E+00  0.80555897078E+03  0.80555897078E+03  0.00000000000E+00 0. -1.
         -2   -1    0    0    0  501 -0.00000000000E+00 -0.00000000000E+00 -0.21107807851E+02  0.21107807851E+02  0.00000000000E+00 0.  1.
         25    2    1    2    0    0 -0.34337610028E+02 -0.20565238179E+02  0.63516453188E+03  0.64859930641E+03  0.12508028318E+03 0.  0.
         23    2    1    2    0    0  0.34337610028E+02  0.20565238179E+02  0.14928663105E+03  0.17806747222E+03  0.88428083594E+02 0.  0.
          5    1    3    3  502    0 -0.37358130071E+02 -0.68892941871E+02  0.46714030944E+03  0.47368703637E+03  0.41800000000E+01 0.  1.
         -5    1    3    3    0  502  0.30205200428E+01  0.48327703691E+02  0.16802422244E+03  0.17491227004E+03  0.41800000000E+01 0.  1.
        -11    1    4    4    0    0 -0.12870002304E+02 -0.25298235893E+02  0.66508305118E+02  0.72311771851E+02  0.00000000000E+00 0.  1.
         11    1    4    4    0    0  0.47207612332E+02  0.45863474072E+02  0.82778325936E+02  0.10575570037E+03  0.00000000000E+00 0. -1.
</event>
<event>
 8    1  0.6834011E-009  0.1558456E+03  0.7561462E-02  0.1193469E+00
         -2   -1    0    0    0  501 -0.00000000000E+00  0.00000000000E+00  0.57077675410E+02  0.57077675410E+02  0.00000000000E+00 0. -1.
          2   -1    0    0  501    0  0.00000000000E+00 -0.00000000000E+00 -0.45045857136E+03  0.45045857136E+03  0.00000000000E+00 0.  1.
         25    2    1    2    0    0  0.33691713227E+02  0.11169478156E+03 -0.24097377904E+03  0.29551404016E+03  0.12509728207E+03 0.  0.
         23    2    1    2    0    0 -0.33691713227E+02 -0.11169478156E+03 -0.15240711691E+03  0.21202220661E+03  0.90081246901E+02 0.  0.
          5    1    3    3  502    0 -0.47535581747E+02  0.45107119256E+02 -0.84569685683E+02  0.10706907993E+03  0.41800000000E+01 0.  1.
         -5    1    3    3    0  502  0.81227294974E+02  0.66587662300E+02 -0.15640409335E+03  0.18844496023E+03  0.41800000000E+01 0.  1.
        -11    1    4    4    0    0  0.14639399475E+02 -0.83880770901E+02 -0.60255101072E+02  0.10431190224E+03  0.00000000000E+00 0. -1.
         11    1    4    4    0    0 -0.48331112703E+02 -0.27814010656E+02 -0.92152015842E+02  0.10771030437E+03  0.00000000000E+00 0.  1.
</event>
<event>
 8    1  0.6834011E-009  0.1075547E+03  0.7561462E-02  0.1265166E+00
         -2   -1    0    0    0  501 -0.00000000000E+00  0.00000000000E+00  0.42677959325E+02  0.42677959325E+02  0.00000000000E+00 0.  1.
          2   -1    0    0  501    0  0.00000000000E+00 -0.00000000000E+00 -0.32585473282E+03  0.32585473282E+03  0.00000000000E+00 0. -1.
         25    2    1    2    0    0 -0.40432754611E+02 -0.20342035428E+02 -0.17784407600E+03  0.22209330681E+03  0.12509322729E+03 0.  0.
         23    2    1    2    0    0  0.40432754611E+02  0.20342035428E+02 -0.10533269750E+03  0.14643938534E+03  0.91109331924E+02 0.  0.
          5    1    3    3  502    0  0.43918908807E+02 -0.20308964193E+02 -0.63825696148E+02  0.80202970433E+02  0.41800000000E+01 0.  1.
         -5    1    3    3    0  502 -0.84351663418E+02 -0.33071234704E-01 -0.11401837985E+03  0.14189033638E+03  0.41800000000E+01 0.  1.
        -11    1    4    4    0    0  0.59361793892E+02  0.21467342480E+02 -0.32150004365E+02  0.70839905053E+02  0.00000000000E+00 0.  1.
         11    1    4    4    0    0 -0.18929039282E+02 -0.11253070523E+01 -0.73182693139E+02  0.75599480284E+02  0.00000000000E+00 0. -1.
</event>
<event>
 8    1  0.6834011E-009  0.9617235E+02  0.7561462E-02  0.1288557E+00
         -1   -1    0    0    0  501 -0.00000000000E+00  0.00000000000E+00  0.17174861879E+02  0.17174861879E+02  0.00000000000E+00 0.  1.
          1   -1    0    0  501    0  0.00000000000E+00 -0.00000000000E+00 -0.98260734476E+03  0.98260734476E+03  0.00000000000E+00 0. -1.
         25    2    1    2    0    0 -0.59148420211E+02  0.30644384394E+02 -0.56601016943E+03  0.58348324614E+03  0.12509025829E+03 0.  0.
         23    2    1    2    0    0  0.59148420211E+02 -0.30644384394E+02 -0.39942231346E+03  0.41629896050E+03  0.96586883797E+02 0.  0.
          5    1    3    3  502    0 -0.60884239603E+01  0.21259489401E+02 -0.96219402798E+01  0.24476293238E+02  0.41800000000E+01 0.  1.
         -5    1    3    3    0  502 -0.53059996251E+02  0.93848949929E+01 -0.55638822915E+03  0.55900695290E+03  0.41800000000E+01 0.  1.
        -11    1    4    4    0    0  0.94316739103E+01 -0.58194416796E+02 -0.16967814702E+03  0.17962800504E+03  0.00000000000E+00 0.  1.
         11    1    4    4    0    0  0.49716746301E+02  0.27550032402E+02 -0.22974416643E+03  0.23667095546E+03  0.00000000000E+00 0. -1.
</event>
<event>
 8    1  0.6834011E-009  0.1865948E+03  0.7561462E-02  0.1161569E+00
         -2   -1    0    0    0  501 -0.00000000000E+00  0.00000000000E+00  0.84520421042E+03  0.84520421042E+03  0.00000000000E+00 0.  1.
          2   -1    0    0  501    0  0.00000000000E+00 -0.00000000000E+00 -0.60156083408E+02  0.60156083408E+02  0.00000000000E+00 0. -1.
         25    2    1    2    0    0 -0.14300350024E+03  0.63786221797E+02  0.16553920514E+03  0.25994190127E+03  0.12509148824E+03 0.  0.
         23    2    1    2    0    0  0.14300350024E+03 -0.63786221797E+02  0.61950892187E+03  0.64541839255E+03  0.90856557227E+02 0.  0.
          5    1    3    3  502    0 -0.16215735781E+03  0.48059827797E+02  0.11831988612E+03  0.20645053546E+03  0.41800000000E+01 0. -1.
         -5    1    3    3    0  502  0.19153857576E+02  0.15726394000E+02  0.47219319013E+02  0.53491365811E+02  0.41800000000E+01 0. -1.
        -11    1    4    4    0    0  0.30209642225E+02 -0.58640274710E+02  0.27837829695E+03  0.28608701563E+03  0.00000000000E+00 0.  1.
         11    1    4    4    0    0  0.11279385801E+03 -0.51459470869E+01  0.34113062493E+03  0.35933137692E+03  0.00000000000E+00 0. -1.
</event>
<event>
 8    1  0.6834011E-009  0.1446133E+03  0.7561462E-02  0.1207253E+00
         -2   -1    0    0    0  501 -0.00000000000E+00  0.00000000000E+00  0.46672996546E+02  0.46672996546E+02  0.00000000000E+00 0.  1.
          2   -1    0    0  501    0  0.00000000000E+00 -0.00000000000E+00 -0.71141514168E+03  0.71141514168E+03  0.00000000000E+00 0. -1.
         25    2    1    2    0    0  0.10201855467E+03  0.75071172081E+02 -0.50489209820E+03  0.53535710611E+03  0.12509090243E+03 0.  0.
         23    2    1    2    0    0 -0.10201855467E+03 -0.75071172081E+02 -0.15985004694E+03  0.22273103212E+03  0.89518762204E+02 0.  0.
          5    1    3    3  502    0  0.11816013399E+02  0.62425367593E+02 -0.34897469682E+03  0.35473561438E+03  0.41800000000E+01 0. -1.
         -5    1    3    3    0  502  0.90202541269E+02  0.12645804488E+02 -0.15591740138E+03  0.18062149173E+03  0.41800000000E+01 0. -1.
        -11    1    4    4    0    0 -0.81962135006E+02 -0.79113256390E+02 -0.77258155861E+02  0.13764273159E+03  0.00000000000E+00 0.  1.
         11    1    4    4    0    0 -0.20056419662E+02  0.40420843084E+01 -0.82591891077E+02  0.85088300529E+02  0.00000000000E+00 0. -1.
</event>
<event>
 8    1  0.6834011E-009  0.1049225E+03  0.7561462E-02  0.1270272E+00
          1   -1    0    0  501    0  0.00000000000E+00  0.00000000000E+00  0.51421511279E+03  0.51421511279E+03  0.00000000000E+00 0. -1.
         -1   -1    0    0    0  501 -0.00000000000E+00 -0.00000000000E+00 -0.28414636406E+02  0.28414636406E+02  0.00000000000E+00 0.  1.
         25    2    1    2    0    0  0.24880986458E+02  0.41311800249E+02  0.29189867341E+03  0.32121518036E+03  0.12509447720E+03 0.  0.
         23    2    1    2    0    0 -0.24880986458E+02 -0.41311800249E+02  0.19390180297E+03  0.22141456884E+03  0.95397975721E+02 0.  0.
          5    1    3    3  502    0  0.52332954999E+02  0.73748768869E+02  0.21448038349E+03  0.23280233330E+03  0.41800000000E+01 0.  1.
         -5    1    3    3    0  502 -0.27451968541E+02 -0.32436968620E+02  0.77418289923E+02  0.88412847056E+02  0.41800000000E+01 0.  1.
        -11    1    4    4    0    0  0.58279708092E+01 -0.45280941448E+02  0.18296574817E+03  0.18857569808E+03  0.00000000000E+00 0. -1.
         11    1    4    4    0    0 -0.30708957267E+02  0.39691411986E+01  0.10936054802E+02  0.32838870762E+02  0.00000000000E+00 0.  1.
</event>
<event>
 8    1  0.6834011E-009  0.1129560E+03  0.7561462E-02  0.1255192E+00
          1   -1    0    0  501    0  0.00000000000E+00  0.00000000000E+00  0.35192462560E+03  0.35192462560E+03  0.00000000000E+00 0. -1.
         -1   -1    0    0    0  501 -0.00000000000E+00 -0.00000000000E+00 -0.59888411422E+02  0.59888411422E+02  0.00000000000E+00 0.  1.
         25    2    1    2    0    0  0.77929426577E+02 -0.34288937191E+01  0.24151436516E+03  0.28295261733E+03  0.12509293440E+03 0.  0.
         23    2    1    2    0    0 -0.77929426577E+02  0.34288937191E+01  0.50521849023E+02  0.12886041969E+03  0.89262521230E+02 0.  0.
          5    1    3    3  502    0  0.10284888294E+03  0.24318546661E+02  0.14562993815E+03  0.17998565421E+03  0.41800000000E+01 0.  1.
         -5    1    3    3    0  502 -0.24919456362E+02 -0.27747440380E+02  0.95884427006E+02  0.10296696313E+03  0.41800000000E+01 0.  1.
        -11    1    4    4    0    0 -0.61504204478E+02 -0.88107989365E+01  0.74706158906E+02  0.97166905502E+02  0.00000000000E+00 0. -1.
         11    1    4    4    0    0 -0.16425222099E+02  0.12239692656E+02 -0.24184309883E+02  0.31693514192E+02  0.00000000000E+00 0.  1.
</event>
<event>
 8    1  0.6834011E-009  0.1770172E+03  0.7561462E-02  0.1170721E+00
         -3   -1    0    0    0  501 -0.00000000000E+00  0.00000000000E+00  0.10037230076E+03  0.10037230076E+03  0.00000000000E+00 0.  1.
          3   -1    0    0  501    0  0.00000000000E+00 -0.00000000000E+00 -0.38889776328E+03  0.38889776328E+03  0.00000000000E+00 0. -1.
         25    2    1    2    0    0  0.31936150166E+01 -0.15930077188E+03 -0.18156809600E+03  0.27203040927E+03  0.12508651000E+03 0.  0.
         23    2    1    2    0    0 -0.31936150166E+01  0.15930077188E+03 -0.10695736652E+03  0.21723965477E+03  0.10181480370E+03 0.  0.
          5    1    3    3  502    0  0.36316261903E+02 -0.14202529733E+03 -0.87606610908E+02  0.17082870554E+03  0.41800000000E+01 0.  1.
         -5    1    3    3    0  502 -0.33122646886E+02 -0.17275474551E+02 -0.93961485094E+02  0.10120170373E+03  0.41800000000E+01 0.  1.
        -11    1    4    4    0    0 -0.26997252295E+02  0.40810362205E+02 -0.79420952624E+02  0.93284645095E+02  0.00000000000E+00 0. -1.
         11    1    4    4    0    0  0.23803637279E+02  0.11849040968E+03 -0.27536413893E+02  0.12395500968E+03  0.00000000000E+00 0.  1.
</event>
<event>
 8    1  0.6834011E-009  0.1608543E+03  0.7561462E-02  0.1187736E+00
          2   -1    0    0  501    0  0.00000000000E+00  0.00000000000E+00  0.98591545456E+02  0.98591545456E+02  0.00000000000E+00 0. -1.
         -2   -1    0    0    0  501 -0.00000000000E+00 -0.00000000000E+00 -0.29554580869E+03  0.29554580869E+03  0.00000000000E+00 0.  1.
         25    2    1    2    0    0 -0.11883377078E+03  0.16267046000E+02 -0.16633398497E+03  0.24020962859E+03  0.12509032435E+03 0.  0.
         23    2    1    2    0    0  0.11883377078E+03 -0.16267046000E+02 -0.30620278257E+02  0.15392772556E+03  0.91488039609E+02 0.  0.
          5    1    3    3  502    0 -0.13472812348E+03 -0.17263047929E+02 -0.12769500557E+03  0.18647564701E+03  0.41800000000E+01 0. -1.
         -5    1    3    3    0  502  0.15894352701E+02  0.33530093929E+02 -0.38638979403E+02  0.53733981576E+02  0.41800000000E+01 0. -1.
        -11    1    4    4    0    0  0.45544107145E+02 -0.50138113188E+02 -0.27572166720E+02  0.73132212241E+02  0.00000000000E+00 0. -1.
         11    1    4    4    0    0  0.73289663635E+02  0.33871067188E+02 -0.30481115372E+01  0.80795513316E+02  0.00000000000E+00 0.  1.
</event>
<event>
 8    1  0.6834011E-009  0.1071606E+03  0.7561462E-02  0.1265920E+00
         -2   -1    0    0    0  501 -0.00000000000E+00  0.00000000000E+00  0.13181409610E+03  0.13181409610E+03  0.00000000000E+00 0. -1.
          2   -1    0    0  501    0  0.00000000000E+00 -0.00000000000E+00 -0.11385557986E+03  0.11385557986E+03  0.00000000000E+00 0.  1.
         25    2    1    2    0    0  0.27669804765E+02  0.22310253049E+02 -0.33507997170E+02  0.13428930578E+03  0.12508983286E+03 0.  0.
         23    2    1    2    0    0 -0.27669804765E+02 -0.22310253049E+02  0.51466513415E+02  0.11138037019E+03  0.92159749201E+02 0.  0.
          5    1    3    3  502    0 -0.42544300580E+02  0.32450702772E+02  0.42082304876E+01  0.53835371514E+02  0.41800000000E+01 0.  1.
         -5    1    3    3    0  502  0.70214105345E+02 -0.10140449722E+02 -0.37716227657E+02  0.80453934265E+02  0.41800000000E+01 0.  1.
        -11    1    4    4    0    0  0.13826829535E+02 -0.41589969925E+02  0.18227099247E+01  0.43866035663E+02  0.00000000000E+00 0.  1.
         11    1    4    4    0    0 -0.41496634300E+02  0.19279716875E+02  0.49643803490E+02  0.67514334523E+02  0.00000000000E+00 0. -1.
</event>
<event>
 8    1  0.6834011E-009  0.1344835E+03  0.7561462E-02  0.1220951E+00
         -1   -1    0    0    0  501 -0.00000000000E+00  0.00000000000E+00  0.14136586918E+03  0.14136586918E+03  0.00000000000E+00 0.  1.
          1   -1    0    0  501    0  0.00000000000E+00 -0.00000000000E+00 -0.17646112255E+03  0.17646112255E+03  0.00000000000E+00 0. -1.
         25    2    1    2    0    0  0.58681670069E+02  0.82197830134E+02 -0.75445160458E+02  0.17759329741E+03  0.12508950942E+03 0.  0.
         23    2    1    2    0    0 -0.58681670069E+02 -0.82197830134E+02  0.40349907092E+02  0.14023369432E+03  0.88528822088E+02 0.  0.
          5    1    3    3  502    0  0.47926600424E+02  0.11287280843E+03 -0.39381931116E+02  0.12886286824E+03  0.41800000000E+01 0. -1.
         -5    1    3    3    0  502  0.10755069644E+02 -0.30674978300E+02 -0.36063229343E+02  0.48730429173E+02  0.41800000000E+01 0. -1.
        -11    1    4    4    0    0 -0.66600240517E+02 -0.58969316570E+02  0.61247063980E+02  0.10800081101E+03  0.00000000000E+00 0.  1.
         11    1    4    4    0    0  0.79185704486E+01 -0.23228513564E+02 -0.20897156888E+02  0.32232883308E+02  0.00000000000E+00 0. -1.
</event>
<event>
 8    1  0.6834011E-009  0.1010219E+03  0.7561462E-02  0.1278162E+00
         -2   -1    0    0    0  501 -0.00000000000E+00  0.00000000000E+00  0.38281394074E+02  0.38281394074E+02  0.00000000000E+00 0.  1.
          2   -1    0    0  501    0  0.00000000000E+00 -0.00000000000E+00 -0.42272431637E+03  0.42272431637E+03  0.00000000000E+00 0. -1.
         25    2    1    2    0    0  0.64051493186E+02 -0.49154188936E+01 -0.18128744468E+03  0.22943467212E+03  0.12509346926E+03 0.  0.
         23    2    1    2    0    0 -0.64051493186E+02  0.49154188936E+01 -0.20315547762E+03  0.23157103833E+03  0.90698636058E+02 0.  0.
          5    1    3    3  502    0 -0.41025809081E+01 -0.27010900368E+02  0.65066534095E+01  0.28394169250E+02  0.41800000000E+01 0.  1.
         -5    1    3    3    0  502  0.68154074094E+02  0.22095481475E+02 -0.18779409809E+03  0.20104050287E+03  0.41800000000E+01 0.  1.
        -11    1    4    4    0    0 -0.58673423306E+02  0.37485727670E+02 -0.17442574529E+03  0.18780865529E+03  0.00000000000E+00 0. -1.
         11    1    4    4    0    0 -0.53780698800E+01 -0.32570308777E+02 -0.28729732329E+02  0.43762383038E+02  0.00000000000E+00 0.  1.
</event>
<event>
 8    1  0.6834011E-009  0.9941272E+02  0.7561462E-02  0.1281536E+00
         -2   -1    0    0    0  501 -0.00000000000E+00  0.00000000000E+00  0.89004872124E+02  0.89004872124E+02  0.00000000000E+00 0.  1.
          2   -1    0    0  501    0  0.00000000000E+00 -0.00000000000E+00 -0.17935735652E+03  0.17935735652E+03  0.00000000000E+00 0. -1.
         25    2    1    2    0    0  0.45393211649E+02  0.30584747246E+02 -0.88406140112E+02  0.16266327878E+03  0.12509087188E+03 0.  0.
         23    2    1    2    0    0 -0.45393211649E+02 -0.30584747246E+02 -0.19463442885E+01  0.10569894986E+03  0.90401932050E+02 0.  0.
          5    1    3    3  502    0 -0.41222621172E+02  0.27428566147E+02 -0.34846573459E+02  0.60690912162E+02  0.41800000000E+01 0.  1.
         -5    1    3    3    0  502  0.86615832821E+02  0.31561810982E+01 -0.53559566653E+02  0.10197236662E+03  0.41800000000E+01 0.  1.
        -11    1    4    4    0    0 -0.37545907690E+02 -0.79140899263E+01 -0.43321807612E+02  0.57871469813E+02  0.00000000000E+00 0. -1.
         11    1    4    4    0    0 -0.78473039595E+01 -0.22670657319E+02  0.41375463323E+02  0.47827480050E+02  0.00000000000E+00 0.  1.
</event>
<event>
 8    1  0.6834011E-009  0.7666832E+02  0.7561462E-02  0.1338781E+00
          2   -1    0    0  501    0  0.00000000000E+00  0.00000000000E+00  0.70223479184E+03  0.70223479184E+03  0.00000000000E+00 0. -1.
         -2   -1    0    0    0  501 -0.00000000000E+00 -0.00000000000E+00 -0.22312147865E+02  0.22312147865E+02  0.00000000000E+00 0.  1.
         25    2    1    2    0    0  0.39515385597E+02  0.52930144459E+01  0.23352688425E+03  0.26791008105E+03  0.12510605165E+03 0.  0.
         23    2    1    2    0    0 -0.39515385597E+02 -0.52930144459E+01  0.44639575972E+03  0.45663685866E+03  0.87513225758E+02 0.  0.
          5    1    3    3  502    0  0.11283942055E+02 -0.17264059410E+02 -0.88422948352E+01  0.22826162042E+02  0.41800000000E+01 0.  1.
         -5    1    3    3    0  502  0.28231443542E+02  0.22557073856E+02  0.24236917909E+03  0.24508391901E+03  0.41800000000E+01 0.  1.
        -11    1    4    4    0    0  0.85493525365E+01 -0.37235622384E+02  0.19419711678E+03  0.19791943606E+03  0.00000000000E+00 0.  1.
         11    1    4    4    0    0 -0.48064738134E+02  0.31942607938E+02  0.25219864294E+03  0.25871742260E+03  0.00000000000E+00 0. -1.
</event>
<event>
 8    1  0.6834011E-009  0.1385375E+03  0.7561462E-02  0.1215311E+00
          1   -1    0    0  501    0  0.00000000000E+00  0.00000000000E+00  0.49242299724E+02  0.49242299724E+02  0.00000000000E+00 0. -1.
         -1   -1    0    0    0  501 -0.00000000000E+00 -0.00000000000E+00 -0.50689089899E+03  0.50689089899E+03  0.00000000000E+00 0.  1.
         25    2    1    2    0    0  0.85936050789E+02 -0.76517015489E+02 -0.23594849509E+03  0.29078989338E+03  0.12508881355E+03 0.  0.
         23    2    1    2    0    0 -0.85936050789E+02  0.76517015489E+02 -0.22170010418E+03  0.26534330533E+03  0.89533652932E+02 0.  0.
          5    1    3    3  502    0  0.62230051658E+01  0.25484942190E+02 -0.98122767966E+02  0.10165509365E+03  0.41800000000E+01 0.  1.
         -5    1    3    3    0  502  0.79713045623E+02 -0.10200195768E+03 -0.13782572712E+03  0.18913479973E+03  0.41800000000E+01 0.  1.
        -11    1    4    4    0    0 -0.69793711565E+02  0.38551606705E+02 -0.20653216644E+03  0.22138862737E+03  0.00000000000E+00 0.  1.
         11    1    4    4    0    0 -0.16142339225E+02  0.37965408784E+02 -0.15167937739E+02  0.43954677965E+02  0.00000000000E+00 0. -1.
</event>
<event>
 8    1  0.6834011E-009  0.1143882E+03  0.7561462E-02  0.1252653E+00
         -2   -1    0    0    0  501 -0.00000000000E+00  0.00000000000E+00  0.21188539901E+02  0.21188539901E+02  0.00000000000E+00 0.  1.
          2   -1    0    0  501    0  0.00000000000E+00 -0.00000000000E+00 -0.70395403829E+03  0.70395403829E+03  0.00000000000E+00 0. -1.
         25    2    1    2    0    0 -0.49667858619E+02  0.10699438115E+02 -0.30712396986E+03  0.33549081832E+03  0.12509029602E+03 0.  0.
         23    2    1    2    0    0  0.49667858619E+02 -0.10699438115E+02 -0.37564152853E+03  0.38965175987E+03  0.90225062258E+02 0.  0.
          5    1    3    3  502    0  0.37894425243E+02 -0.15772776585E+02 -0.69373742675E+02  0.80715280576E+02  0.41800000000E+01 0.  1.
         -5    1    3    3    0  502 -0.87562283862E+02  0.26472214700E+02 -0.23775022718E+03  0.25477553774E+03  0.41800000000E+01 0.  1.
        -11    1    4    4    0    0  0.48572454290E+02 -0.42250045585E+02 -0.31245096209E+03  0.31901403320E+03  0.00000000000E+00 0. -1.
         11    1    4    4    0    0  0.10954043292E+01  0.31550607469E+02 -0.63190566432E+02  0.70637726665E+02  0.00000000000E+00 0.  1.
</event>
<event>
 8    1  0.6834011E-009  0.1391457E+03  0.7561462E-02  0.1214483E+00
          2   -1    0    0  501    0  0.00000000000E+00  0.00000000000E+00  0.57706092288E+03  0.57706092288E+03  0.00000000000E+00 0. -1.
         -2   -1    0    0    0  501 -0.00000000000E+00 -0.00000000000E+00 -0.60338104717E+02  0.60338104717E+02  0.00000000000E+00 0.  1.
         25    2    1    2    0    0 -0.75080688374E+02 -0.73081525233E+02  0.45688432270E+03  0.48514844356E+03  0.12509080245E+03 0.  0.
         23    2    1    2    0    0  0.75080688374E+02  0.73081525233E+02  0.59838495467E+02  0.15225058405E+03  0.92852440491E+02 0.  0.
          5    1    3    3  502    0 -0.18164517802E+01 -0.82451593043E+02  0.17170705571E+03  0.19053175607E+03  0.41800000000E+01 0. -1.
         -5    1    3    3    0  502 -0.73264236594E+02  0.93700678092E+01  0.28517726699E+03  0.29461668748E+03  0.41800000000E+01 0. -1.
        -11    1    4    4    0    0  0.73062919352E+02  0.30611068476E+02  0.45839144156E+00  0.79217661037E+02  0.00000000000E+00 0.  1.
         11    1    4    4    0    0  0.20177690225E+01  0.42470456757E+02  0.59380104026E+02  0.73032923008E+02  0.00000000000E+00 0. -1.
</event>
<event>
 8    1  0.6834011E-009  0.2025813E+03  0.7561462E-02  0.1147579E+00
         -2   -1    0    0    0  501 -0.00000000000E+00  0.00000000000E+00  0.18736280240E+03  0.18736280240E+03  0.00000000000E+00 0.  1.
          2   -1    0    0  501    0  0.00000000000E+00 -0.00000000000E+00 -0.25959774429E+03  0.25959774429E+03  0.00000000000E+00 0. -1.
         25    2    1    2    0    0 -0.15941572246E+03  0.10565004402E+03 -0.46944552311E+02  0.23329424663E+03  0.12508840932E+03 0.  0.
         23    2    1    2    0    0  0.15941572246E+03 -0.10565004402E+03 -0.25290389586E+02  0.21366630007E+03  0.91860653204E+02 0.  0.
          5    1    3    3  502    0 -0.14080700397E+03  0.11513072682E+03 -0.76084325403E+02  0.19720038944E+03  0.41800000000E+01 0.  1.
         -5    1    3    3    0  502 -0.18608718496E+02 -0.94806827989E+01  0.29139773092E+02  0.36093857182E+02  0.41800000000E+01 0.  1.
        -11    1    4    4    0    0  0.94913363856E+02 -0.24042603299E+02  0.20464971563E+02  0.10002703871E+03  0.00000000000E+00 0.  1.
         11    1    4    4    0    0  0.64502358607E+02 -0.81607440725E+02 -0.45755361149E+02  0.11363926136E+03  0.00000000000E+00 0. -1.
</event>
<event>
 8    1  0.6834011E-009  0.1263794E+03  0.7561462E-02  0.1232929E+00
         -2   -1    0    0    0  501 -0.00000000000E+00  0.00000000000E+00  0.63475459490E+02  0.63475459490E+02  0.00000000000E+00 0.  1.
          2   -1    0    0  501    0  0.00000000000E+00 -0.00000000000E+00 -0.26343388022E+03  0.26343388022E+03  0.00000000000E+00 0. -1.
         25    2    1    2    0    0 -0.17877888888E+02 -0.66749674990E+02 -0.12874591892E+03  0.19234108556E+03  0.12507774995E+03 0.  0.
         23    2    1    2    0    0  0.17877888888E+02  0.66749674990E+02 -0.71212501810E+02  0.13456825415E+03  0.90896955883E+02 0.  0.
          5    1    3    3  502    0  0.49636221749E+02 -0.49719405463E+01 -0.57859752061E+02  0.76509463538E+02  0.41800000000E+01 0. -1.
         -5    1    3    3    0  502 -0.67514110638E+02 -0.61777734443E+02 -0.70886166861E+02  0.11583162202E+03  0.41800000000E+01 0. -1.
        -11    1    4    4    0    0  0.30847767455E+02 -0.10632847719E+02 -0.35941660209E+02  0.48543229663E+02  0.00000000000E+00 0.  1.
         11    1    4    4    0    0 -0.12969878566E+02  0.77382522709E+02 -0.35270841602E+02  0.86025024488E+02  0.00000000000E+00 0. -1.
</event>
<event>
 8    1  0.6834011E-009  0.1731794E+03  0.7561462E-02  0.1174572E+00
          2   -1    0    0  501    0  0.00000000000E+00  0.00000000000E+00  0.10885071438E+04  0.10885071438E+04  0.00000000000E+00 0. -1.
         -2   -1    0    0    0  501 -0.00000000000E+00 -0.00000000000E+00 -0.36050867917E+02  0.36050867917E+02  0.00000000000E+00 0.  1.
         25    2    1    2    0    0 -0.88702264983E+02  0.13172206585E+03  0.68799138817E+03  0.71707594115E+03  0.12508781210E+03 0.  0.
         23    2    1    2    0    0  0.88702264983E+02 -0.13172206585E+03  0.36446488776E+03  0.40748207061E+03  0.89376669298E+02 0.  0.
          5    1    3    3  502    0 -0.53738346270E+02  0.13194100105E+03  0.64930276759E+03  0.66476145647E+03  0.41800000000E+01 0.  1.
         -5    1    3    3    0  502 -0.34963918713E+02 -0.21893519452E+00  0.38688620584E+02  0.52314484677E+02  0.41800000000E+01 0.  1.
        -11    1    4    4    0    0  0.19212086076E+02 -0.79243637408E+02  0.99885224579E+02  0.12894074767E+03  0.00000000000E+00 0.  1.
         11    1    4    4    0    0  0.69490178906E+02 -0.52478428447E+02  0.26457966318E+03  0.27854132294E+03  0.00000000000E+00 0. -1.
</event>
<event>
 8    1  0.6834011E-009  0.9957900E+02  0.7561462E-02  0.1281184E+00
          1   -1    0    0  501    0  0.00000000000E+00  0.00000000000E+00  0.22252177002E+02  0.22252177002E+02  0.00000000000E+00 0. -1.
         -1   -1    0    0    0  501 -0.00000000000E+00 -0.00000000000E+00 -0.13582718591E+04  0.13582718591E+04  0.00000000000E+00 0.  1.
         25    2    1    2    0    0 -0.18322801723E+02  0.36869074432E+02 -0.12208342705E+04  0.12279163041E+04  0.12508828856E+03 0.  0.
         23    2    1    2    0    0  0.18322801723E+02 -0.36869074432E+02 -0.11518541156E+03  0.15260773204E+03  0.91249039070E+02 0.  0.
          5    1    3    3  502    0 -0.14134682667E+01 -0.43170555083E+02 -0.62107128509E+03  0.62258550279E+03  0.41800000000E+01 0.  1.
         -5    1    3    3    0  502 -0.16909333456E+02  0.80039629515E+02 -0.59976298545E+03  0.60533080127E+03  0.41800000000E+01 0.  1.
        -11    1    4    4    0    0  0.13095505157E+02 -0.54193695098E+02 -0.12130566575E+03  0.13350473170E+03  0.00000000000E+00 0.  1.
         11    1    4    4    0    0  0.52272965651E+01  0.17324620666E+02  0.61202541937E+01  0.19103000340E+02  0.00000000000E+00 0. -1.
</event>
<event>
 8    1  0.6834011E-009  0.7405452E+02  0.7561462E-02  0.1346824E+00
         -2   -1    0    0    0  501 -0.00000000000E+00  0.00000000000E+00  0.11687814282E+03  0.11687814282E+03  0.00000000000E+00 0.  1.
          2   -1    0    0  501    0  0.00000000000E+00 -0.00000000000E+00 -0.10924543551E+03  0.10924543551E+03  0.00000000000E+00 0. -1.
         25    2    1    2    0    0  0.10739551249E+02 -0.24206485076E+02 -0.72805925076E+01  0.12806578036E+03  0.12508615107E+03 0.  0.
         23    2    1    2    0    0 -0.10739551249E+02  0.24206485076E+02  0.14913299824E+02  0.98057797974E+02  0.93228929796E+02 0.  0.
          5    1    3    3  502    0  0.39757575126E+02  0.77499950616E+01 -0.51816941168E+02  0.65902920993E+02  0.41800000000E+01 0. -1.
         -5    1    3    3    0  502 -0.29018023877E+02 -0.31956480138E+02  0.44536348660E+02  0.62162859365E+02  0.41800000000E+01 0. -1.
        -11    1    4    4    0    0  0.15863081527E+02  0.32492010282E+02 -0.28795868178E+02  0.46223047409E+02  0.00000000000E+00 0. -1.
         11    1    4    4    0    0 -0.26602632776E+02 -0.82855252057E+01  0.43709168003E+02  0.51834750564E+02  0.00000000000E+00 0.  1.
</event>
<event>
 8    1  0.6834011E-009  0.8883239E+02  0.7561462E-02  0.1305704E+00
         -4   -1    0    0    0  501 -0.00000000000E+00  0.00000000000E+00  0.69954876800E+02  0.69954876800E+02  0.00000000000E+00 0.  1.
          4   -1    0    0  501    0  0.00000000000E+00 -0.00000000000E+00 -0.18272977641E+03  0.18272977641E+03  0.00000000000E+00 0. -1.
         25    2    1    2    0    0 -0.28397595797E+02  0.17816472436E+02 -0.76360297017E+02  0.15034152955E+03  0.12509128831E+03 0.  0.
         23    2    1    2    0    0  0.28397595797E+02 -0.17816472436E+02 -0.36414602589E+02  0.10234312365E+03  0.89578130925E+02 0.  0.
          5    1    3    3  502    0 -0.62264722169E+01  0.55230025734E+02 -0.88864449939E+02  0.10489750980E+03  0.41800000000E+01 0. -1.
         -5    1    3    3    0  502 -0.22171123580E+02 -0.37413553298E+02  0.12504152922E+02  0.45444019755E+02  0.41800000000E+01 0. -1.
        -11    1    4    4    0    0  0.37930105150E+02 -0.39371057018E+02  0.47849730254E+01  0.54878675042E+02  0.00000000000E+00 0.  1.
         11    1    4    4    0    0 -0.95325093534E+01  0.21554584583E+02 -0.41199575614E+02  0.47464448610E+02  0.00000000000E+00 0. -1.
</event>
<event>
 8    1  0.6834011E-009  0.1938089E+03  0.7561462E-02  0.1155070E+00
         -1   -1    0    0    0  501 -0.00000000000E+00  0.00000000000E+00  0.81243402366E+02  0.81243402366E+02  0.00000000000E+00 0.  1.
          1   -1    0    0  501    0  0.00000000000E+00 -0.00000000000E+00 -0.59659374872E+03  0.59659374872E+03  0.00000000000E+00 0. -1.
         25    2    1    2    0    0  0.38273533680E+02  0.17629444368E+03 -0.36064314757E+03  0.42220826477E+03  0.12510693307E+03 0.  0.
         23    2    1    2    0    0 -0.38273533680E+02 -0.17629444368E+03 -0.15470719879E+03  0.25562888632E+03  0.94165895676E+02 0.  0.
          5    1    3    3  502    0  0.25286293427E+02  0.16324812825E+03 -0.19546886419E+03  0.25595878043E+03  0.41800000000E+01 0. -1.
         -5    1    3    3    0  502  0.12987240253E+02  0.13046315435E+02 -0.16517428337E+03  0.16624948434E+03  0.41800000000E+01 0. -1.
        -11    1    4    4    0    0 -0.63455491960E+02 -0.70977722635E+02 -0.71393641394E+02  0.11900205293E+03  0.00000000000E+00 0. -1.
         11    1    4    4    0    0  0.25181958280E+02 -0.10531672105E+03 -0.83313557396E+02  0.13662683339E+03  0.00000000000E+00 0.  1.
</event>
<event>
 8    1  0.6834011E-009  0.1465676E+03  0.7561462E-02  0.1204755E+00
          2   -1    0    0  501    0  0.00000000000E+00  0.00000000000E+00  0.25325810847E+02  0.25325810847E+02  0.00000000000E+00 0. -1.
         -2   -1    0    0    0  501 -0.00000000000E+00 -0.00000000000E+00 -0.13910908266E+04  0.13910908266E+04  0.00000000000E+00 0.  1.
         25    2    1    2    0    0 -0.94381443069E+02 -0.90254264945E+02 -0.10251655890E+04  0.10409925998E+04  0.12508964325E+03 0.  0.
         23    2    1    2    0    0  0.94381443069E+02  0.90254264945E+02 -0.34059942672E+03  0.37542403761E+03  0.88778090732E+02 0.  0.
          5    1    3    3  502    0 -0.11173840670E+03 -0.64801242404E+02 -0.96144332664E+03  0.97009041604E+03  0.41800000000E+01 0. -1.
         -5    1    3    3    0  502  0.17356963628E+02 -0.25453022542E+02 -0.63722262354E+02  0.70902183764E+02  0.41800000000E+01 0. -1.
        -11    1    4    4    0    0  0.29630308023E+02  0.44736691741E+02 -0.24739402594E+03  0.25314646119E+03  0.00000000000E+00 0.  1.
         11    1    4    4    0    0  0.64751135046E+02  0.45517573204E+02 -0.93205400782E+02  0.12227757642E+03  0.00000000000E+00 0. -1.
</event>
<event>
 8    1  0.6834011E-009  0.8001940E+02  0.7561462E-02  0.1328996E+00
         -1   -1    0    0    0  501 -0.00000000000E+00  0.00000000000E+00  0.22325959080E+02  0.22325959080E+02  0.00000000000E+00 0.  1.
          1   -1    0    0  501    0  0.00000000000E+00 -0.00000000000E+00 -0.58166724643E+03  0.58166724643E+03  0.00000000000E+00 0. -1.
         25    2    1    2    0    0  0.63869748867E+01 -0.33496748230E+02 -0.30637247111E+03  0.33267850047E+03  0.12509223811E+03 0.  0.
         23    2    1    2    0    0 -0.63869748867E+01  0.33496748230E+02 -0.25296881624E+03  0.27131470504E+03  0.91954453876E+02 0.  0.
          5    1    3    3  502    0 -0.36702489329E+02 -0.22135066919E+02 -0.27419105300E+03  0.27755222906E+03  0.41800000000E+01 0. -1.
         -5    1    3    3    0  502  0.43089464216E+02 -0.11361681311E+02 -0.32181418107E+02  0.55126271414E+02  0.41800000000E+01 0. -1.
        -11    1    4    4    0    0  0.11070952283E+02 -0.16155599770E+02 -0.86831806888E+01  0.21423515474E+02  0.00000000000E+00 0.  1.
         11    1    4    4    0    0 -0.17457927170E+02  0.49652348000E+02 -0.24428563555E+03  0.24989118956E+03  0.00000000000E+00 0. -1.
</event>
<event>
 8    1  0.6834011E-009  0.1420333E+03  0.7561462E-02  0.1210619E+00
          2   -1    0    0  501    0  0.00000000000E+00  0.00000000000E+00  0.26827587733E+04  0.26827587733E+04  0.00000000000E+00 0. -1.
         -2   -1    0    0    0  501 -0.00000000000E+00 -0.00000000000E+00 -0.11048112692E+02  0.11048112692E+02  0.00000000000E+00 0.  1.
         25    2    1    2    0    0 -0.23851002719E+02 -0.12847338627E+03  0.17753707456E+04  0.17845623856E+04  0.12508933812E+03 0.  0.
         23    2    1    2    0    0  0.23851002719E+02  0.12847338627E+03  0.89633991493E+03  0.90924450030E+03  0.78905240107E+02 0.  0.
          5    1    3    3  502    0 -0.64880600183E+01 -0.16665221755E+02  0.27746197896E+02  0.33273840124E+02  0.41800000000E+01 0. -1.
         -5    1    3    3    0  502 -0.17362942701E+02 -0.11180816452E+03  0.17476245477E+04  0.17512885455E+04  0.41800000000E+01 0. -1.
        -11    1    4    4    0    0  0.51674959760E+02  0.10057666120E+03  0.68296539661E+03  0.69226273857E+03  0.00000000000E+00 0.  1.
         11    1    4    4    0    0 -0.27823957041E+02  0.27896725073E+02  0.21337451832E+03  0.21698176173E+03  0.00000000000E+00 0. -1.
</event>
<event>
 8    1  0.6834011E-009  0.1316827E+03  0.7561462E-02  0.1224980E+00
          1   -1    0    0  501    0  0.00000000000E+00  0.00000000000E+00  0.53808189094E+03  0.53808189094E+03  0.00000000000E+00 0. -1.
         -1   -1    0    0    0  501 -0.00000000000E+00 -0.00000000000E+00 -0.37105223304E+02  0.37105223304E+02  0.00000000000E+00 0.  1.
         25    2    1    2    0    0  0.51616596834E+02  0.71880720459E+02  0.23331508487E+03  0.27912756220E+03  0.12508059847E+03 0.  0.
         23    2    1    2    0    0 -0.51616596834E+02 -0.71880720459E+02  0.26766158277E+03  0.29605955204E+03  0.90429112687E+02 0.  0.
          5    1    3    3  502    0  0.84816815278E+02  0.42530034267E+02  0.97104006315E+02  0.13582840797E+03  0.41800000000E+01 0. -1.
         -5    1    3    3    0  502 -0.33200218444E+02  0.29350686192E+02  0.13621107855E+03  0.14329915424E+03  0.41800000000E+01 0. -1.
        -11    1    4    4    0    0 -0.79697416635E+01  0.20343646831E+02  0.74080757899E+02  0.77235609918E+02  0.00000000000E+00 0. -1.
         11    1    4    4    0    0 -0.43646855170E+02 -0.92224367290E+02  0.19358082487E+03  0.21882394212E+03  0.00000000000E+00 0.  1.
</event>
<event>
 8    1  0.6834011E-009  0.1290321E+03  0.7561462E-02  0.1228899E+00
          2   -1    0    0  501    0  0.00000000000E+00  0.00000000000E+00  0.71662883359E+03  0.71662883359E+03  0.00000000000E+00 0. -1.
         -2   -1    0    0    0  501 -0.00000000000E+00 -0.00000000000E+00 -0.33880616425E+02  0.33880616425E+02  0.00000000000E+00 0.  1.
         25    2    1    2    0    0 -0.59396847811E+02 -0.51196028050E+02  0.55803955949E+03  0.57723810672E+03  0.12508662230E+03 0.  0.
         23    2    1    2    0    0  0.59396847811E+02  0.51196028050E+02  0.12470865768E+03  0.17327134330E+03  0.91223299051E+02 0.  0.
          5    1    3    3  502    0 -0.91401941354E+02 -0.54515228007E+02  0.49510738921E+03  0.50643363259E+03  0.41800000000E+01 0.  1.
         -5    1    3    3    0  502  0.32005093543E+02  0.33191999563E+01  0.62932170279E+02  0.70804474132E+02  0.41800000000E+01 0.  1.
        -11    1    4    4    0    0  0.82333612967E+02  0.49596644877E+02  0.10951312039E+03  0.14571127116E+03  0.00000000000E+00 0. -1.
         11    1    4    4    0    0 -0.22936765156E+02  0.15993831733E+01  0.15195537289E+02  0.27560072131E+02  0.00000000000E+00 0.  1.
</event>
<event>
 8    1  0.6834011E-009  0.1122040E+03  0.7561462E-02  0.1256542E+00
          4   -1    0    0  501    0  0.00000000000E+00  0.00000000000E+00  0.26534018146E+02  0.26534018146E+02  0.00000000000E+00 0. -1.
         -4   -1    0    0    0  501 -0.00000000000E+00 -0.00000000000E+00 -0.52941708906E+03  0.52941708906E+03  0.00000000000E+00 0.  1.
         25    2    1    2    0    0 -0.44120907282E+02 -0.40432270908E+01 -0.24499577181E+03  0.27862686433E+03  0.12508796575E+03 0.  0.
         23    2    1    2    0    0  0.44120907282E+02  0.40432270908E+01 -0.25788729910E+03  0.27732424287E+03  0.91868789612E+02 0.  0.
          5    1    3    3  502    0 -0.87535500181E+02 -0.11712690149E+02 -0.16225880396E+03  0.18478377300E+03  0.41800000000E+01 0. -1.
         -5    1    3    3    0  502  0.43414592899E+02  0.76694630582E+01 -0.82736967853E+02  0.93843091327E+02  0.41800000000E+01 0. -1.
        -11    1    4    4    0    0  0.18390843665E+02 -0.38114547375E+02 -0.18144365363E+03  0.18631355640E+03  0.00000000000E+00 0.  1.
         11    1    4    4    0    0  0.25730063617E+02  0.42157774465E+02 -0.76443645464E+02  0.91010686480E+02  0.00000000000E+00 0. -1.
</event>
<event>
 8    1  0.6834011E-009  0.1087555E+03  0.7561462E-02  0.1262892E+00
          2   -1    0    0  501    0  0.00000000000E+00  0.00000000000E+00  0.13869045232E+03  0.13869045232E+03  0.00000000000E+00 0. -1.
         -2   -1    0    0    0  501 -0.00000000000E+00 -0.00000000000E+00 -0.19393184118E+03  0.19393184118E+03  0.00000000000E+00 0.  1.
         25    2    1    2    0    0 -0.15943396283E+01 -0.38380787347E+02 -0.14727375772E+03  0.19701119302E+03  0.12509286033E+03 0.  0.
         23    2    1    2    0    0  0.15943396283E+01  0.38380787347E+02  0.92032368857E+02  0.13561110048E+03  0.91895521658E+02 0.  0.
          5    1    3    3  502    0  0.51790243332E+02 -0.52050051074E+02 -0.66574602183E+02  0.99202253891E+02  0.41800000000E+01 0.  1.
         -5    1    3    3    0  502 -0.53384582961E+02  0.13669263727E+02 -0.80699155534E+02  0.97808939125E+02  0.41800000000E+01 0.  1.
        -11    1    4    4    0    0  0.33265293808E+02  0.45378944800E+02  0.25874140455E+02  0.61929795314E+02  0.00000000000E+00 0.  1.
         11    1    4    4    0    0 -0.31670954179E+02 -0.69981574535E+01  0.66158228401E+02  0.73681305170E+02  0.00000000000E+00 0. -1.
</event>
<event>
 8    1  0.6834011E-009  0.1201841E+03  0.7561462E-02  0.1242794E+00
         -1   -1    0    0    0  501 -0.00000000000E+00  0.00000000000E+00  0.51884009974E+03  0.51884009974E+03  0.00000000000E+00 0.  1.
          1   -1    0    0  501    0  0.00000000000E+00 -0.00000000000E+00 -0.31081833654E+02  0.31081833654E+02  0.00000000000E+00 0. -1.
         25    2    1    2    0    0  0.62275910516E+01 -0.57370603726E+02  0.34790756946E+03  0.37418884017E+03  0.12508973640E+03 0.  0.
         23    2    1    2    0    0 -0.62275910516E+01  0.57370603726E+02  0.13985069662E+03  0.17573309322E+03  0.89407682259E+02 0.  0.
          5    1    3    3  502    0  0.40670630397E+02  0.25065511261E+02  0.13464357683E+03  0.14292916152E+03  0.41800000000E+01 0.  1.
         -5    1    3    3    0  502 -0.34443039346E+02 -0.82436114987E+02  0.21326399263E+03  0.23125967865E+03  0.41800000000E+01 0.  1.
        -11    1    4    4    0    0  0.33348476476E+02  0.89988923523E-01  0.67700899175E+02  0.75468806340E+02  0.00000000000E+00 0.  1.
         11    1    4    4    0    0 -0.39576067528E+02  0.57280614802E+02  0.72149797446E+02  0.10026428689E+03  0.00000000000E+00 0. -1.
</event>
<event>
 8    1  0.6834011E-009  0.2193810E+03  0.7561462E-02  0.1134345E+00
          2   -1    0    0  501    0  0.00000000000E+00  0.00000000000E+00  0.32102156494E+03  0.32102156494E+03  0.00000000000E+00 0.  1.
         -2   -1    0    0    0  501 -0.00000000000E+00 -0.00000000000E+00 -0.19585683814E+03  0.19585683814E+03  0.00000000000E+00 0. -1.
         25    2    1    2    0    0 -0.19250987946E+03 -0.86966213847E+02  0.14618607073E+03  0.28572902242E+03  0.12509009128E+03 0.  0.
         23    2    1    2    0    0  0.19250987946E+03  0.86966213847E+02 -0.21021343937E+02  0.23114938066E+03  0.91460172975E+02 0.  0.
          5    1    3    3  502    0 -0.19116906818E+03 -0.61734536128E+02  0.82727298284E+02  0.21729713266E+03  0.41800000000E+01 0. -1.
         -5    1    3    3    0  502 -0.13408112773E+01 -0.25231677720E+02  0.63458772450E+02  0.68431889761E+02  0.41800000000E+01 0. -1.
        -11    1    4    4    0    0  0.46269770995E+02  0.11609075298E+02  0.32985435219E+02  0.57997424717E+02  0.00000000000E+00 0.  1.
         11    1    4    4    0    0  0.14624010846E+03  0.75357138549E+02 -0.54006779156E+02  0.17315195595E+03  0.00000000000E+00 0. -1.
</event>
<event>
 8    1  0.6834011E-009  0.2395437E+03  0.7561462E-02  0.1120097E+00
         -1   -1    0    0    0  501 -0.00000000000E+00  0.00000000000E+00  0.43914648183E+02  0.43914648183E+02  0.00000000000E+00 0.  1.
          1   -1    0    0  501    0  0.00000000000E+00 -0.00000000000E+00 -0.13688546499E+04  0.13688546499E+04  0.00000000000E+00 0. -1.
         25    2    1    2    0    0  0.55413083100E+02  0.21279118565E+03 -0.66985387387E+03  0.71603258014E+03  0.12509094694E+03 0.  0.
         23    2    1    2    0    0 -0.55413083100E+02 -0.21279118565E+03 -0.65508612788E+03  0.69673671798E+03  0.89182513831E+02 0.  0.
          5    1    3    3  502    0  0.35398618676E+02 -0.32616184114E+01 -0.10424660751E+03  0.11022036081E+03  0.41800000000E+01 0.  1.
         -5    1    3    3    0  502  0.20014464424E+02  0.21605280406E+03 -0.56560726636E+03  0.60581221933E+03  0.41800000000E+01 0.  1.
        -11    1    4    4    0    0 -0.21156506177E+02 -0.17070098712E+03 -0.57358596220E+03  0.59882157676E+03  0.00000000000E+00 0.  1.
         11    1    4    4    0    0 -0.34256576923E+02 -0.42090198532E+02 -0.81500165675E+02  0.97915141220E+02  0.00000000000E+00 0. -1.
</event>
<event>
 8    1  0.6834011E-009  0.2088934E+03  0.7561462E-02  0.1142445E+00
         -2   -1    0    0    0  501 -0.00000000000E+00  0.00000000000E+00  0.24718336947E+02  0.24718336947E+02  0.00000000000E+00 0.  1.
          2   -1    0    0  501    0  0.00000000000E+00 -0.00000000000E+00 -0.20123239127E+04  0.20123239127E+04  0.00000000000E+00 0. -1.
         25    2    1    2    0    0 -0.39447848093E+02 -0.18916783364E+03 -0.11199124173E+04  0.11433248810E+04  0.12508940504E+03 0.  0.
         23    2    1    2    0    0  0.39447848093E+02  0.18916783364E+03 -0.86769315852E+03  0.89371736864E+03  0.92188479008E+02 0.  0.
          5    1    3    3  502    0  0.17114500517E+02 -0.67113728447E+02 -0.16531783983E+03  0.17928920559E+03  0.41800000000E+01 0.  1.
         -5    1    3    3    0  502 -0.56562348610E+02 -0.12205410519E+03 -0.95459457743E+03  0.96403567545E+03  0.41800000000E+01 0.  1.
        -11    1    4    4    0    0 -0.29551205843E+02  0.72120097011E+02 -0.29422563337E+03  0.30437362812E+03  0.00000000000E+00 0.  1.
         11    1    4    4    0    0  0.68999053936E+02  0.11704773663E+03 -0.57346752514E+03  0.58934374052E+03  0.00000000000E+00 0. -1.
</event>
<event>
 8    1  0.6834011E-009  0.1383175E+03  0.7561462E-02  0.1215611E+00
         -1   -1    0    0    0  501 -0.00000000000E+00  0.00000000000E+00  0.70023159737E+02  0.70023159737E+02  0.00000000000E+00 0.  1.
          1   -1    0    0  501    0  0.00000000000E+00 -0.00000000000E+00 -0.41142821850E+03  0.41142821850E+03  0.00000000000E+00 0. -1.
         25    2    1    2    0    0 -0.43743764075E+02 -0.12177188969E+03 -0.20222116669E+03  0.27070749107E+03  0.12508891019E+03 0.  0.
         23    2    1    2    0    0  0.43743764075E+02  0.12177188969E+03 -0.13918389208E+03  0.21074388717E+03  0.91098409156E+02 0.  0.
          5    1    3    3  502    0 -0.38404925868E+02 -0.93378664707E+02 -0.44691242293E+02  0.11049566911E+03  0.41800000000E+01 0. -1.
         -5    1    3    3    0  502 -0.53388382076E+01 -0.28393224983E+02 -0.15752992439E+03  0.16021182197E+03  0.41800000000E+01 0. -1.
        -11    1    4    4    0    0  0.78298536613E+01  0.10743385819E+03 -0.13368769769E+03  0.17168500519E+03  0.00000000000E+00 0.  1.
         11    1    4    4    0    0  0.35913910414E+02  0.14338031499E+02 -0.54961943880E+01  0.39058881976E+02  0.00000000000E+00 0. -1.
</event>
<event>
 8    1  0.6834011E-009  0.1091089E+03  0.7561462E-02  0.1262229E+00
          1   -1    0    0  501    0  0.00000000000E+00  0.00000000000E+00  0.37781356906E+03  0.37781356906E+03  0.00000000000E+00 0. -1.
         -1   -1    0    0    0  501 -0.00000000000E+00 -0.00000000000E+00 -0.33447321545E+02  0.33447321545E+02  0.00000000000E+00 0.  1.
         25    2    1    2    0    0  0.20170698465E+02 -0.22950328229E+02  0.24113197032E+03  0.27335986874E+03  0.12508963220E+03 0.  0.
         23    2    1    2    0    0 -0.20170698465E+02  0.22950328229E+02  0.10323427719E+03  0.13790102186E+03  0.86173088610E+02 0.  0.
          5    1    3    3  502    0 -0.52882979884E+02 -0.10441226184E+02  0.90266115036E+02  0.10521916503E+03  0.41800000000E+01 0. -1.
         -5    1    3    3    0  502  0.73053678349E+02 -0.12509102045E+02  0.15086585528E+03  0.16814070371E+03  0.41800000000E+01 0. -1.
        -11    1    4    4    0    0 -0.52304633294E+02  0.36476280340E+01  0.72235766440E+02  0.89258533528E+02  0.00000000000E+00 0. -1.
         11    1    4    4    0    0  0.32133934830E+02  0.19302700195E+02  0.30998510753E+02  0.48642488334E+02  0.00000000000E+00 0.  1.
</event>
<event>
 8    1  0.6834011E-009  0.1106401E+03  0.7561462E-02  0.1259389E+00
          2   -1    0    0  501    0  0.00000000000E+00  0.00000000000E+00  0.11708138073E+04  0.11708138073E+04  0.00000000000E+00 0. -1.
         -2   -1    0    0    0  501 -0.00000000000E+00 -0.00000000000E+00 -0.17366606224E+02  0.17366606224E+02  0.00000000000E+00 0.  1.
         25    2    1    2    0    0 -0.53847243907E+02 -0.72969752635E+00  0.93772694799E+03  0.94756525952E+03  0.12509210173E+03 0.  0.
         23    2    1    2    0    0  0.53847243907E+02  0.72969752635E+00  0.21572025304E+03  0.24061515396E+03  0.91980251202E+02 0.  0.
          5    1    3    3  502    0  0.30252929917E+02  0.52681839590E+01  0.54439482855E+03  0.54527625593E+03  0.41800000000E+01 0. -1.
         -5    1    3    3    0  502 -0.84100173824E+02 -0.59978814853E+01  0.39333211945E+03  0.40228900359E+03  0.41800000000E+01 0. -1.
        -11    1    4    4    0    0 -0.14444527124E+01 -0.38214220965E+02  0.91681740262E+02  0.99337579118E+02  0.00000000000E+00 0.  1.
         11    1    4    4    0    0  0.55291696619E+02  0.38943918491E+02  0.12403851277E+03  0.14127757484E+03  0.00000000000E+00 0. -1.
</event>
<event>
 8    1  0.6834011E-009  0.2000116E+03  0.7561462E-02  0.1149729E+00
          2   -1    0    0  501    0  0.00000000000E+00  0.00000000000E+00  0.15038633144E+04  0.15038633144E+04  0.00000000000E+00 0. -1.
         -2   -1    0    0    0  501 -0.00000000000E+00 -0.00000000000E+00 -0.31588793151E+02  0.31588793151E+02  0.00000000000E+00 0.  1.
         25    2    1    2    0    0 -0.18690146555E+03  0.18253412458E+02  0.75533376039E+03  0.78831598941E+03  0.12509062588E+03 0.  0.
         23    2    1    2    0    0  0.18690146555E+03 -0.18253412458E+02  0.71694076086E+03  0.74713611815E+03  0.94567328195E+02 0.  0.
          5    1    3    3  502    0 -0.39688758683E+02 -0.70967060428E+01  0.41047182747E+03  0.41246836769E+03  0.41800000000E+01 0.  1.
         -5    1    3    3    0  502 -0.14721270686E+03  0.25350118501E+02  0.34486193292E+03  0.37584762171E+03  0.41800000000E+01 0.  1.
        -11    1    4    4    0    0  0.86165560410E+02  0.38558279627E+02  0.33875155656E+03  0.35165872917E+03  0.00000000000E+00 0. -1.
         11    1    4    4    0    0  0.10073590514E+03 -0.56811692085E+02  0.37818920430E+03  0.39547738897E+03  0.00000000000E+00 0.  1.
</event>
<event>
 8    1  0.6834011E-009  0.1453774E+03  0.7561462E-02  0.1206271E+00
         -1   -1    0    0    0  501 -0.00000000000E+00  0.00000000000E+00  0.13695036130E+03  0.13695036130E+03  0.00000000000E+00 0.  1.
          1   -1    0    0  501    0  0.00000000000E+00 -0.00000000000E+00 -0.22349039322E+03  0.22349039322E+03  0.00000000000E+00 0. -1.
         25    2    1    2    0    0 -0.97176425810E+02 -0.50295282411E+02  0.39405597072E+02  0.17080114004E+03  0.12508938881E+03 0.  0.
         23    2    1    2    0    0  0.97176425810E+02  0.50295282411E+02 -0.12594562900E+03  0.18963961447E+03  0.90155469873E+02 0.  0.
          5    1    3    3  502    0  0.12811625865E+01 -0.53902060402E+02 -0.17632880309E+02  0.56881142404E+02  0.41800000000E+01 0.  1.
         -5    1    3    3    0  502 -0.98457588396E+02  0.36067779907E+01  0.57038477381E+02  0.11391999764E+03  0.41800000000E+01 0.  1.
        -11    1    4    4    0    0  0.64806329742E+00  0.41092215826E+02 -0.58624694245E+02  0.71595006550E+02  0.00000000000E+00 0.  1.
         11    1    4    4    0    0  0.96528362512E+02  0.92030665846E+01 -0.67320934754E+02  0.11804460792E+03  0.00000000000E+00 0. -1.
</event>
<event>
 8    1  0.6834011E-009  0.2523268E+03  0.7561462E-02  0.1111843E+00
          2   -1    0    0  501    0  0.00000000000E+00  0.00000000000E+00  0.17735146724E+03  0.17735146724E+03  0.00000000000E+00 0. -1.
         -2   -1    0    0    0  501 -0.00000000000E+00 -0.00000000000E+00 -0.46734739262E+03  0.46734739262E+03  0.00000000000E+00 0.  1.
         25    2    1    2    0    0 -0.16660372366E+03  0.16056305382E+03 -0.52871012464E+00  0.26303009838E+03  0.12508900083E+03 0.  0.
         23    2    1    2    0    0  0.16660372366E+03 -0.16056305382E+03 -0.28946721526E+03  0.38166876148E+03  0.91337176385E+02 0.  0.
          5    1    3    3  502    0 -0.17273894497E+03  0.11002527754E+03  0.24215778004E+02  0.20627210454E+03  0.41800000000E+01 0. -1.
         -5    1    3    3    0  502  0.61352213072E+01  0.50537776275E+02 -0.24744488128E+02  0.56757993834E+02  0.41800000000E+01 0. -1.
        -11    1    4    4    0    0  0.73418351215E+02 -0.13237593885E+03 -0.17332602100E+03  0.23012073579E+03  0.00000000000E+00 0.  1.
         11    1    4    4    0    0  0.93185372449E+02 -0.28187114967E+02 -0.11614119426E+03  0.15154802570E+03  0.00000000000E+00 0. -1.
</event>
<event>
 8    1  0.6834011E-009  0.1428582E+03  0.7561462E-02  0.1209534E+00
         -2   -1    0    0    0  501 -0.00000000000E+00  0.00000000000E+00  0.45300195453E+02  0.45300195453E+02  0.00000000000E+00 0. -1.
          2   -1    0    0  501    0  0.00000000000E+00 -0.00000000000E+00 -0.69643877993E+03  0.69643877993E+03  0.00000000000E+00 0.  1.
         25    2    1    2    0    0 -0.80310884582E+02  0.92972399030E+02 -0.48680695207E+03  0.51741810536E+03  0.12508709769E+03 0.  0.
         23    2    1    2    0    0  0.80310884582E+02 -0.92972399030E+02 -0.16433163241E+03  0.22432087002E+03  0.90671175977E+02 0.  0.
          5    1    3    3  502    0 -0.69708674132E+02  0.22825646923E+02 -0.39258342660E+03  0.39939895925E+03  0.41800000000E+01 0.  1.
         -5    1    3    3    0  502 -0.10602210450E+02  0.70146752107E+02 -0.94223525464E+02  0.11801914611E+03  0.41800000000E+01 0.  1.
        -11    1    4    4    0    0  0.88758596522E+02 -0.59982752836E+02 -0.15603704975E+03  0.18927118109E+03  0.00000000000E+00 0.  1.
         11    1    4    4    0    0 -0.84477119395E+01 -0.32989646194E+02 -0.82945826565E+01  0.35049688935E+02  0.00000000000E+00 0. -1.
</event>
<event>
 8    1  0.6834011E-009  0.1139439E+03  0.7561462E-02  0.1253436E+00
          2   -1    0    0  501    0  0.00000000000E+00  0.00000000000E+00  0.16861285933E+03  0.16861285933E+03  0.00000000000E+00 0. -1.
         -2   -1    0    0    0  501 -0.00000000000E+00 -0.00000000000E+00 -0.16414816539E+03  0.16414816539E+03  0.00000000000E+00 0.  1.
         25    2    1    2    0    0 -0.54475472378E+02 -0.86007353062E+02  0.76521658885E+02  0.17852571336E+03  0.12510405342E+03 0.  0.
         23    2    1    2    0    0  0.54475472378E+02  0.86007353062E+02 -0.72056964944E+02  0.15423531136E+03  0.90727521749E+02 0.  0.
          5    1    3    3  502    0 -0.29161988848E+02 -0.49163817093E+02 -0.28719857130E+02  0.64107761607E+02  0.41800000000E+01 0.  1.
         -5    1    3    3    0  502 -0.25313483530E+02 -0.36843535969E+02  0.10524151601E+03  0.11441795176E+03  0.41800000000E+01 0.  1.
        -11    1    4    4    0    0 -0.18434793905E+02  0.13490468329E+02 -0.40795142275E+02  0.46755512993E+02  0.00000000000E+00 0.  1.
         11    1    4    4    0    0  0.72910266283E+02  0.72516884734E+02 -0.31261822669E+02  0.10747979837E+03  0.00000000000E+00 0. -1.
</event>
<event>
 8    1  0.6834011E-009  0.1564554E+03  0.7561462E-02  0.1192758E+00
         -2   -1    0    0    0  501 -0.00000000000E+00  0.00000000000E+00  0.19766531080E+03  0.19766531080E+03  0.00000000000E+00 0.  1.
          2   -1    0    0  501    0  0.00000000000E+00 -0.00000000000E+00 -0.32158348454E+03  0.32158348454E+03  0.00000000000E+00 0. -1.
         25    2    1    2    0    0 -0.16985194212E+02  0.11144373304E+03  0.13947568400E+03  0.21865212555E+03  0.12508830130E+03 0.  0.
         23    2    1    2    0    0  0.16985194212E+02 -0.11144373304E+03 -0.26339385773E+03  0.30059666979E+03  0.90960602154E+02 0.  0.
          5    1    3    3  502    0 -0.57089058647E+02  0.85615472297E+01  0.49098579442E+02  0.75898640379E+02  0.41800000000E+01 0. -1.
         -5    1    3    3    0  502  0.40103864435E+02  0.10288218581E+03  0.90377104554E+02  0.14275348517E+03  0.41800000000E+01 0. -1.
        -11    1    4    4    0    0  0.16284460616E+02 -0.12746162750E+03 -0.22741990440E+03  0.26121152934E+03  0.00000000000E+00 0.  1.
         11    1    4    4    0    0  0.70073359519E+00  0.16017894458E+02 -0.35973953329E+02  0.39385140454E+02  0.00000000000E+00 0. -1.
</event>
<event>
 8    1  0.6834011E-009  0.1708572E+03  0.7561462E-02  0.1176957E+00
          1   -1    0    0  501    0  0.00000000000E+00  0.00000000000E+00  0.63393277868E+03  0.63393277868E+03  0.00000000000E+00 0. -1.
         -1   -1    0    0    0  501 -0.00000000000E+00 -0.00000000000E+00 -0.62915549902E+02  0.62915549902E+02  0.00000000000E+00 0.  1.
         25    2    1    2    0    0 -0.13834344818E+03  0.27629240259E+02  0.13736206024E+03  0.23327530299E+03  0.12508695702E+03 0.  0.
         23    2    1    2    0    0  0.13834344818E+03 -0.27629240259E+02  0.43365516853E+03  0.46357302560E+03  0.83311825642E+02 0.  0.
          5    1    3    3  502    0  0.17722768965E+02  0.15035440795E+02 -0.18971029451E+01  0.23690344431E+02  0.41800000000E+01 0. -1.
         -5    1    3    3    0  502 -0.15606621715E+03  0.12593799464E+02  0.13925916319E+03  0.20958495855E+03  0.41800000000E+01 0. -1.
        -11    1    4    4    0    0  0.86470800830E+02 -0.55337342663E+02  0.31185696871E+03  0.32832025497E+03  0.00000000000E+00 0. -1.
         11    1    4    4    0    0  0.51872647354E+02  0.27708102404E+02  0.12179819982E+03  0.13525277062E+03  0.00000000000E+00 0.  1.
</event>
<event>
 8    1  0.6834011E-009  0.1541182E+03  0.7561462E-02  0.1195502E+00
          2   -1    0    0  501    0  0.00000000000E+00  0.00000000000E+00  0.15072593266E+04  0.15072593266E+04  0.00000000000E+00 0. -1.
         -2   -1    0    0    0  501 -0.00000000000E+00 -0.00000000000E+00 -0.19549362844E+02  0.19549362844E+02  0.00000000000E+00 0.  1.
         25    2    1    2    0    0  0.23451764318E+02 -0.11885572341E+03  0.10363238724E+04  0.10508529362E+04  0.12509219327E+03 0.  0.
         23    2    1    2    0    0 -0.23451764318E+02  0.11885572341E+03  0.45138609135E+03  0.47595575322E+03  0.90043363562E+02 0.  0.
          5    1    3    3  502    0  0.68090310124E+02 -0.89188195160E+02  0.53511325617E+03  0.54676731232E+03  0.41800000000E+01 0. -1.
         -5    1    3    3    0  502 -0.44638545806E+02 -0.29667528249E+02  0.50121061623E+03  0.50408562390E+03  0.41800000000E+01 0. -1.
        -11    1    4    4    0    0 -0.31539009121E+02  0.12691282883E+03  0.44269986467E+03  0.46161103258E+03  0.00000000000E+00 0.  1.
         11    1    4    4    0    0  0.80872448030E+01 -0.80571054250E+01  0.86862266798E+01  0.14344720641E+02  0.00000000000E+00 0. -1.
</event>
<event>
 8    1  0.6834011E-009  0.9889493E+02  0.7561462E-02  0.1282637E+00
          2   -1    0    0  501    0  0.00000000000E+00  0.00000000000E+00  0.45677694838E+03  0.45677694838E+03  0.00000000000E+00 0. -1.
         -2   -1    0    0    0  501 -0.00000000000E+00 -0.00000000000E+00 -0.43014251206E+02  0.43014251206E+02  0.00000000000E+00 0.  1.
         25    2    1    2    0    0 -0.68528184120E+02 -0.35573852342E+02  0.30773882007E+03  0.34104510811E+03  0.12508786273E+03 0.  0.
         23    2    1    2    0    0  0.68528184120E+02  0.35573852342E+02  0.10602387711E+03  0.15874609148E+03  0.89429570350E+02 0.  0.
          5    1    3    3  502    0 -0.93383766006E+01  0.26384200813E+01 -0.10605925082E+02  0.14970791058E+02  0.41800000000E+01 0.  1.
         -5    1    3    3    0  502 -0.59189807519E+02 -0.38212272424E+02  0.31834474515E+03  0.32607431705E+03  0.41800000000E+01 0.  1.
        -11    1    4    4    0    0  0.61493176621E+02 -0.16844731166E+02  0.70390423509E+02  0.94973509258E+02  0.00000000000E+00 0.  1.
         11    1    4    4    0    0  0.70350074986E+01  0.52418583509E+02  0.35633453604E+02  0.63772582223E+02  0.00000000000E+00 0. -1.
</event>
<event>
 8    1  0.6834011E-009  0.2970186E+03  0.7561462E-02  0.1086741E+00
         -2   -1    0    0    0  501 -0.00000000000E+00  0.00000000000E+00  0.13104406738E+03  0.13104406738E+03  0.00000000000E+00 0.  1.
          2   -1    0    0  501    0  0.00000000000E+00 -0.00000000000E+00 -0.70164725804E+03  0.70164725804E+03  0.00000000000E+00 0. -1.
         25    2    1    2    0    0  0.22842452236E+03 -0.16551308659E+03 -0.26321101998E+03  0.40558906355E+03  0.12510037244E+03 0.  0.
         23    2    1    2    0    0 -0.22842452236E+03  0.16551308659E+03 -0.30739217069E+03  0.42710226187E+03  0.91400499150E+02 0.  0.
          5    1    3    3  502    0  0.12694416236E+03 -0.16281262336E+02 -0.11110408567E+03  0.16953315343E+03  0.41800000000E+01 0.  1.
         -5    1    3    3    0  502  0.10148036000E+03 -0.14923182426E+03 -0.15210693431E+03  0.23605591011E+03  0.41800000000E+01 0.  1.
        -11    1    4    4    0    0 -0.89048111247E+02  0.91425770603E+02 -0.81151839400E+02  0.15124106150E+03  0.00000000000E+00 0.  1.
         11    1    4    4    0    0 -0.13937641111E+03  0.74087315989E+02 -0.22624033129E+03  0.27586120037E+03  0.00000000000E+00 0. -1.
</event>
<event>
 8    1  0.6834011E-009  0.1131495E+03  0.7561462E-02  0.1254846E+00
          1   -1    0    0  501    0  0.00000000000E+00  0.00000000000E+00  0.30437502966E+03  0.30437502966E+03  0.00000000000E+00 0. -1.
         -1   -1    0    0    0  501 -0.00000000000E+00 -0.00000000000E+00 -0.47093039166E+02  0.47093039166E+02  0.00000000000E+00 0.  1.
         25    2    1    2    0    0 -0.32905368639E+02 -0.32949383631E+02  0.18643362543E+03  0.22928978187E+03  0.12509149537E+03 0.  0.
         23    2    1    2    0    0  0.32905368639E+02  0.32949383631E+02  0.70848365061E+02  0.12217828695E+03  0.87975097634E+02 0.  0.
          5    1    3    3  502    0  0.42013759071E+02 -0.39141351922E+02  0.70015212297E+02  0.90646586999E+02  0.41800000000E+01 0. -1.
         -5    1    3    3    0  502 -0.74919127710E+02  0.61919682917E+01  0.11641841313E+03  0.13864319487E+03  0.41800000000E+01 0. -1.
        -11    1    4    4    0    0  0.60010785440E+02  0.18973140273E+02  0.66174872665E+02  0.91325725801E+02  0.00000000000E+00 0. -1.
         11    1    4    4    0    0 -0.27105416801E+02  0.13976243358E+02  0.46734923959E+01  0.30852561150E+02  0.00000000000E+00 0.  1.
</event>
<event>
 8    1  0.6834011E-009  0.2575978E+03  0.7561462E-02  0.1108595E+00
         -2   -1    0    0    0  501 -0.00000000000E+00  0.00000000000E+00  0.65544280847E+03  0.65544280847E+03  0.00000000000E+00 0. -1.
          2   -1    0    0  501    0  0.00000000000E+00 -0.00000000000E+00 -0.11435033381E+03  0.11435033381E+03  0.00000000000E+00 0.  1.
         25    2    1    2    0    0 -0.18424956031E+03  0.17141092721E+03  0.27498767931E+03  0.39318277609E+03  0.12507943557E+03 0.  0.
         23    2    1    2    0    0  0.18424956031E+03 -0.17141092721E+03  0.26610479536E+03  0.37661036618E+03  0.87715445394E+02 0.  0.
          5    1    3    3  502    0 -0.14211943407E+03  0.83870052587E+02  0.23691730560E+03  0.28875491572E+03  0.41800000000E+01 0. -1.
         -5    1    3    3    0  502 -0.42130126247E+02  0.87540874627E+02  0.38070373711E+02  0.10442786038E+03  0.41800000000E+01 0. -1.
        -11    1    4    4    0    0  0.19839035888E+02 -0.90242627286E+01  0.70699547545E+02  0.73982772899E+02  0.00000000000E+00 0.  1.
         11    1    4    4    0    0  0.16441052443E+03 -0.16238666449E+03  0.19540524781E+03  0.30262759328E+03  0.00000000000E+00 0. -1.
</event>
<event>
 8    1  0.6834011E-009  0.1321632E+03  0.7561462E-02  0.1224281E+00
          2   -1    0    0  501    0  0.00000000000E+00  0.00000000000E+00  0.15873659474E+04  0.15873659474E+04  0.00000000000E+00 0. -1.
         -2   -1    0    0    0  501 -0.00000000000E+00 -0.00000000000E+00 -0.25882952245E+02  0.25882952245E+02  0.00000000000E+00 0.  1.
         25    2    1    2    0    0 -0.94227912024E+02 -0.71372193607E+02  0.13043239362E+04  0.13156298295E+04  0.12509207989E+03 0.  0.
         23    2    1    2    0    0  0.94227912024E+02  0.71372193607E+02  0.25715905901E+03  0.29761907015E+03  0.92051289278E+02 0.  0.
          5    1    3    3  502    0 -0.39900099797E+02 -0.34543358211E+02  0.10936135637E+04  0.10948942235E+04  0.41800000000E+01 0. -1.
         -5    1    3    3    0  502 -0.54327812227E+02 -0.36828835396E+02  0.21071037244E+03  0.22073560599E+03  0.41800000000E+01 0. -1.
        -11    1    4    4    0    0 -0.17956795830E+01  0.46354340049E+02  0.11725340645E+03  0.12609643385E+03  0.00000000000E+00 0. -1.
         11    1    4    4    0    0  0.96023591607E+02  0.25017853559E+02  0.13990565257E+03  0.17152263630E+03  0.00000000000E+00 0.  1.
</event>
<event>
 8    1  0.6834011E-009  0.5692691E+02  0.7561462E-02  0.1411200E+00
          1   -1    0    0  501    0  0.00000000000E+00  0.00000000000E+00  0.54156996792E+03  0.54156996792E+03  0.00000000000E+00 0. -1.
         -1   -1    0    0    0  501 -0.00000000000E+00 -0.00000000000E+00 -0.22473595334E+02  0.22473595334E+02  0.00000000000E+00 0.  1.
         25    2    1    2    0    0 -0.64191901626E+01  0.71116854733E+01  0.35935475466E+03  0.38062434196E+03  0.12508903999E+03 0.  0.
         23    2    1    2    0    0  0.64191901626E+01 -0.71116854733E+01  0.15974161793E+03  0.18341922130E+03  0.89629482695E+02 0.  0.
          5    1    3    3  502    0 -0.92706768305E+01  0.22446509081E+02  0.40744935321E+01  0.24977292014E+02  0.41800000000E+01 0.  1.
         -5    1    3    3    0  502  0.28514866679E+01 -0.15334823608E+02  0.35528026112E+03  0.35564704995E+03  0.41800000000E+01 0.  1.
        -11    1    4    4    0    0  0.13066606696E+02 -0.38667018795E+02  0.13949219888E+03  0.14534079985E+03  0.00000000000E+00 0. -1.
         11    1    4    4    0    0 -0.66474165332E+01  0.31555333321E+02  0.20249419050E+02  0.38078421441E+02  0.00000000000E+00 0.  1.
</event>
<event>
 8    1  0.6834011E-009  0.2027115E+03  0.7561462E-02  0.1147471E+00
          1   -1    0    0  501    0  0.00000000000E+00  0.00000000000E+00  0.13457008304E+03  0.13457008304E+03  0.00000000000E+00 0. -1.
         -1   -1    0    0    0  501 -0.00000000000E+00 -0.00000000000E+00 -0.39005909899E+03  0.39005909899E+03  0.00000000000E+00 0.  1.
         25    2    1    2    0    0 -0.11685629365E+03  0.14806853706E+03 -0.21131459024E+03  0.30964948884E+03  0.12509702177E+03 0.  0.
         23    2    1    2    0    0  0.11685629365E+03 -0.14806853706E+03 -0.44174425708E+02  0.21497969320E+03  0.93194439570E+02 0.  0.
          5    1    3    3  502    0 -0.91234283336E+02  0.76989917135E+02 -0.20025381491E+03  0.23317419365E+03  0.41800000000E+01 0. -1.
         -5    1    3    3    0  502 -0.25622010317E+02  0.71078619927E+02 -0.11060775327E+02  0.76475295188E+02  0.41800000000E+01 0. -1.
        -11    1    4    4    0    0  0.61303451025E+02 -0.14168925577E+03 -0.35225458828E+02  0.15835021711E+03  0.00000000000E+00 0. -1.
         11    1    4    4    0    0  0.55552842628E+02 -0.63792812896E+01 -0.89489668805E+01  0.56629476089E+02  0.00000000000E+00 0.  1.
</event>
<event>
 8    1  0.6834011E-009  0.1163697E+03  0.7561462E-02  0.1249209E+00
          1   -1    0    0  501    0  0.00000000000E+00  0.00000000000E+00  0.53871445104E+03  0.53871445104E+03  0.00000000000E+00 0. -1.
         -1   -1    0    0    0  501 -0.00000000000E+00 -0.00000000000E+00 -0.41417518819E+02  0.41417518819E+02  0.00000000000E+00 0.  1.
         25    2    1    2    0    0 -0.70207484755E+02 -0.12668503217E+01  0.42334251519E+03  0.44698583581E+03  0.12508699541E+03 0.  0.
         23    2    1    2    0    0  0.70207484755E+02  0.12668503217E+01  0.73954417029E+02  0.13314613405E+03  0.85603395894E+02 0.  0.
          5    1    3    3  502    0 -0.95824622320E+02  0.29187053250E+01  0.19707564221E+03  0.21919662004E+03  0.41800000000E+01 0.  1.
         -5    1    3    3    0  502  0.25617137564E+02 -0.41855556467E+01  0.22626687298E+03  0.22778921577E+03  0.41800000000E+01 0.  1.
        -11    1    4    4    0    0  0.28281838524E+02  0.42912350607E+02  0.30125193655E+02  0.59572304955E+02  0.00000000000E+00 0. -1.
         11    1    4    4    0    0  0.41925646231E+02 -0.41645500285E+02  0.43829223375E+02  0.73573829094E+02  0.00000000000E+00 0.  1.
</event>
<event>
 8    1  0.6834011E-009  0.8670855E+02  0.7561462E-02  0.1311024E+00
         -1   -1    0    0    0  501 -0.00000000000E+00  0.00000000000E+00  0.39821722258E+03  0.39821722258E+03  0.00000000000E+00 0.  1.
          1   -1    0    0  501    0  0.00000000000E+00 -0.00000000000E+00 -0.30422126144E+02  0.30422126144E+02  0.00000000000E+00 0. -1.
         25    2    1    2    0    0 -0.13667576145E+02 -0.12787035506E+02  0.20790812275E+03  0.24335882863E+03  0.12508965206E+03 0.  0.
         23    2    1    2    0    0  0.13667576145E+02  0.12787035506E+02  0.15988697369E+03  0.18528052010E+03  0.91731760354E+02 0.  0.
          5    1    3    3  502    0  0.18133780522E+02  0.46229389152E+02  0.13655392276E+03  0.14536311994E+03  0.41800000000E+01 0. -1.
         -5    1    3    3    0  502 -0.31801356666E+02 -0.59016424658E+02  0.71354199987E+02  0.97995708687E+02  0.41800000000E+01 0. -1.
        -11    1    4    4    0    0 -0.11893080060E+02  0.25298669470E+02  0.57520329049E+01  0.28540390902E+02  0.00000000000E+00 0. -1.
         11    1    4    4    0    0  0.25560656205E+02 -0.12511633964E+02  0.15413494078E+03  0.15674012919E+03  0.00000000000E+00 0.  1.
</event>
<event>
 8    1  0.6834011E-009  0.1004042E+03  0.7561462E-02  0.1279448E+00
          1   -1    0    0  501    0  0.00000000000E+00  0.00000000000E+00  0.50138105141E+03  0.50138105141E+03  0.00000000000E+00 0. -1.
         -1   -1    0    0    0  501 -0.00000000000E+00 -0.00000000000E+00 -0.32592724516E+02  0.32592724516E+02  0.00000000000E+00 0.  1.
         25    2    1    2    0    0  0.44662967326E+02  0.31571564182E+02  0.33053507351E+03  0.35761707738E+03  0.12507995402E+03 0.  0.
         23    2    1    2    0    0 -0.44662967326E+02 -0.31571564182E+02  0.13825325339E+03  0.17635669855E+03  0.94848187838E+02 0.  0.
          5    1    3    3  502    0 -0.36112241387E+02  0.39678217445E+01  0.37522464916E+02  0.52395089090E+02  0.41800000000E+01 0.  1.
         -5    1    3    3    0  502  0.80775208713E+02  0.27603742438E+02  0.29301260859E+03  0.30522198829E+03  0.41800000000E+01 0.  1.
        -11    1    4    4    0    0 -0.23656394711E+02 -0.47063152623E+02  0.21787931202E+02  0.57002449874E+02  0.00000000000E+00 0.  1.
         11    1    4    4    0    0 -0.21006572615E+02  0.15491588441E+02  0.11646532219E+03  0.11935424868E+03  0.00000000000E+00 0. -1.
</event>
<event>
 8    1  0.6834011E-009  0.1198100E+03  0.7561462E-02  0.1243411E+00
          1   -1    0    0  501    0  0.00000000000E+00  0.00000000000E+00  0.75670947170E+02  0.75670947170E+02  0.00000000000E+00 0. -1.
         -1   -1    0    0    0  501 -0.00000000000E+00 -0.00000000000E+00 -0.19755683697E+03  0.19755683697E+03  0.00000000000E+00 0.  1.
         25    2    1    2    0    0  0.50935824935E+02 -0.14951725638E+02 -0.45899119326E+02  0.14343392016E+03  0.12509415628E+03 0.  0.
         23    2    1    2    0    0 -0.50935824935E+02  0.14951725638E+02 -0.75986770478E+02  0.12979386398E+03  0.90853978882E+02 0.  0.
          5    1    3    3  502    0 -0.71003713962E+01  0.47981925566E+02 -0.65517560588E+01  0.49123093982E+02  0.41800000000E+01 0. -1.
         -5    1    3    3    0  502  0.58036196331E+02 -0.62933651203E+02 -0.39347363267E+02  0.94310826178E+02  0.41800000000E+01 0. -1.
        -11    1    4    4    0    0 -0.12124756153E+02 -0.37821272197E+02 -0.28892234755E+02  0.49114351991E+02  0.00000000000E+00 0. -1.
         11    1    4    4    0    0 -0.38811068782E+02  0.52772997834E+02 -0.47094535723E+02  0.80679511992E+02  0.00000000000E+00 0.  1.
</event>
<event>
 8    1  0.6834011E-009  0.1199628E+03  0.7561462E-02  0.1243158E+00
         -1   -1    0    0    0  501 -0.00000000000E+00  0.00000000000E+00  0.88765806982E+02  0.88765806982E+02  0.00000000000E+00 0.  1.
          1   -1    0    0  501    0  0.00000000000E+00 -0.00000000000E+00 -0.22065912941E+03  0.22065912941E+03  0.00000000000E+00 0. -1.
         25    2    1    2    0    0 -0.83712262597E+02  0.49667348001E+01 -0.43389860981E+02  0.15673180390E+03  0.12509902859E+03 0.  0.
         23    2    1    2    0    0  0.83712262597E+02 -0.49667348001E+01 -0.88503461442E+02  0.15269313249E+03  0.91923439110E+02 0.  0.
          5    1    3    3  502    0  0.17914138471E+02 -0.21340371007E+02  0.19521357785E+02  0.34276575115E+02  0.41800000000E+01 0. -1.
         -5    1    3    3    0  502 -0.10162640107E+03  0.26307105807E+02 -0.62911218766E+02  0.12245522878E+03  0.41800000000E+01 0. -1.
        -11    1    4    4    0    0  0.24084635444E+02  0.29292885306E+02  0.32128212527E+01  0.38058704844E+02  0.00000000000E+00 0.  1.
         11    1    4    4    0    0  0.59627627153E+02 -0.34259620106E+02 -0.91716282695E+02  0.11463442764E+03  0.00000000000E+00 0. -1.
</event>
<event>
 8    1  0.6834011E-009  0.1007057E+03  0.7561462E-02  0.1278819E+00
          1   -1    0    0  501    0  0.00000000000E+00  0.00000000000E+00  0.13353629633E+03  0.13353629633E+03  0.00000000000E+00 0. -1.
         -1   -1    0    0    0  501 -0.00000000000E+00 -0.00000000000E+00 -0.10059018307E+03  0.10059018307E+03  0.00000000000E+00 0.  1.
         25    2    1    2    0    0  0.25877103285E+02 -0.13382790520E+02  0.17490293864E+02  0.12962231292E+03  0.12508920845E+03 0.  0.
         23    2    1    2    0    0 -0.25877103285E+02  0.13382790520E+02  0.15455819394E+02  0.10450416649E+03  0.99164080711E+02 0.  0.
          5    1    3    3  502    0 -0.32950631456E+02  0.99886859980E+01 -0.33508388434E+02  0.48226574176E+02  0.41800000000E+01 0.  1.
         -5    1    3    3    0  502  0.58827734741E+02 -0.23371476518E+02  0.50998682299E+02  0.81395738743E+02  0.41800000000E+01 0.  1.
        -11    1    4    4    0    0 -0.38084062939E+02  0.51051532349E+02  0.77159078272E+01  0.64157540778E+02  0.00000000000E+00 0.  1.
         11    1    4    4    0    0  0.12206959654E+02 -0.37668741829E+02  0.77399115668E+01  0.40346625708E+02  0.00000000000E+00 0. -1.
</event>
<event>
 8    1  0.6834011E-009  0.1291753E+03  0.7561462E-02  0.1228685E+00
         -2   -1    0    0    0  501 -0.00000000000E+00  0.00000000000E+00  0.10419529262E+04  0.10419529262E+04  0.00000000000E+00 0.  1.
          2   -1    0    0  501    0  0.00000000000E+00 -0.00000000000E+00 -0.29163290266E+02  0.29163290266E+02  0.00000000000E+00 0. -1.
         25    2    1    2    0    0 -0.92377032395E+02 -0.88084943796E+02  0.67027792357E+03  0.69369610919E+03  0.12509725674E+03 0.  0.
         23    2    1    2    0    0  0.92377032395E+02  0.88084943796E+02  0.34251171237E+03  0.37742010728E+03  0.94016970977E+02 0.  0.
          5    1    3    3  502    0 -0.85811156517E+02 -0.80236467721E+02  0.67226486911E+03  0.68246536320E+03  0.41800000000E+01 0.  1.
         -5    1    3    3    0  502 -0.65658758782E+01 -0.78484760754E+01 -0.19869455421E+01  0.11230745983E+02  0.41800000000E+01 0.  1.
        -11    1    4    4    0    0  0.45654638970E+02  0.59399345626E+02  0.29658296910E+03  0.30589881641E+03  0.00000000000E+00 0.  1.
         11    1    4    4    0    0  0.46722393425E+02  0.28685598170E+02  0.45928743273E+02  0.71521290875E+02  0.00000000000E+00 0. -1.
</event>
<event>
 8    1  0.6834011E-009  0.1185536E+03  0.7561462E-02  0.1245502E+00
         -2   -1    0    0    0  501 -0.00000000000E+00  0.00000000000E+00  0.19904019987E+02  0.19904019987E+02  0.00000000000E+00 0.  1.
          2   -1    0    0  501    0  0.00000000000E+00 -0.00000000000E+00 -0.12058768914E+04  0.12058768914E+04  0.00000000000E+00 0. -1.
         25    2    1    2    0    0 -0.26905021024E+02  0.47346478893E+02 -0.10143331186E+04  0.10234671482E+04  0.12509100140E+03 0.  0.
         23    2    1    2    0    0  0.26905021024E+02 -0.47346478893E+02 -0.17163975282E+03  0.20231376324E+03  0.92223016813E+02 0.  0.
          5    1    3    3  502    0 -0.73665209269E+02  0.46643666184E+02 -0.56751627589E+03  0.57419020407E+03  0.41800000000E+01 0. -1.
         -5    1    3    3    0  502  0.46760188245E+02  0.70281270854E+00 -0.44681684274E+03  0.44927694410E+03  0.41800000000E+01 0. -1.
        -11    1    4    4    0    0  0.38088474503E+02  0.13945154030E+02 -0.41503822307E+02  0.58032460545E+02  0.00000000000E+00 0.  1.
         11    1    4    4    0    0 -0.11183453479E+02 -0.61291632922E+02 -0.13013593051E+03  0.14428130270E+03  0.00000000000E+00 0. -1.
</event>
<event>
 8    1  0.6834011E-009  0.1664395E+03  0.7561462E-02  0.1181613E+00
          2   -1    0    0  501    0  0.00000000000E+00  0.00000000000E+00  0.83057407281E+03  0.83057407281E+03  0.00000000000E+00 0. -1.
         -2   -1    0    0    0  501 -0.00000000000E+00 -0.00000000000E+00 -0.42987943381E+02  0.42987943381E+02  0.00000000000E+00 0.  1.
         25    2    1    2    0    0  0.12641114605E+03 -0.64953223914E+02  0.54249396315E+03  0.57458418784E+03  0.12509432332E+03 0.  0.
         23    2    1    2    0    0 -0.12641114605E+03  0.64953223914E+02  0.24509216628E+03  0.29897782834E+03  0.95492788870E+02 0.  0.
          5    1    3    3  502    0  0.14974734513E+03 -0.69341761555E+02  0.48061460196E+03  0.50817360743E+03  0.41800000000E+01 0. -1.
         -5    1    3    3    0  502 -0.23336199083E+02  0.43885376412E+01  0.61879361190E+02  0.66410580419E+02  0.41800000000E+01 0. -1.
        -11    1    4    4    0    0 -0.27853204126E+02  0.49019640541E+01  0.23243525835E+00  0.28282225122E+02  0.00000000000E+00 0.  1.
         11    1    4    4    0    0 -0.98557941925E+02  0.60051259860E+02  0.24485973102E+03  0.27069560322E+03  0.00000000000E+00 0. -1.
</event>
<event>
 8    1  0.6834011E-009  0.7436961E+02  0.7561462E-02  0.1345834E+00
          1   -1    0    0  501    0  0.00000000000E+00  0.00000000000E+00  0.82990079128E+02  0.82990079128E+02  0.00000000000E+00 0. -1.
         -1   -1    0    0    0  501 -0.00000000000E+00 -0.00000000000E+00 -0.23090991902E+03  0.23090991902E+03  0.00000000000E+00 0.  1.
         25    2    1    2    0    0  0.68127819302E+02  0.77059685089E+01 -0.14120412040E+03  0.20071313428E+03  0.12508547854E+03 0.  0.
         23    2    1    2    0    0 -0.68127819302E+02 -0.77059685089E+01 -0.67157194980E+01  0.11318686387E+03  0.89807480487E+02 0.  0.
          5    1    3    3  502    0  0.10449838157E+02  0.47068089633E+01  0.23307756996E+02  0.26307358369E+02  0.41800000000E+01 0.  1.
         -5    1    3    3    0  502  0.57677981145E+02  0.29991595456E+01 -0.16451187739E+03  0.17440577591E+03  0.41800000000E+01 0.  1.
        -11    1    4    4    0    0 -0.42942422116E+02  0.14224982701E+02 -0.44018536768E+02  0.63119199371E+02  0.00000000000E+00 0.  1.
         11    1    4    4    0    0 -0.25185397187E+02 -0.21930951210E+02  0.37302817270E+02  0.50067664502E+02  0.00000000000E+00 0. -1.
</event>
<event>
 8    1  0.6834011E-009  0.1624383E+03  0.7561462E-02  0.1185971E+00
          2   -1    0    0  501    0  0.00000000000E+00  0.00000000000E+00  0.46708533973E+03  0.46708533973E+03  0.00000000000E+00 0. -1.
         -2   -1    0    0    0  501 -0.00000000000E+00 -0.00000000000E+00 -0.73608364970E+02  0.73608364970E+02  0.00000000000E+00 0.  1.
         25    2    1    2    0    0  0.54692068510E+02 -0.13815085137E+03  0.17962491005E+03  0.26455616080E+03  0.12509186151E+03 0.  0.
         23    2    1    2    0    0 -0.54692068510E+02  0.13815085137E+03  0.21385206471E+03  0.27613754390E+03  0.91882302325E+02 0.  0.
          5    1    3    3  502    0  0.68568785226E+02 -0.14393944143E+03  0.11133944310E+03  0.19451011567E+03  0.41800000000E+01 0. -1.
         -5    1    3    3    0  502 -0.13876716716E+02  0.57885900683E+01  0.68285466949E+02  0.70046045129E+02  0.41800000000E+01 0. -1.
        -11    1    4    4    0    0 -0.48760444001E+02  0.10096471668E+03  0.81716171977E+02  0.13874072105E+03  0.00000000000E+00 0.  1.
         11    1    4    4    0    0 -0.59316245086E+01  0.37186134681E+02  0.13213589274E+03  0.13739682286E+03  0.00000000000E+00 0. -1.
</event>
<event>
 8    1  0.6834011E-009  0.1693198E+03  0.7561462E-02  0.1178559E+00
          1   -1    0    0  501    0  0.00000000000E+00  0.00000000000E+00  0.38384112263E+03  0.38384112263E+03  0.00000000000E+00 0. -1.
         -1   -1    0    0    0  501 -0.00000000000E+00 -0.00000000000E+00 -0.86556457999E+02  0.86556457999E+02  0.00000000000E+00 0.  1.
         25    2    1    2    0    0  0.70838471070E+02  0.11476700223E+03  0.82625780247E+02  0.20165327710E+03  0.12508985098E+03 0.  0.
         23    2    1    2    0    0 -0.70838471070E+02 -0.11476700223E+03  0.21465888438E+03  0.26874430353E+03  0.89193667099E+02 0.  0.
          5    1    3    3  502    0  0.10670487465E+03  0.93156017347E+02  0.67173106379E+02  0.15682369866E+03  0.41800000000E+01 0.  1.
         -5    1    3    3    0  502 -0.35866403578E+02  0.21610984882E+02  0.15452673867E+02  0.44829578437E+02  0.41800000000E+01 0.  1.
        -11    1    4    4    0    0 -0.27026457149E+02 -0.10699096970E+03  0.11386041600E+03  0.15856131721E+03  0.00000000000E+00 0. -1.
         11    1    4    4    0    0 -0.43812013921E+02 -0.77760325257E+01  0.10079846838E+03  0.11018298631E+03  0.00000000000E+00 0.  1.
</event>
<event>
 8    1  0.6834011E-009  0.8806744E+02  0.7561462E-02  0.1307600E+00
          2   -1    0    0  501    0  0.00000000000E+00  0.00000000000E+00  0.49396778156E+03  0.49396778156E+03  0.00000000000E+00 0. -1.
         -2   -1    0    0    0  501 -0.00000000000E+00 -0.00000000000E+00 -0.34014277066E+02  0.34014277066E+02  0.00000000000E+00 0.  1.
         25    2    1    2    0    0  0.52508067304E+02 -0.15699699220E+02  0.16420892994E+03  0.21357421767E+03  0.12508315671E+03 0.  0.
         23    2    1    2    0    0 -0.52508067304E+02  0.15699699220E+02  0.29574457456E+03  0.31440784096E+03  0.91563417322E+02 0.  0.
          5    1    3    3  502    0  0.31368958498E+02  0.14034395475E+02  0.17249094314E+03  0.17593059336E+03  0.41800000000E+01 0.  1.
         -5    1    3    3    0  502  0.21139108806E+02 -0.29734094695E+02 -0.82820132011E+01  0.37643624309E+02  0.41800000000E+01 0.  1.
        -11    1    4    4    0    0 -0.15704315387E+02 -0.37184526801E+02  0.14402221074E+03  0.14957176118E+03  0.00000000000E+00 0.  1.
         11    1    4    4    0    0 -0.36803751916E+02  0.52884226021E+02  0.15172236382E+03  0.16483607979E+03  0.00000000000E+00 0. -1.
</event>
<event>
 8    1  0.6834011E-009  0.8700940E+02  0.7561462E-02  0.1310260E+00
          1   -1    0    0  501    0  0.00000000000E+00  0.00000000000E+00  0.50966023083E+02  0.50966023083E+02  0.00000000000E+00 0. -1.
         -1   -1    0    0    0  501 -0.00000000000E+00 -0.00000000000E+00 -0.33973889452E+03  0.33973889452E+03  0.00000000000E+00 0.  1.
         25    2    1    2    0    0 -0.54044165533E+02 -0.45133801426E+02 -0.13112453971E+03  0.19442053638E+03  0.12509143932E+03 0.  0.
         23    2    1    2    0    0  0.54044165533E+02  0.45133801426E+02 -0.15764833173E+03  0.19628438123E+03  0.93363429447E+02 0.  0.
          5    1    3    3  502    0 -0.50556223247E+02 -0.49855664653E+01  0.61027691813E+01  0.51337157826E+02  0.41800000000E+01 0. -1.
         -5    1    3    3    0  502 -0.34879422866E+01 -0.40148234961E+02 -0.13722730890E+03  0.14308337855E+03  0.41800000000E+01 0. -1.
        -11    1    4    4    0    0  0.55086187481E+02  0.21911092872E+02 -0.29823198386E+02  0.66362694370E+02  0.00000000000E+00 0. -1.
         11    1    4    4    0    0 -0.10420219478E+01  0.23222708555E+02 -0.12782513334E+03  0.12992168686E+03  0.00000000000E+00 0.  1.
</event>
<event>
 8    1  0.6834011E-009  0.1084885E+03  0.7561462E-02  0.1263395E+00
         -2   -1    0    0    0  501 -0.00000000000E+00  0.00000000000E+00  0.66505149588E+02  0.66505149588E+02  0.00000000000E+00 0. -1.
          2   -1    0    0  501    0  0.00000000000E+00 -0.00000000000E+00 -0.23731948440E+03  0.23731948440E+03  0.00000000000E+00 0.  1.
         25    2    1    2    0    0  0.44979265240E+02 -0.31832714677E+02 -0.59580906809E+02  0.14910469628E+03  0.12508345203E+03 0.  0.
         23    2    1    2    0    0 -0.44979265240E+02  0.31832714677E+02 -0.11123342801E+03  0.15471993771E+03  0.92352193231E+02 0.  0.
          5    1    3    3  502    0 -0.96287052412E+01  0.29209216041E+02 -0.59483983069E+02  0.67094760661E+02  0.41800000000E+01 0.  1.
         -5    1    3    3    0  502  0.54607970482E+02 -0.61041930718E+02 -0.96923739263E-01  0.82009935618E+02  0.41800000000E+01 0.  1.
        -11    1    4    4    0    0  0.22072511036E+02 -0.10695762617E+02 -0.11090043540E+02  0.26918100734E+02  0.00000000000E+00 0. -1.
         11    1    4    4    0    0 -0.67051776277E+02  0.42528477293E+02 -0.10014338447E+03  0.12780183698E+03  0.00000000000E+00 0.  1.
</event>
<event>
 8    1  0.6834011E-009  0.9088667E+02  0.7561462E-02  0.1300719E+00
          1   -1    0    0  501    0  0.00000000000E+00  0.00000000000E+00  0.31290773298E+03  0.31290773298E+03  0.00000000000E+00 0. -1.
         -1   -1    0    0    0  501 -0.00000000000E+00 -0.00000000000E+00 -0.52919343987E+02  0.52919343987E+02  0.00000000000E+00 0.  1.
         25    2    1    2    0    0  0.37410721363E+02 -0.17980897046E+02  0.66400421825E+02  0.14757695299E+03  0.12508823408E+03 0.  0.
         23    2    1    2    0    0 -0.37410721363E+02  0.17980897046E+02  0.19358796716E+03  0.21825012397E+03  0.91836489758E+02 0.  0.
          5    1    3    3  502    0 -0.35387817841E+01 -0.42424297625E+02 -0.21205525449E+02  0.47744012348E+02  0.41800000000E+01 0. -1.
         -5    1    3    3    0  502  0.40949503148E+02  0.24443400579E+02  0.87605947274E+02  0.99832940644E+02  0.41800000000E+01 0. -1.
        -11    1    4    4    0    0  0.19335392506E+02 -0.15899693360E+02  0.18569478191E+02  0.31168624811E+02  0.00000000000E+00 0.  1.
         11    1    4    4    0    0 -0.56746113870E+02  0.33880590406E+02  0.17501848897E+03  0.18708149916E+03  0.00000000000E+00 0. -1.
</event>
<event>
 8    1  0.6834011E-009  0.1117291E+03  0.7561462E-02  0.1257401E+00
         -2   -1    0    0    0  501 -0.00000000000E+00  0.00000000000E+00  0.21334525123E+03  0.21334525123E+03  0.00000000000E+00 0.  1.
          2   -1    0    0  501    0  0.00000000000E+00 -0.00000000000E+00 -0.78264930773E+02  0.78264930773E+02  0.00000000000E+00 0. -1.
         25    2    1    2    0    0 -0.47977387122E+02  0.44751548868E+02  0.47372430672E+02  0.14898743360E+03  0.12509427398E+03 0.  0.
         23    2    1    2    0    0  0.47977387122E+02 -0.44751548868E+02  0.87707889788E+02  0.14262274840E+03  0.91345736789E+02 0.  0.
          5    1    3    3  502    0 -0.40466313741E+02 -0.29736350151E+02 -0.13767854735E+02  0.52237910487E+02  0.41800000000E+01 0.  1.
         -5    1    3    3    0  502 -0.75110733811E+01  0.74487899020E+02  0.61140285408E+02  0.96749523117E+02  0.41800000000E+01 0.  1.
        -11    1    4    4    0    0  0.47991915829E+02  0.50740553219E+01  0.84340500853E+01  0.48990848361E+02  0.00000000000E+00 0. -1.
         11    1    4    4    0    0 -0.14528706769E-01 -0.49825604190E+02  0.79273839703E+02  0.93631900041E+02  0.00000000000E+00 0.  1.
</event>
<event>
 8    1  0.6834011E-009  0.9862467E+02  0.7561462E-02  0.1283215E+00
          1   -1    0    0  501    0  0.00000000000E+00  0.00000000000E+00  0.46680493808E+03  0.46680493808E+03  0.00000000000E+00 0. -1.
         -1   -1    0    0    0  501 -0.00000000000E+00 -0.00000000000E+00 -0.29261631787E+02  0.29261631787E+02  0.00000000000E+00 0.  1.
         25    2    1    2    0    0 -0.34277641916E+02  0.15440918550E+01  0.31333503282E+03  0.33912207835E+03  0.12509036843E+03 0.  0.
         23    2    1    2    0    0  0.34277641916E+02 -0.15440918550E+01  0.12420827348E+03  0.15694449153E+03  0.89590944102E+02 0.  0.
          5    1    3    3  502    0  0.11688163794E+02 -0.51914072007E+02  0.18605101263E+03  0.19355654406E+03  0.41800000000E+01 0.  1.
         -5    1    3    3    0  502 -0.45965805710E+02  0.53458163862E+02  0.12728402019E+03  0.14556553429E+03  0.41800000000E+01 0.  1.
        -11    1    4    4    0    0 -0.98834115316E+01  0.21332422950E+02  0.39325253540E+00  0.23514011567E+02  0.00000000000E+00 0.  1.
         11    1    4    4    0    0  0.44161053448E+02 -0.22876514805E+02  0.12381502094E+03  0.13343047996E+03  0.00000000000E+00 0. -1.
</event>
<event>
 8    1  0.6834011E-009  0.2209810E+03  0.7561462E-02  0.1133154E+00
         -1   -1    0    0    0  501 -0.00000000000E+00  0.00000000000E+00  0.74950926493E+03  0.74950926493E+03  0.00000000000E+00 0.  1.
          1   -1    0    0  501    0  0.00000000000E+00 -0.00000000000E+00 -0.73402035279E+02  0.73402035279E+02  0.00000000000E+00 0. -1.
         25    2    1    2    0    0  0.19799447403E+03 -0.23247791186E+02  0.45195991500E+03  0.50956587700E+03  0.12508935486E+03 0.  0.
         23    2    1    2    0    0 -0.19799447403E+03  0.23247791186E+02  0.22414731465E+03  0.31334542321E+03  0.90559726351E+02 0.  0.
          5    1    3    3  502    0  0.99183952044E+02 -0.74350971941E+02  0.23836090123E+03  0.26869855788E+03  0.41800000000E+01 0.  1.
         -5    1    3    3    0  502  0.98810521987E+02  0.51103180755E+02  0.21359901377E+03  0.24086731913E+03  0.41800000000E+01 0.  1.
        -11    1    4    4    0    0 -0.13017702273E+03 -0.10993800646E+02  0.18870383005E+03  0.22951264970E+03  0.00000000000E+00 0.  1.
         11    1    4    4    0    0 -0.67817451303E+02  0.34241591832E+02  0.35443484605E+02  0.83832773504E+02  0.00000000000E+00 0. -1.
</event>
<event>
 8    1  0.6834011E-009  0.1498131E+03  0.7561462E-02  0.1200703E+00
         -2   -1    0    0    0  501 -0.00000000000E+00  0.00000000000E+00  0.79426980967E+02  0.79426980967E+02  0.00000000000E+00 0.  1.
          2   -1    0    0  501    0  0.00000000000E+00 -0.00000000000E+00 -0.42741557305E+03  0.42741557305E+03  0.00000000000E+00 0. -1.
         25    2    1    2    0    0 -0.13412167028E+03  0.15252736696E+02 -0.99045898309E+02  0.20899498000E+03  0.12509014061E+03 0.  0.
         23    2    1    2    0    0  0.13412167028E+03 -0.15252736696E+02 -0.24894269378E+03  0.29784757402E+03  0.92300835052E+02 0.  0.
          5    1    3    3  502    0  0.11594062020E+02  0.69108064929E+01 -0.54551831219E+02  0.56352073696E+02  0.41800000000E+01 0.  1.
         -5    1    3    3    0  502 -0.14571573230E+03  0.83419302030E+01 -0.44494067090E+02  0.15264290630E+03  0.41800000000E+01 0.  1.
        -11    1    4    4    0    0  0.77716574967E+02 -0.26220507789E+02 -0.63565060127E+02  0.10376848232E+03  0.00000000000E+00 0.  1.
         11    1    4    4    0    0  0.56405095310E+02  0.10967771093E+02 -0.18537763365E+03  0.19407909170E+03  0.00000000000E+00 0. -1.
</event>
<event>
 8    1  0.6834011E-009  0.2867618E+03  0.7561462E-02  0.1092052E+00
          2   -1    0    0  501    0  0.00000000000E+00  0.00000000000E+00  0.33376071188E+04  0.33376071188E+04  0.00000000000E+00 0. -1.
         -2   -1    0    0    0  501 -0.00000000000E+00 -0.00000000000E+00 -0.25172405015E+02  0.25172405015E+02  0.00000000000E+00 0.  1.
         25    2    1    2    0    0 -0.23743791764E+03  0.11798802115E+03  0.19368679726E+04  0.19589297760E+04  0.12510150364E+03 0.  0.
         23    2    1    2    0    0  0.23743791764E+03 -0.11798802115E+03  0.13755667412E+04  0.14038497478E+04  0.91171909420E+02 0.  0.
          5    1    3    3  502    0 -0.20397639675E+03  0.39594712557E+02  0.13782981507E+04  0.13938785371E+04  0.41800000000E+01 0. -1.
         -5    1    3    3    0  502 -0.33461520894E+02  0.78393308592E+02  0.55856982190E+03  0.56505123887E+03  0.41800000000E+01 0. -1.
        -11    1    4    4    0    0 -0.67072554423E+01 -0.12937285072E+02  0.68240559590E+02  0.69779184531E+02  0.00000000000E+00 0. -1.
         11    1    4    4    0    0  0.24414517309E+03 -0.10505073608E+03  0.13073261816E+04  0.13340705633E+04  0.00000000000E+00 0.  1.
</event>
<event>
 8    1  0.6834011E-009  0.8913577E+02  0.7561462E-02  0.1304958E+00
         -1   -1    0    0    0  501 -0.00000000000E+00  0.00000000000E+00  0.22045418046E+02  0.22045418046E+02  0.00000000000E+00 0.  1.
          1   -1    0    0  501    0  0.00000000000E+00 -0.00000000000E+00 -0.83121525542E+03  0.83121525542E+03  0.00000000000E+00 0. -1.
         25    2    1    2    0    0 -0.46855725928E+02 -0.41035820924E+02 -0.29032048164E+03  0.32220052490E+03  0.12509116091E+03 0.  0.
         23    2    1    2    0    0  0.46855725928E+02  0.41035820924E+02 -0.51884935574E+03  0.53106014856E+03  0.94555961163E+02 0.  0.
          5    1    3    3  502    0 -0.22747450695E+01  0.11123089664E+00  0.12478453328E+02  0.13355561946E+02  0.41800000000E+01 0.  1.
         -5    1    3    3    0  502 -0.44580980859E+02 -0.41147051820E+02 -0.30279893497E+03  0.30884496296E+03  0.41800000000E+01 0.  1.
        -11    1    4    4    0    0  0.50626041874E+02  0.68388867046E+02 -0.41253736543E+03  0.42122097660E+03  0.00000000000E+00 0. -1.
         11    1    4    4    0    0 -0.37703159453E+01 -0.27353046122E+02 -0.10631199031E+03  0.10983917196E+03  0.00000000000E+00 0.  1.
</event>
<event>
 8    1  0.6834011E-009  0.1238450E+03  0.7561462E-02  0.1236885E+00
          2   -1    0    0  501    0  0.00000000000E+00  0.00000000000E+00  0.29036401458E+03  0.29036401458E+03  0.00000000000E+00 0. -1.
         -2   -1    0    0    0  501 -0.00000000000E+00 -0.00000000000E+00 -0.70461756738E+02  0.70461756738E+02  0.00000000000E+00 0.  1.
         25    2    1    2    0    0 -0.40542006605E+02 -0.74005001218E+02  0.66229030099E+02  0.16478808238E+03  0.12509369753E+03 0.  0.
         23    2    1    2    0    0  0.40542006605E+02  0.74005001218E+02  0.15367322774E+03  0.19603768894E+03  0.87720693429E+02 0.  0.
          5    1    3    3  502    0  0.26046272165E+02 -0.79573496551E+02  0.33690575512E+02  0.90348640971E+02  0.41800000000E+01 0. -1.
         -5    1    3    3    0  502 -0.66588278770E+02  0.55684953330E+01  0.32538454587E+02  0.74439441406E+02  0.41800000000E+01 0. -1.
        -11    1    4    4    0    0 -0.81710623799E+01  0.30563710182E+02  0.29321246417E+01  0.31772692606E+02  0.00000000000E+00 0.  1.
         11    1    4    4    0    0  0.48713068985E+02  0.43441291035E+02  0.15074110310E+03  0.16426499634E+03  0.00000000000E+00 0. -1.
</event>
<event>
 8    1  0.6834011E-009  0.1027549E+03  0.7561462E-02  0.1274607E+00
         -4   -1    0    0    0  501 -0.00000000000E+00  0.00000000000E+00  0.97624544380E+02  0.97624544380E+02  0.00000000000E+00 0.  1.
          4   -1    0    0  501    0  0.00000000000E+00 -0.00000000000E+00 -0.12913108449E+03  0.12913108449E+03  0.00000000000E+00 0. -1.
         25    2    1    2    0    0  0.78227110085E+01  0.33630147633E+01  0.34406658327E+00  0.12538051108E+03  0.12509056520E+03 0.  0.
         23    2    1    2    0    0 -0.78227110085E+01 -0.33630147633E+01 -0.31850606697E+02  0.10137511779E+03  0.95864220045E+02 0.  0.
          5    1    3    3  502    0 -0.39676848756E+01  0.56976198135E+02 -0.27679274114E+02  0.63605379432E+02  0.41800000000E+01 0. -1.
         -5    1    3    3    0  502  0.11790395884E+02 -0.53613183372E+02  0.28023340697E+02  0.61775131649E+02  0.41800000000E+01 0. -1.
        -11    1    4    4    0    0 -0.20510629775E+02 -0.45111707856E+02 -0.42345311614E+01  0.49736137502E+02  0.00000000000E+00 0.  1.
         11    1    4    4    0    0  0.12687918766E+02  0.41748693092E+02 -0.27616075536E+02  0.51638980291E+02  0.00000000000E+00 0. -1.
</event>
<event>
 8    1  0.6834011E-009  0.9692298E+02  0.7561462E-02  0.1286903E+00
          4   -1    0    0  501    0  0.00000000000E+00  0.00000000000E+00  0.68835350032E+03  0.68835350032E+03  0.00000000000E+00 0. -1.
         -4   -1    0    0    0  501 -0.00000000000E+00 -0.00000000000E+00 -0.18073745550E+02  0.18073745550E+02  0.00000000000E+00 0.  1.
         25    2    1    2    0    0 -0.26119364655E+02 -0.70698535853E+00  0.37104036667E+03  0.39242971394E+03  0.12508959046E+03 0.  0.
         23    2    1    2    0    0  0.26119364655E+02  0.70698535853E+00  0.29923938810E+03  0.31399753194E+03  0.91474136410E+02 0.  0.
          5    1    3    3  502    0 -0.64971760283E+02  0.92208722289E+01  0.32340619360E+03  0.33002332126E+03  0.41800000000E+01 0. -1.
         -5    1    3    3    0  502  0.38852395628E+02 -0.99278575874E+01  0.47634173074E+02  0.62406392676E+02  0.41800000000E+01 0. -1.
        -11    1    4    4    0    0 -0.81200446023E+01  0.36997944990E+02  0.72116961919E+02  0.81459433181E+02  0.00000000000E+00 0.  1.
         11    1    4    4    0    0  0.34239409257E+02 -0.36290959631E+02  0.22712242618E+03  0.23253809875E+03  0.00000000000E+00 0. -1.
</event>
<event>
 8    1  0.6834011E-009  0.1098666E+03  0.7561462E-02  0.1260817E+00
          2   -1    0    0  501    0  0.00000000000E+00  0.00000000000E+00  0.71491135394E+03  0.71491135394E+03  0.00000000000E+00 0. -1.
         -2   -1    0    0    0  501 -0.00000000000E+00 -0.00000000000E+00 -0.19722540945E+02  0.19722540945E+02  0.00000000000E+00 0.  1.
         25    2    1    2    0    0 -0.20302129261E+02 -0.13659335996E+02  0.52534238281E+03  0.54058352671E+03  0.12508867358E+03 0.  0.
         23    2    1    2    0    0  0.20302129261E+02  0.13659335996E+02  0.16984643019E+03  0.19405036818E+03  0.90603430570E+02 0.  0.
          5    1    3    3  502    0 -0.24311527140E+02  0.54096598028E+02  0.24607487783E+03  0.25315570341E+03  0.41800000000E+01 0.  1.
         -5    1    3    3    0  502  0.40093978788E+01 -0.67755934024E+02  0.27926750498E+03  0.28742782330E+03  0.41800000000E+01 0.  1.
        -11    1    4    4    0    0 -0.35345891059E+02  0.87341130168E+01  0.50296638601E+02  0.62091614567E+02  0.00000000000E+00 0. -1.
         11    1    4    4    0    0  0.55648020320E+02  0.49252229793E+01  0.11954979158E+03  0.13195875361E+03  0.00000000000E+00 0.  1.
</event>
<event>
 8    1  0.6834011E-009  0.9717220E+02  0.7561462E-02  0.1286357E+00
         -3   -1    0    0    0  501 -0.00000000000E+00  0.00000000000E+00  0.44384082495E+02  0.44384082495E+02  0.00000000000E+00 0.  1.
          3   -1    0    0  501    0  0.00000000000E+00 -0.00000000000E+00 -0.50954950168E+03  0.50954950168E+03  0.00000000000E+00 0. -1.
         25    2    1    2    0    0 -0.15611766005E+02  0.57329885180E+02 -0.92032815596E+02  0.16627801624E+03  0.12509155274E+03 0.  0.
         23    2    1    2    0    0  0.15611766005E+02 -0.57329885180E+02 -0.37313260359E+03  0.38765556793E+03  0.86709033635E+02 0.  0.
          5    1    3    3  502    0 -0.42179420037E+02  0.48513745839E+02 -0.11366727315E+03  0.13065377299E+03  0.41800000000E+01 0.  1.
         -5    1    3    3    0  502  0.26567654032E+02  0.88161393413E+01  0.21634457558E+02  0.35624243255E+02  0.41800000000E+01 0.  1.
        -11    1    4    4    0    0 -0.34089495800E+02 -0.20742893709E+02 -0.19761843710E+03  0.20160706348E+03  0.00000000000E+00 0.  1.
         11    1    4    4    0    0  0.49701261805E+02 -0.36586991471E+02 -0.17551416649E+03  0.18604850445E+03  0.00000000000E+00 0. -1.
</event>
<event>
 8    1  0.6834011E-009  0.2004822E+03  0.7561462E-02  0.1149333E+00
         -1   -1    0    0    0  501 -0.00000000000E+00  0.00000000000E+00  0.83508694344E+03  0.83508694344E+03  0.00000000000E+00 0.  1.
          1   -1    0    0  501    0  0.00000000000E+00 -0.00000000000E+00 -0.83628301612E+02  0.83628301612E+02  0.00000000000E+00 0. -1.
         25    2    1    2    0    0 -0.16911856171E+03  0.15181432219E+02  0.89687290120E+02  0.22917798553E+03  0.12508866952E+03 0.  0.
         23    2    1    2    0    0  0.16911856171E+03 -0.15181432219E+02  0.66177135171E+03  0.68953725953E+03  0.93213446120E+02 0.  0.
          5    1    3    3  502    0 -0.28952124100E+02  0.54553469423E+02  0.45981173904E+02  0.77110617100E+02  0.41800000000E+01 0.  1.
         -5    1    3    3    0  502 -0.14016643761E+03 -0.39372037204E+02  0.43706116217E+02  0.15206736842E+03  0.41800000000E+01 0.  1.
        -11    1    4    4    0    0  0.60781133876E+02  0.39064786006E+02  0.26570222967E+03  0.27535082821E+03  0.00000000000E+00 0.  1.
         11    1    4    4    0    0  0.10833742783E+03 -0.54246218226E+02  0.39606912204E+03  0.41418643132E+03  0.00000000000E+00 0. -1.
</event>
<event>
 8    1  0.6834011E-009  0.7723123E+02  0.7561462E-02  0.1337098E+00
         -1   -1    0    0    0  501 -0.00000000000E+00  0.00000000000E+00  0.65354787458E+03  0.65354787458E+03  0.00000000000E+00 0.  1.
          1   -1    0    0  501    0  0.00000000000E+00 -0.00000000000E+00 -0.24858083876E+02  0.24858083876E+02  0.00000000000E+00 0. -1.
         25    2    1    2    0    0 -0.36651836050E+02  0.96423121261E+01  0.19867917663E+03  0.23781875929E+03  0.12509202922E+03 0.  0.
         23    2    1    2    0    0  0.36651836050E+02 -0.96423121261E+01  0.43001061408E+03  0.44058719917E+03  0.88156795445E+02 0.  0.
          5    1    3    3  502    0 -0.27680023639E+02 -0.16858006602E+02  0.20601830962E+03  0.20859384554E+03  0.41800000000E+01 0.  1.
         -5    1    3    3    0  502 -0.89718124111E+01  0.26500318728E+02 -0.73391329972E+01  0.29224913752E+02  0.41800000000E+01 0.  1.
        -11    1    4    4    0    0  0.22448811495E+02  0.37805458828E+02  0.25236490961E+03  0.25616644873E+03  0.00000000000E+00 0.  1.
         11    1    4    4    0    0  0.14203024556E+02 -0.47447770954E+02  0.17764570447E+03  0.18442075044E+03  0.00000000000E+00 0. -1.
</event>
<event>
 8    1  0.6834011E-009  0.6617609E+02  0.7561462E-02  0.1373601E+00
         -1   -1    0    0    0  501 -0.00000000000E+00  0.00000000000E+00  0.42849847012E+03  0.42849847012E+03  0.00000000000E+00 0.  1.
          1   -1    0    0  501    0  0.00000000000E+00 -0.00000000000E+00 -0.42942813339E+02  0.42942813339E+02  0.00000000000E+00 0. -1.
         25    2    1    2    0    0  0.34969118120E+02 -0.32371838649E+02  0.92427372686E+02  0.16266848142E+03  0.12508972966E+03 0.  0.
         23    2    1    2    0    0 -0.34969118120E+02  0.32371838649E+02  0.29312828410E+03  0.30877280204E+03  0.84532107403E+02 0.  0.
          5    1    3    3  502    0  0.19531982509E+02 -0.30877786986E+02 -0.24793437615E+02  0.44352260581E+02  0.41800000000E+01 0. -1.
         -5    1    3    3    0  502  0.15437135611E+02 -0.14940516632E+01  0.11722081030E+03  0.11831622084E+03  0.41800000000E+01 0. -1.
        -11    1    4    4    0    0 -0.25094066069E+02 -0.16252503814E+02  0.35510258074E+02  0.46420194534E+02  0.00000000000E+00 0.  1.
         11    1    4    4    0    0 -0.98750520510E+01  0.48624342463E+02  0.25761802602E+03  0.26235260751E+03  0.00000000000E+00 0. -1.
</event>
<event>
 8    1  0.6834011E-009  0.9174042E+02  0.7561462E-02  0.1298691E+00
          1   -1    0    0  501    0  0.00000000000E+00  0.00000000000E+00  0.49729118022E+02  0.49729118022E+02  0.00000000000E+00 0. -1.
         -1   -1    0    0    0  501 -0.00000000000E+00 -0.00000000000E+00 -0.32821135154E+03  0.32821135154E+03  0.00000000000E+00 0.  1.
         25    2    1    2    0    0 -0.55716024974E+02 -0.61241462230E+01 -0.10107317257E+03  0.17030828250E+03  0.12508934515E+03 0.  0.
         23    2    1    2    0    0  0.55716024974E+02  0.61241462230E+01 -0.17740906095E+03  0.20763218706E+03  0.92170329235E+02 0.  0.
          5    1    3    3  502    0 -0.73370398939E+02 -0.11118481075E+02 -0.73199479815E+01  0.74685273651E+02  0.41800000000E+01 0.  1.
         -5    1    3    3    0  502  0.17654373965E+02  0.49943348523E+01 -0.93753224590E+02  0.95623008851E+02  0.41800000000E+01 0.  1.
        -11    1    4    4    0    0  0.27826003633E+02  0.38565337276E+02 -0.35306797074E+02  0.59229567254E+02  0.00000000000E+00 0. -1.
         11    1    4    4    0    0  0.27890021341E+02 -0.32441191053E+02 -0.14210226388E+03  0.14840261981E+03  0.00000000000E+00 0.  1.
</event>
<event>
 8    1  0.6834011E-009  0.1698055E+03  0.7561462E-02  0.1178051E+00
         -2   -1    0    0    0  501 -0.00000000000E+00  0.00000000000E+00  0.57619733863E+03  0.57619733863E+03  0.00000000000E+00 0.  1.
          2   -1    0    0  501    0  0.00000000000E+00 -0.00000000000E+00 -0.54329923748E+02  0.54329923748E+02  0.00000000000E+00 0. -1.
         25    2    1    2    0    0 -0.10580362429E+03 -0.87654418476E+02  0.23383974522E+03  0.29867481763E+03  0.12509163141E+03 0.  0.
         23    2    1    2    0    0  0.10580362429E+03  0.87654418476E+02  0.28802766966E+03  0.33185244475E+03  0.91040664575E+02 0.  0.
          5    1    3    3  502    0  0.24029539314E+02 -0.30516259781E+02  0.25704644053E+02  0.46763896293E+02  0.41800000000E+01 0.  1.
         -5    1    3    3    0  502 -0.12983316360E+03 -0.57138158695E+02  0.20813510117E+03  0.25191092133E+03  0.41800000000E+01 0.  1.
        -11    1    4    4    0    0  0.11901033687E+03  0.78937701183E+02  0.27951472296E+03  0.31388389781E+03  0.00000000000E+00 0.  1.
         11    1    4    4    0    0 -0.13206712586E+02  0.87167172930E+01  0.85129466974E+01  0.17968546941E+02  0.00000000000E+00 0. -1.
</event>
<event>
 8    1  0.6834011E-009  0.1763400E+03  0.7561462E-02  0.1171393E+00
         -2   -1    0    0    0  501 -0.00000000000E+00  0.00000000000E+00  0.14030080710E+03  0.14030080710E+03  0.00000000000E+00 0.  1.
          2   -1    0    0  501    0  0.00000000000E+00 -0.00000000000E+00 -0.33482499953E+03  0.33482499953E+03  0.00000000000E+00 0. -1.
         25    2    1    2    0    0 -0.54444021114E+02  0.15496288056E+03 -0.19080754836E+03  0.28112758619E+03  0.12509018114E+03 0.  0.
         23    2    1    2    0    0  0.54444021114E+02 -0.15496288056E+03 -0.37166440695E+01  0.19399822043E+03  0.10316903751E+03 0.  0.
          5    1    3    3  502    0 -0.28502607608E+02 -0.15889748810E+01  0.47623747885E+01  0.29241684207E+02  0.41800000000E+01 0.  1.
         -5    1    3    3    0  502 -0.25941413506E+02  0.15655185544E+03 -0.19556992315E+03  0.25188590199E+03  0.41800000000E+01 0.  1.
        -11    1    4    4    0    0  0.11820528391E+02 -0.57642467067E+02  0.47904537535E+02  0.75876370613E+02  0.00000000000E+00 0.  1.
         11    1    4    4    0    0  0.42623492723E+02 -0.97320413495E+02 -0.51621181604E+02  0.11812184982E+03  0.00000000000E+00 0. -1.
</event>
<event>
 8    1  0.6834011E-009  0.1906241E+03  0.7561462E-02  0.1157900E+00
          1   -1    0    0  501    0  0.00000000000E+00  0.00000000000E+00  0.33838193861E+03  0.33838193861E+03  0.00000000000E+00 0. -1.
         -1   -1    0    0    0  501 -0.00000000000E+00 -0.00000000000E+00 -0.16762610215E+03  0.16762610215E+03  0.00000000000E+00 0.  1.
         25    2    1    2    0    0 -0.17452160174E+03 -0.36518115979E+02 -0.31010644696E+02  0.21999045989E+03  0.12507110013E+03 0.  0.
         23    2    1    2    0    0  0.17452160174E+03  0.36518115979E+02  0.20176648116E+03  0.28601758086E+03  0.96462331371E+02 0.  0.
          5    1    3    3  502    0 -0.16180125574E+03 -0.16271100055E+02 -0.67537104478E+02  0.17613383530E+03  0.41800000000E+01 0. -1.
         -5    1    3    3    0  502 -0.12720346002E+02 -0.20247015924E+02  0.36526459782E+02  0.43856624591E+02  0.41800000000E+01 0. -1.
        -11    1    4    4    0    0  0.10794190057E+03 -0.16496395949E+02  0.15286832364E+03  0.18786247456E+03  0.00000000000E+00 0. -1.
         11    1    4    4    0    0  0.66579701178E+02  0.53014511928E+02  0.48898157524E+02  0.98155106303E+02  0.00000000000E+00 0.  1.
</event>
<event>
 8    1  0.6834011E-009  0.1386237E+03  0.7561462E-02  0.1215193E+00
          1   -1    0    0  501    0  0.00000000000E+00  0.00000000000E+00  0.10097461694E+04  0.10097461694E+04  0.00000000000E+00 0. -1.
         -1   -1    0    0    0  501 -0.00000000000E+00 -0.00000000000E+00 -0.43649032802E+02  0.43649032802E+02  0.00000000000E+00 0.  1.
         25    2    1    2    0    0 -0.71801254395E+02 -0.65003075804E+02  0.88426962075E+03  0.89831157841E+03  0.12510039855E+03 0.  0.
         23    2    1    2    0    0  0.71801254395E+02  0.65003075804E+02  0.81827515876E+02  0.15508362383E+03  0.89299317065E+02 0.  0.
          5    1    3    3  502    0  0.23103492671E+02  0.13980004421E+02  0.78362125223E+02  0.82989800377E+02  0.41800000000E+01 0. -1.
         -5    1    3    3    0  502 -0.94904747066E+02 -0.78983080225E+02  0.80590749553E+03  0.81532177803E+03  0.41800000000E+01 0. -1.
        -11    1    4    4    0    0  0.31618304617E+02  0.77985535465E+02  0.74158434204E+02  0.11216476404E+03  0.00000000000E+00 0. -1.
         11    1    4    4    0    0  0.40182949777E+02 -0.12982459662E+02  0.76690816727E+01  0.42918859787E+02  0.00000000000E+00 0.  1.
</event>
<event>
 8    1  0.6834011E-009  0.9418788E+02  0.7561462E-02  0.1293016E+00
         -2   -1    0    0    0  501 -0.00000000000E+00  0.00000000000E+00  0.22762042369E+03  0.22762042369E+03  0.00000000000E+00 0.  1.
          2   -1    0    0  501    0  0.00000000000E+00 -0.00000000000E+00 -0.83425672909E+02  0.83425672909E+02  0.00000000000E+00 0. -1.
         25    2    1    2    0    0  0.79102868051E+02  0.58703595971E+01  0.10477049477E+03  0.18142865384E+03  0.12509106684E+03 0.  0.
         23    2    1    2    0    0 -0.79102868051E+02 -0.58703595971E+01  0.39424256013E+02  0.12961744277E+03  0.94629195553E+02 0.  0.
          5    1    3    3  502    0  0.40379821971E+02 -0.58327795553E+01 -0.23222006210E+02  0.47130513600E+02  0.41800000000E+01 0.  1.
         -5    1    3    3    0  502  0.38723046080E+02  0.11703139152E+02  0.12799250098E+03  0.13429814024E+03  0.41800000000E+01 0.  1.
        -11    1    4    4    0    0 -0.83072177564E+02  0.15887716508E+02  0.56467356624E+02  0.10169546984E+03  0.00000000000E+00 0.  1.
         11    1    4    4    0    0  0.39693095126E+01 -0.21758076105E+02 -0.17043100611E+02  0.27921972929E+02  0.00000000000E+00 0. -1.
</event>
<event>
 8    1  0.6834011E-009  0.1808174E+03  0.7561462E-02  0.1167014E+00
          2   -1    0    0  501    0  0.00000000000E+00  0.00000000000E+00  0.94209244458E+03  0.94209244458E+03  0.00000000000E+00 0. -1.
         -2   -1    0    0    0  501 -0.00000000000E+00 -0.00000000000E+00 -0.43902426159E+02  0.43902426159E+02  0.00000000000E+00 0.  1.
         25    2    1    2    0    0 -0.91694355979E+02  0.14511682441E+03  0.47354519495E+03  0.51899850943E+03  0.12509058114E+03 0.  0.
         23    2    1    2    0    0  0.91694355979E+02 -0.14511682441E+03  0.42464482348E+03  0.46699636131E+03  0.91080336663E+02 0.  0.
          5    1    3    3  502    0 -0.10459821212E+02  0.90974211630E+02  0.11331748937E+03  0.14575335618E+03  0.41800000000E+01 0. -1.
         -5    1    3    3    0  502 -0.81234534767E+02  0.54142612780E+02  0.36022770558E+03  0.37324515325E+03  0.41800000000E+01 0. -1.
        -11    1    4    4    0    0  0.25277015026E+02 -0.52659913015E+02  0.55044526849E+02  0.80261409553E+02  0.00000000000E+00 0.  1.
         11    1    4    4    0    0  0.66417340953E+02 -0.92456911395E+02  0.36960029663E+03  0.38673495176E+03  0.00000000000E+00 0. -1.
</event>
<event>
 8    1  0.6834011E-009  0.7333712E+02  0.7561462E-02  0.1349099E+00
          2   -1    0    0  501    0  0.00000000000E+00  0.00000000000E+00  0.47880904439E+03  0.47880904439E+03  0.00000000000E+00 0. -1.
         -2   -1    0    0    0  501 -0.00000000000E+00 -0.00000000000E+00 -0.33981654499E+02  0.33981654499E+02  0.00000000000E+00 0.  1.
         25    2    1    2    0    0  0.72327040916E+01 -0.47808453832E+02  0.14992547455E+03  0.20114988060E+03  0.12508263781E+03 0.  0.
         23    2    1    2    0    0 -0.72327040916E+01  0.47808453832E+02  0.29490191534E+03  0.31164081828E+03  0.88401921270E+02 0.  0.
          5    1    3    3  502    0  0.89655960979E+01 -0.13656011058E+02 -0.20917549805E+02  0.26867914718E+02  0.41800000000E+01 0. -1.
         -5    1    3    3    0  502 -0.17328920062E+01 -0.34152442773E+02  0.17084302436E+03  0.17428196589E+03  0.41800000000E+01 0. -1.
        -11    1    4    4    0    0  0.11104973694E+02  0.67526633802E+02  0.15907495056E+03  0.17317045536E+03  0.00000000000E+00 0.  1.
         11    1    4    4    0    0 -0.18337677785E+02 -0.19718179970E+02  0.13582696478E+03  0.13847036292E+03  0.00000000000E+00 0. -1.
</event>
<event>
 8    1  0.6834011E-009  0.1199064E+03  0.7561462E-02  0.1243252E+00
          2   -1    0    0  501    0  0.00000000000E+00  0.00000000000E+00  0.47712244707E+03  0.47712244707E+03  0.00000000000E+00 0. -1.
         -2   -1    0    0    0  501 -0.00000000000E+00 -0.00000000000E+00 -0.58779194685E+02  0.58779194685E+02  0.00000000000E+00 0.  1.
         25    2    1    2    0    0  0.61998225122E+01 -0.82024322169E+02  0.37763207878E+03  0.40622757273E+03  0.12509367170E+03 0.  0.
         23    2    1    2    0    0 -0.61998225122E+01  0.82024322169E+02  0.40711173605E+02  0.12967406902E+03  0.91605334416E+02 0.  0.
          5    1    3    3  502    0 -0.30788300917E+02  0.22521125853E+02  0.85049620589E+02  0.93306114191E+02  0.41800000000E+01 0. -1.
         -5    1    3    3    0  502  0.36988123429E+02 -0.10454544802E+03  0.29258245819E+03  0.31292145854E+03  0.41800000000E+01 0. -1.
        -11    1    4    4    0    0  0.98674063877E+01  0.37475607888E+01 -0.24407682242E+02  0.26592195718E+02  0.00000000000E+00 0.  1.
         11    1    4    4    0    0 -0.16067228900E+02  0.78276761380E+02  0.65118855846E+02  0.10308187330E+03  0.00000000000E+00 0. -1.
</event>
<event>
 8    1  0.6834011E-009  0.2033531E+03  0.7561462E-02  0.1146940E+00
          2   -1    0    0  501    0  0.00000000000E+00  0.00000000000E+00  0.80606009354E+02  0.80606009354E+02  0.00000000000E+00 0.  1.
         -2   -1    0    0    0  501 -0.00000000000E+00 -0.00000000000E+00 -0.63215188105E+03  0.63215188105E+03  0.00000000000E+00 0. -1.
         25    2    1    2    0    0 -0.11530804256E+03 -0.14130137254E+03 -0.17367474174E+03  0.28119734513E+03  0.12508800273E+03 0.  0.
         23    2    1    2    0    0  0.11530804256E+03  0.14130137254E+03 -0.37787112995E+03  0.43156054528E+03  0.10097470389E+03 0.  0.
          5    1    3    3  502    0 -0.17226704165E+02 -0.11254752106E+03 -0.61842791066E+02  0.12963682748E+03  0.41800000000E+01 0.  1.
         -5    1    3    3    0  502 -0.98081338395E+02 -0.28753851481E+02 -0.11183195068E+03  0.15156051764E+03  0.41800000000E+01 0.  1.
        -11    1    4    4    0    0  0.47389209662E+02  0.19962404595E+02 -0.36803204764E+02  0.63235359338E+02  0.00000000000E+00 0.  1.
         11    1    4    4    0    0  0.67918832898E+02  0.12133896795E+03 -0.34106792519E+03  0.36832518594E+03  0.00000000000E+00 0. -1.
</event>
<event>
 8    1  0.6834011E-009  0.8648737E+02  0.7561462E-02  0.1311588E+00
         -1   -1    0    0    0  501 -0.00000000000E+00  0.00000000000E+00  0.15005201345E+03  0.15005201345E+03  0.00000000000E+00 0.  1.
          1   -1    0    0  501    0  0.00000000000E+00 -0.00000000000E+00 -0.90130536022E+02  0.90130536022E+02  0.00000000000E+00 0. -1.
         25    2    1    2    0    0  0.34717476270E+02  0.60240065209E+01  0.10600757593E+02  0.13039722124E+03  0.12509783144E+03 0.  0.
         23    2    1    2    0    0 -0.34717476270E+02 -0.60240065209E+01  0.49320719832E+02  0.10978532823E+03  0.91535201302E+02 0.  0.
          5    1    3    3  502    0 -0.43045481545E+02 -0.14961698957E+02 -0.10661560061E+02  0.46988372818E+02  0.41800000000E+01 0. -1.
         -5    1    3    3    0  502  0.77762957815E+02  0.20985705478E+02  0.21262317654E+02  0.83408848419E+02  0.41800000000E+01 0. -1.
        -11    1    4    4    0    0 -0.27787632914E+02  0.96544058640E+01  0.74059590021E+02  0.79688035298E+02  0.00000000000E+00 0.  1.
         11    1    4    4    0    0 -0.69298433562E+01 -0.15678412385E+02 -0.24738870189E+02  0.30097292936E+02  0.00000000000E+00 0. -1.
</event>
<event>
 8    1  0.6834011E-009  0.2260875E+03  0.7561462E-02  0.1129424E+00
          2   -1    0    0  501    0  0.00000000000E+00  0.00000000000E+00  0.80462055997E+03  0.80462055997E+03  0.00000000000E+00 0. -1.
         -2   -1    0    0    0  501 -0.00000000000E+00 -0.00000000000E+00 -0.65692348785E+02  0.65692348785E+02  0.00000000000E+00 0.  1.
         25    2    1    2    0    0 -0.15518540339E+03  0.12832212889E+03  0.37575296235E+03  0.44428165107E+03  0.12508724387E+03 0.  0.
         23    2    1    2    0    0  0.15518540339E+03 -0.12832212889E+03  0.36317524884E+03  0.42603125769E+03  0.95169811226E+02 0.  0.
          5    1    3    3  502    0 -0.15168213851E+03  0.58977726083E+02  0.21984081293E+03  0.27355675598E+03  0.41800000000E+01 0.  1.
         -5    1    3    3    0  502 -0.35032648803E+01  0.69344402808E+02  0.15591214942E+03  0.17072489509E+03  0.41800000000E+01 0.  1.
        -11    1    4    4    0    0  0.81504419576E+02 -0.12084074413E+03  0.27175731225E+03  0.30837881350E+03  0.00000000000E+00 0. -1.
         11    1    4    4    0    0  0.73680983812E+02 -0.74813847579E+01  0.91417936592E+02  0.11765244419E+03  0.00000000000E+00 0.  1.
</event>
<event>
 8    1  0.6834011E-009  0.1944431E+03  0.7561462E-02  0.1154514E+00
         -2   -1    0    0    0  501 -0.00000000000E+00  0.00000000000E+00  0.45602351369E+02  0.45602351369E+02  0.00000000000E+00 0.  1.
          2   -1    0    0  501    0  0.00000000000E+00 -0.00000000000E+00 -0.10397058114E+04  0.10397058114E+04  0.00000000000E+00 0. -1.
         25    2    1    2    0    0  0.41085246915E+02 -0.16122960776E+03 -0.29718656630E+03  0.36283716855E+03  0.12509185327E+03 0.  0.
         23    2    1    2    0    0 -0.41085246915E+02  0.16122960776E+03 -0.69691689368E+03  0.72247099417E+03  0.92672524463E+02 0.  0.
          5    1    3    3  502    0 -0.11930211786E+02 -0.14139352143E+03 -0.15735849624E+03  0.21192835251E+03  0.41800000000E+01 0. -1.
         -5    1    3    3    0  502  0.53015458701E+02 -0.19836086330E+02 -0.13982807006E+03  0.15090881604E+03  0.41800000000E+01 0. -1.
        -11    1    4    4    0    0  0.22575000262E+02  0.75129428192E+01 -0.10094606237E+03  0.10371201693E+03  0.00000000000E+00 0.  1.
         11    1    4    4    0    0 -0.63660247177E+02  0.15371666494E+03 -0.59597083131E+03  0.61875897725E+03  0.00000000000E+00 0. -1.
</event>
<event>
 8    1  0.6834011E-009  0.9546772E+02  0.7561462E-02  0.1290126E+00
         -4   -1    0    0    0  501 -0.00000000000E+00  0.00000000000E+00  0.47445435146E+02  0.47445435146E+02  0.00000000000E+00 0.  1.
          4   -1    0    0  501    0  0.00000000000E+00 -0.00000000000E+00 -0.27562456763E+03  0.27562456763E+03  0.00000000000E+00 0. -1.
         25    2    1    2    0    0  0.29444571634E+02  0.14420617514E+02 -0.15025141508E+03  0.19823870420E+03  0.12509260211E+03 0.  0.
         23    2    1    2    0    0 -0.29444571634E+02 -0.14420617514E+02 -0.77927717403E+02  0.12483129857E+03  0.91843273873E+02 0.  0.
          5    1    3    3  502    0 -0.19751659112E+02  0.57084893141E+02 -0.95404372397E+02  0.11299681294E+03  0.41800000000E+01 0.  1.
         -5    1    3    3    0  502  0.49196230746E+02 -0.42664275627E+02 -0.54847042682E+02  0.85241891259E+02  0.41800000000E+01 0.  1.
        -11    1    4    4    0    0  0.92696707687E+01  0.14220707349E+02 -0.74657652277E+02  0.76563178860E+02  0.00000000000E+00 0. -1.
         11    1    4    4    0    0 -0.38714242403E+02 -0.28641324863E+02 -0.32700651259E+01  0.48268119713E+02  0.00000000000E+00 0.  1.
</event>
<event>
 8    1  0.6834011E-009  0.8478766E+02  0.7561462E-02  0.1315989E+00
          1   -1    0    0  501    0  0.00000000000E+00  0.00000000000E+00  0.56209297294E+03  0.56209297294E+03  0.00000000000E+00 0. -1.
         -1   -1    0    0    0  501 -0.00000000000E+00 -0.00000000000E+00 -0.22458017979E+02  0.22458017979E+02  0.00000000000E+00 0.  1.
         25    2    1    2    0    0 -0.70406255211E+01 -0.82274696019E+00  0.38562012886E+03  0.40546365587E+03  0.12509054774E+03 0.  0.
         23    2    1    2    0    0  0.70406255211E+01  0.82274696019E+00  0.15401482611E+03  0.17908733505E+03  0.91112346006E+02 0.  0.
          5    1    3    3  502    0 -0.31394809174E+02 -0.44419277548E+02  0.87156851020E+02  0.10282264021E+03  0.41800000000E+01 0.  1.
         -5    1    3    3    0  502  0.24354183653E+02  0.43596530588E+02  0.29846327784E+03  0.30264101566E+03  0.41800000000E+01 0.  1.
        -11    1    4    4    0    0  0.16162166787E+02 -0.29285261319E+02  0.14121709507E+03  0.14512446419E+03  0.00000000000E+00 0. -1.
         11    1    4    4    0    0 -0.91215412654E+01  0.30108008279E+02  0.12797731037E+02  0.33962870864E+02  0.00000000000E+00 0.  1.
</event>
<event>
 8    1  0.6834011E-009  0.2375172E+03  0.7561462E-02  0.1121458E+00
          1   -1    0    0  501    0  0.00000000000E+00  0.00000000000E+00  0.13364502233E+04  0.13364502233E+04  0.00000000000E+00 0. -1.
         -1   -1    0    0    0  501 -0.00000000000E+00 -0.00000000000E+00 -0.59965963246E+02  0.59965963246E+02  0.00000000000E+00 0.  1.
         25    2    1    2    0    0  0.71003307636E+02  0.22310716500E+03  0.93504389667E+03  0.97199435081E+03  0.12509057736E+03 0.  0.
         23    2    1    2    0    0 -0.71003307636E+02 -0.22310716500E+03  0.34144036339E+03  0.42442183574E+03  0.93456386234E+02 0.  0.
          5    1    3    3  502    0  0.64808311141E+02  0.15820503073E+03  0.83621825435E+03  0.85352644380E+03  0.41800000000E+01 0. -1.
         -5    1    3    3    0  502  0.61949964948E+01  0.64902134269E+02  0.98825642311E+02  0.11846790701E+03  0.41800000000E+01 0. -1.
        -11    1    4    4    0    0 -0.66417595510E+02 -0.13492555910E+03  0.14434566186E+03  0.20845112998E+03  0.00000000000E+00 0.  1.
         11    1    4    4    0    0 -0.45857121255E+01 -0.88181605908E+02  0.19709470153E+03  0.21597070576E+03  0.00000000000E+00 0. -1.
</event>
<event>
 8    1  0.6834011E-009  0.7742420E+02  0.7561462E-02  0.1336524E+00
         -2   -1    0    0    0  501 -0.00000000000E+00  0.00000000000E+00  0.48822997594E+02  0.48822997594E+02  0.00000000000E+00 0. -1.
          2   -1    0    0  501    0  0.00000000000E+00 -0.00000000000E+00 -0.29119057861E+03  0.29119057861E+03  0.00000000000E+00 0.  1.
         25    2    1    2    0    0  0.18404785729E+02 -0.22794001442E+01 -0.70366605527E+02  0.14471574646E+03  0.12508899351E+03 0.  0.
         23    2    1    2    0    0 -0.18404785729E+02  0.22794001442E+01 -0.17200097548E+03  0.19529782974E+03  0.90625465131E+02 0.  0.
          5    1    3    3  502    0  0.60543718632E+02  0.14773135633E+01 -0.80682849508E+02  0.10096989118E+03  0.41800000000E+01 0. -1.
         -5    1    3    3    0  502 -0.42138932903E+02 -0.37567137075E+01  0.10316243980E+02  0.43745855277E+02  0.41800000000E+01 0. -1.
        -11    1    4    4    0    0 -0.34963517795E+02  0.40324702925E+00 -0.17491903820E+03  0.17837959555E+03  0.00000000000E+00 0.  1.
         11    1    4    4    0    0  0.16558732065E+02  0.18761531150E+01  0.29180627113E+01  0.16918234190E+02  0.00000000000E+00 0. -1.
</event>
<event>
 8    1  0.6834011E-009  0.1657733E+03  0.7561462E-02  0.1182329E+00
         -2   -1    0    0    0  501 -0.00000000000E+00  0.00000000000E+00  0.27922381933E+03  0.27922381933E+03  0.00000000000E+00 0. -1.
          2   -1    0    0  501    0  0.00000000000E+00 -0.00000000000E+00 -0.12975027945E+03  0.12975027945E+03  0.00000000000E+00 0.  1.
         25    2    1    2    0    0  0.41846776169E+02  0.14896244768E+03  0.57462998367E+02  0.20710070773E+03  0.12509094078E+03 0.  0.
         23    2    1    2    0    0 -0.41846776169E+02 -0.14896244768E+03  0.92010541513E+02  0.20187339105E+03  0.91356241006E+02 0.  0.
          5    1    3    3  502    0  0.29195313227E+02  0.99013978315E+02 -0.28160122943E+02  0.10708220739E+03  0.41800000000E+01 0. -1.
         -5    1    3    3    0  502  0.12651462942E+02  0.49948469368E+02  0.85623121311E+02  0.10001850034E+03  0.41800000000E+01 0. -1.
        -11    1    4    4    0    0 -0.88703618700E+01 -0.14269654729E+03  0.88446382577E+02  0.16811826349E+03  0.00000000000E+00 0.  1.
         11    1    4    4    0    0 -0.32976414299E+02 -0.62659003890E+01  0.35641589365E+01  0.33755127560E+02  0.00000000000E+00 0. -1.
</event>
<event>
 8    1  0.6834011E-009  0.8936543E+02  0.7561462E-02  0.1304396E+00
          2   -1    0    0  501    0  0.00000000000E+00  0.00000000000E+00  0.29208432932E+02  0.29208432932E+02  0.00000000000E+00 0. -1.
         -2   -1    0    0    0  501 -0.00000000000E+00 -0.00000000000E+00 -0.48255205979E+03  0.48255205979E+03  0.00000000000E+00 0.  1.
         25    2    1    2    0    0  0.71245407377E+01 -0.33440320881E+02 -0.32281736434E+03  0.34788952785E+03  0.12508820379E+03 0.  0.
         23    2    1    2    0    0 -0.71245407377E+01  0.33440320881E+02 -0.13052626252E+03  0.16387096487E+03  0.92992331836E+02 0.  0.
          5    1    3    3  502    0 -0.14621922189E+02  0.34777844634E+02 -0.36262189842E+02  0.52494932117E+02  0.41800000000E+01 0. -1.
         -5    1    3    3    0  502  0.21746462926E+02 -0.68218165515E+02 -0.28655517450E+03  0.29539459573E+03  0.41800000000E+01 0. -1.
        -11    1    4    4    0    0 -0.33036639317E+02  0.26147821738E+02 -0.13030944150E+03  0.13695137335E+03  0.00000000000E+00 0.  1.
         11    1    4    4    0    0  0.25912098579E+02  0.72924991433E+01 -0.21682102201E+00  0.26919591525E+02  0.00000000000E+00 0. -1.
</event>
<event>
 8    1  0.6834011E-009  0.8952181E+02  0.7561462E-02  0.1304014E+00
          1   -1    0    0  501    0  0.00000000000E+00  0.00000000000E+00  0.11210262895E+03  0.11210262895E+03  0.00000000000E+00 0. -1.
         -1   -1    0    0    0  501 -0.00000000000E+00 -0.00000000000E+00 -0.12255752011E+03  0.12255752011E+03  0.00000000000E+00 0.  1.
         25    2    1    2    0    0  0.32686909328E+02  0.26738560406E+01  0.25695839544E+02  0.13184410416E+03  0.12508800136E+03 0.  0.
         23    2    1    2    0    0 -0.32686909328E+02 -0.26738560406E+01 -0.36150730705E+02  0.10281604489E+03  0.90491326710E+02 0.  0.
          5    1    3    3  502    0  0.29487097249E+02 -0.52886080729E+02 -0.15302783034E+02  0.62594520588E+02  0.41800000000E+01 0.  1.
         -5    1    3    3    0  502  0.31998120795E+01  0.55559936769E+02  0.40998622578E+02  0.69249583569E+02  0.41800000000E+01 0.  1.
        -11    1    4    4    0    0 -0.15674752996E+02 -0.27965555470E+02  0.20804262376E+02  0.38217633459E+02  0.00000000000E+00 0. -1.
         11    1    4    4    0    0 -0.17012156332E+02  0.25291699429E+02 -0.56954993081E+02  0.64598411435E+02  0.00000000000E+00 0.  1.
</event>
<event>
 8    1  0.6834011E-009  0.1180102E+03  0.7561462E-02  0.1246416E+00
          1   -1    0    0  501    0  0.00000000000E+00  0.00000000000E+00  0.39084738811E+03  0.39084738811E+03  0.00000000000E+00 0. -1.
         -1   -1    0    0    0  501 -0.00000000000E+00 -0.00000000000E+00 -0.54752750986E+02  0.54752750986E+02  0.00000000000E+00 0.  1.
         25    2    1    2    0    0 -0.73896561510E+02 -0.47279653923E+02  0.24093934094E+03  0.28529239813E+03  0.12507565287E+03 0.  0.
         23    2    1    2    0    0  0.73896561510E+02  0.47279653923E+02  0.95155296187E+02  0.16030774097E+03  0.94593730991E+02 0.  0.
          5    1    3    3  502    0 -0.61267476387E+02 -0.86152703226E+02  0.20506220732E+03  0.23074655622E+03  0.41800000000E+01 0. -1.
         -5    1    3    3    0  502 -0.12629085124E+02  0.38873049303E+02  0.35877133613E+02  0.54545841908E+02  0.41800000000E+01 0. -1.
        -11    1    4    4    0    0  0.25357622086E+02  0.25405141362E+02 -0.14262639841E+02  0.38624514246E+02  0.00000000000E+00 0.  1.
         11    1    4    4    0    0  0.48538939424E+02  0.21874512561E+02  0.10941793603E+03  0.12168322672E+03  0.00000000000E+00 0. -1.
</event>
<event>
 8    1  0.6834011E-009  0.3140726E+03  0.7561462E-02  0.1078410E+00
         -4   -1    0    0    0  501 -0.00000000000E+00  0.00000000000E+00  0.37098968095E+02  0.37098968095E+02  0.00000000000E+00 0.  1.
          4   -1    0    0  501    0  0.00000000000E+00 -0.00000000000E+00 -0.28476922791E+04  0.28476922791E+04  0.00000000000E+00 0. -1.
         25    2    1    2    0    0 -0.27044102554E+02 -0.30446985964E+03 -0.14862869435E+04  0.15225404708E+04  0.12508927980E+03 0.  0.
         23    2    1    2    0    0  0.27044102554E+02  0.30446985964E+03 -0.13243063676E+04  0.13622507765E+04  0.92230926698E+02 0.  0.
          5    1    3    3  502    0  0.24978645097E+02 -0.33745439612E+02 -0.91423348336E+02  0.10068956464E+03  0.41800000000E+01 0.  1.
         -5    1    3    3    0  502 -0.52022747651E+02 -0.27072442003E+03 -0.13948635951E+04  0.14218509061E+04  0.41800000000E+01 0.  1.
        -11    1    4    4    0    0  0.36319265812E+02  0.11614905626E+03 -0.37009807727E+03  0.38959245262E+03  0.00000000000E+00 0.  1.
         11    1    4    4    0    0 -0.92751632578E+01  0.18832080338E+03 -0.95420829031E+03  0.97265832384E+03  0.00000000000E+00 0. -1.
</event>
<event>
 8    1  0.6834011E-009  0.2108256E+03  0.7561462E-02  0.1140914E+00
         -2   -1    0    0    0  501 -0.00000000000E+00  0.00000000000E+00  0.59375546069E+02  0.59375546069E+02  0.00000000000E+00 0.  1.
          2   -1    0    0  501    0  0.00000000000E+00 -0.00000000000E+00 -0.76794510772E+03  0.76794510772E+03  0.00000000000E+00 0. -1.
         25    2    1    2    0    0 -0.17698318982E+03  0.40582737882E+02 -0.32189266577E+03  0.39016927387E+03  0.12508863219E+03 0.  0.
         23    2    1    2    0    0  0.17698318982E+03 -0.40582737882E+02 -0.38667689588E+03  0.43715137992E+03  0.92802473352E+02 0.  0.
          5    1    3    3  502    0 -0.10841899259E+03  0.84841786653E+02 -0.18329241457E+03  0.22927361025E+03  0.41800000000E+01 0. -1.
         -5    1    3    3    0  502 -0.68564197231E+02 -0.44259048771E+02 -0.13860025120E+03  0.16089566362E+03  0.41800000000E+01 0. -1.
        -11    1    4    4    0    0  0.51250059993E+02  0.28603528238E+02 -0.87877169822E+02  0.10567463013E+03  0.00000000000E+00 0. -1.
         11    1    4    4    0    0  0.12573312983E+03 -0.69186266120E+02 -0.29879972606E+03  0.33147674979E+03  0.00000000000E+00 0.  1.
</event>
<event>
 8    1  0.6834011E-009  0.1348899E+03  0.7561462E-02  0.1220375E+00
          2   -1    0    0  501    0  0.00000000000E+00  0.00000000000E+00  0.18789734584E+03  0.18789734584E+03  0.00000000000E+00 0. -1.
         -2   -1    0    0    0  501 -0.00000000000E+00 -0.00000000000E+00 -0.12842041848E+03  0.12842041848E+03  0.00000000000E+00 0.  1.
         25    2    1    2    0    0 -0.11084773946E+03  0.11163567086E+02  0.35904171601E+02  0.17131346102E+03  0.12508935133E+03 0.  0.
         23    2    1    2    0    0  0.11084773946E+03 -0.11163567086E+02  0.23572755758E+02  0.14500430329E+03  0.89770410422E+02 0.  0.
          5    1    3    3  502    0  0.94592754844E+01 -0.38632399940E+01 -0.30906487710E+02  0.32818986860E+02  0.41800000000E+01 0. -1.
         -5    1    3    3    0  502 -0.12030701494E+03  0.15026807080E+02  0.66810659311E+02  0.13849447416E+03  0.41800000000E+01 0. -1.
        -11    1    4    4    0    0  0.96373517030E+02  0.24071314409E+02 -0.15983424379E+01  0.99347056628E+02  0.00000000000E+00 0.  1.
         11    1    4    4    0    0  0.14474222426E+02 -0.35234881495E+02  0.25171098196E+02  0.45657246667E+02  0.00000000000E+00 0. -1.
</event>
<event>
 8    1  0.6834011E-009  0.1510201E+03  0.7561462E-02  0.1199225E+00
          2   -1    0    0  501    0  0.00000000000E+00  0.00000000000E+00  0.16646643924E+03  0.16646643924E+03  0.00000000000E+00 0. -1.
         -2   -1    0    0    0  501 -0.00000000000E+00 -0.00000000000E+00 -0.17247299640E+03  0.17247299640E+03  0.00000000000E+00 0.  1.
         25    2    1    2    0    0  0.11388241132E+03  0.34965415633E+02 -0.55302131200E+02  0.18137802941E+03  0.12509148628E+03 0.  0.
         23    2    1    2    0    0 -0.11388241132E+03 -0.34965415633E+02  0.49295574044E+02  0.15756140623E+03  0.90574605802E+02 0.  0.
          5    1    3    3  502    0 -0.15778494029E+02 -0.15559781383E+02  0.13292315712E+02  0.26176816603E+02  0.41800000000E+01 0.  1.
         -5    1    3    3    0  502  0.12966090535E+03  0.50525197015E+02 -0.68594446912E+02  0.15520121280E+03  0.41800000000E+01 0.  1.
        -11    1    4    4    0    0 -0.39955968361E+02  0.23200637733E+02 -0.87543988137E+01  0.47025402683E+02  0.00000000000E+00 0.  1.
         11    1    4    4    0    0 -0.73926442956E+02 -0.58166053365E+02  0.58049972858E+02  0.11053600355E+03  0.00000000000E+00 0. -1.
</event>
<event>
 8    1  0.6834011E-009  0.7280982E+02  0.7561462E-02  0.1350791E+00
         -1   -1    0    0    0  501 -0.00000000000E+00  0.00000000000E+00  0.10438055190E+03  0.10438055190E+03  0.00000000000E+00 0.  1.
          1   -1    0    0  501    0  0.00000000000E+00 -0.00000000000E+00 -0.13242998157E+03  0.13242998157E+03  0.00000000000E+00 0. -1.
         25    2    1    2    0    0  0.14042541641E+02  0.43714192664E+02 -0.95796364425E+01  0.13359762585E+03  0.12509369522E+03 0.  0.
         23    2    1    2    0    0 -0.14042541641E+02 -0.43714192664E+02 -0.18469793225E+02  0.10321290761E+03  0.90573988651E+02 0.  0.
          5    1    3    3  502    0 -0.32851193905E+02  0.19767534109E+02  0.43897385067E+02  0.58432945856E+02  0.41800000000E+01 0. -1.
         -5    1    3    3    0  502  0.46893735545E+02  0.23946658555E+02 -0.53477021510E+02  0.75164679996E+02  0.41800000000E+01 0. -1.
        -11    1    4    4    0    0  0.78286366400E+01 -0.22255854192E+02  0.34632545813E+02  0.41904937978E+02  0.00000000000E+00 0.  1.
         11    1    4    4    0    0 -0.21871178281E+02 -0.21458338472E+02 -0.53102339038E+02  0.61307969635E+02  0.00000000000E+00 0. -1.
</event>
<event>
 8    1  0.6834011E-009  0.1588710E+03  0.7561462E-02  0.1189977E+00
          2   -1    0    0  501    0  0.00000000000E+00  0.00000000000E+00  0.30695820861E+03  0.30695820861E+03  0.00000000000E+00 0. -1.
         -2   -1    0    0    0  501 -0.00000000000E+00 -0.00000000000E+00 -0.98319319926E+02  0.98319319926E+02  0.00000000000E+00 0.  1.
         25    2    1    2    0    0  0.12572968569E+03 -0.10092030051E+02  0.17172018478E+03  0.24707263180E+03  0.12508901066E+03 0.  0.
         23    2    1    2    0    0 -0.12572968569E+03  0.10092030051E+02  0.36918703904E+02  0.15820489674E+03  0.88068131115E+02 0.  0.
          5    1    3    3  502    0  0.80506720974E+02 -0.60852791482E+02  0.63834613229E+02  0.11948524846E+03  0.41800000000E+01 0. -1.
         -5    1    3    3    0  502  0.45222964718E+02  0.50760761432E+02  0.10788557155E+03  0.12758738334E+03  0.41800000000E+01 0. -1.
        -11    1    4    4    0    0 -0.98182996160E+02 -0.27555340765E+02  0.58248477849E+01  0.10214267664E+03  0.00000000000E+00 0.  1.
         11    1    4    4    0    0 -0.27546689533E+02  0.37647370816E+02  0.31093856119E+02  0.56062220094E+02  0.00000000000E+00 0. -1.
</event>
<event>
 8    1  0.6834011E-009  0.1098198E+03  0.7561462E-02  0.1260904E+00
         -1   -1    0    0    0  501 -0.00000000000E+00  0.00000000000E+00  0.37256138507E+03  0.37256138507E+03  0.00000000000E+00 0.  1.
          1   -1    0    0  501    0  0.00000000000E+00 -0.00000000000E+00 -0.63440372785E+02  0.63440372785E+02  0.00000000000E+00 0. -1.
         25    2    1    2    0    0  0.22793853568E+02 -0.98829166070E+02  0.11008738801E+03  0.19507340083E+03  0.12509050678E+03 0.  0.
         23    2    1    2    0    0 -0.22793853568E+02  0.98829166070E+02  0.19903362428E+03  0.24092835703E+03  0.90251458715E+02 0.  0.
          5    1    3    3  502    0 -0.46751091258E+01  0.60719559888E+01  0.82690527148E+02  0.83149990829E+02  0.41800000000E+01 0.  1.
         -5    1    3    3    0  502  0.27468962694E+02 -0.10490112206E+03  0.27396860857E+02  0.11192341000E+03  0.41800000000E+01 0.  1.
        -11    1    4    4    0    0 -0.49576083897E+01  0.52730845564E+02  0.22393684800E+02  0.57503017953E+02  0.00000000000E+00 0. -1.
         11    1    4    4    0    0 -0.17836245178E+02  0.46098320506E+02  0.17663993948E+03  0.18342533908E+03  0.00000000000E+00 0.  1.
</event>
<event>
 8    1  0.6834011E-009  0.1057690E+03  0.7561462E-02  0.1268612E+00
          2   -1    0    0  501    0  0.00000000000E+00  0.00000000000E+00  0.56465577904E+02  0.56465577904E+02  0.00000000000E+00 0. -1.
         -2   -1    0    0    0  501 -0.00000000000E+00 -0.00000000000E+00 -0.38372490482E+03  0.38372490482E+03  0.00000000000E+00 0.  1.
         25    2    1    2    0    0  0.11411276888E+02  0.81165875564E+02 -0.27068875172E+03  0.30925070185E+03  0.12508189193E+03 0.  0.
         23    2    1    2    0    0 -0.11411276888E+02 -0.81165875564E+02 -0.56570575194E+02  0.13093978088E+03  0.85011055999E+02 0.  0.
          5    1    3    3  502    0 -0.41451568668E+02  0.54539118692E+02 -0.22239613369E+03  0.23274505514E+03  0.41800000000E+01 0. -1.
         -5    1    3    3    0  502  0.52862845555E+02  0.26626756871E+02 -0.48292618035E+02  0.76505646709E+02  0.41800000000E+01 0. -1.
        -11    1    4    4    0    0 -0.28355727139E+01 -0.66645969861E+02 -0.78668242659E+02  0.10314270781E+03  0.00000000000E+00 0.  1.
         11    1    4    4    0    0 -0.85757041737E+01 -0.14519905703E+02  0.22097667465E+02  0.27797073067E+02  0.00000000000E+00 0. -1.
</event>
<event>
 8    1  0.6834011E-009  0.7326766E+02  0.7561462E-02  0.1349321E+00
         -1   -1    0    0    0  501 -0.00000000000E+00  0.00000000000E+00  0.53909455936E+02  0.53909455936E+02  0.00000000000E+00 0.  1.
          1   -1    0    0  501    0  0.00000000000E+00 -0.00000000000E+00 -0.40215076772E+03  0.40215076772E+03  0.00000000000E+00 0. -1.
         25    2    1    2    0    0  0.13813551293E+02  0.21879901741E+02 -0.33760435164E+03  0.36096258549E+03  0.12509094921E+03 0.  0.
         23    2    1    2    0    0 -0.13813551293E+02 -0.21879901741E+02 -0.10636960141E+02  0.95097638169E+02  0.90889336914E+02 0.  0.
          5    1    3    3  502    0 -0.47346017612E+01  0.56300220226E+02 -0.30400985439E+03  0.30924358558E+03  0.41800000000E+01 0.  1.
         -5    1    3    3    0  502  0.18548153054E+02 -0.34420318485E+02 -0.33594497247E+02  0.51718999909E+02  0.41800000000E+01 0.  1.
        -11    1    4    4    0    0 -0.28826458868E+02 -0.75351818459E+01 -0.45577821798E+02  0.54452562255E+02  0.00000000000E+00 0. -1.
         11    1    4    4    0    0  0.15012907575E+02 -0.14344719895E+02  0.34940861656E+02  0.40645075914E+02  0.00000000000E+00 0.  1.
</event>
<event>
 8    1  0.6834011E-009  0.1707387E+03  0.7561462E-02  0.1177080E+00
         -2   -1    0    0    0  501 -0.00000000000E+00  0.00000000000E+00  0.38013896048E+02  0.38013896048E+02  0.00000000000E+00 0.  1.
          2   -1    0    0  501    0  0.00000000000E+00 -0.00000000000E+00 -0.91182672786E+03  0.91182672786E+03  0.00000000000E+00 0. -1.
         25    2    1    2    0    0 -0.72630680238E+02  0.10955640958E+03 -0.27131536392E+03  0.32639912201E+03  0.12508612057E+03 0.  0.
         23    2    1    2    0    0  0.72630680238E+02 -0.10955640958E+03 -0.60249746789E+03  0.62344150190E+03  0.91642156657E+02 0.  0.
          5    1    3    3  502    0 -0.22360411526E+02 -0.27333540407E+02 -0.53668155533E+02  0.64380538621E+02  0.41800000000E+01 0.  1.
         -5    1    3    3    0  502 -0.50270268712E+02  0.13688994999E+03 -0.21764720839E+03  0.26201858339E+03  0.41800000000E+01 0.  1.
        -11    1    4    4    0    0  0.18704809575E+02 -0.10416739608E+03 -0.41329721466E+03  0.42663251629E+03  0.00000000000E+00 0.  1.
         11    1    4    4    0    0  0.53925870662E+02 -0.53890135016E+01 -0.18920025324E+03  0.19680898561E+03  0.00000000000E+00 0. -1.
</event>
<event>
 8    1  0.6834011E-009  0.6313829E+02  0.7561462E-02  0.1385115E+00
          1   -1    0    0  501    0  0.00000000000E+00  0.00000000000E+00  0.51167915418E+03  0.51167915418E+03  0.00000000000E+00 0.  1.
         -1   -1    0    0    0  501 -0.00000000000E+00 -0.00000000000E+00 -0.28878366508E+02  0.28878366508E+02  0.00000000000E+00 0. -1.
         25    2    1    2    0    0  0.18478910078E+01 -0.43452901026E+02  0.28252415026E+03  0.31202333081E+03  0.12508834552E+03 0.  0.
         23    2    1    2    0    0 -0.18478910078E+01  0.43452901026E+02  0.20027663742E+03  0.22853418988E+03  0.10112158592E+03 0.  0.
          5    1    3    3  502    0  0.23155402867E+01 -0.34073020964E+02  0.29435003941E+03  0.29635409662E+03  0.41800000000E+01 0. -1.
         -5    1    3    3    0  502 -0.46764927889E+00 -0.93798800619E+01 -0.11825889155E+02  0.15669234191E+02  0.41800000000E+01 0. -1.
        -11    1    4    4    0    0  0.33209862336E+02  0.27299174706E+02  0.17974210990E+03  0.18481170408E+03  0.00000000000E+00 0.  1.
         11    1    4    4    0    0 -0.35057753343E+02  0.16153726320E+02  0.20534527522E+02  0.43722485795E+02  0.00000000000E+00 0. -1.
</event>
<event>
 8    1  0.6834011E-009  0.1352901E+03  0.7561462E-02  0.1219811E+00
          2   -1    0    0  501    0  0.00000000000E+00  0.00000000000E+00  0.14591594517E+04  0.14591594517E+04  0.00000000000E+00 0. -1.
         -2   -1    0    0    0  501 -0.00000000000E+00 -0.00000000000E+00 -0.15228369147E+02  0.15228369147E+02  0.00000000000E+00 0.  1.
         25    2    1    2    0    0  0.81979765929E+02 -0.51467796297E+02  0.95906700905E+03  0.97202214298E+03  0.12509157651E+03 0.  0.
         23    2    1    2    0    0 -0.81979765929E+02  0.51467796297E+02  0.48486407352E+03  0.50236567788E+03  0.88929682619E+02 0.  0.
          5    1    3    3  502    0  0.88652418766E+02  0.13622220010E+02  0.46147375585E+03  0.47012797829E+03  0.41800000000E+01 0. -1.
         -5    1    3    3    0  502 -0.66726528374E+01 -0.65090016307E+02  0.49759325320E+03  0.50189416469E+03  0.41800000000E+01 0. -1.
        -11    1    4    4    0    0 -0.46531445489E+02 -0.67962003259E+01  0.88900633633E+02  0.10057179733E+03  0.00000000000E+00 0.  1.
         11    1    4    4    0    0 -0.35448320440E+02  0.58263996623E+02  0.39596343989E+03  0.40179388055E+03  0.00000000000E+00 0. -1.
</event>
<event>
 8    1  0.6834011E-009  0.1268803E+03  0.7561462E-02  0.1232160E+00
         -1   -1    0    0    0  501 -0.00000000000E+00  0.00000000000E+00  0.22423080795E+02  0.22423080795E+02  0.00000000000E+00 0.  1.
          1   -1    0    0  501    0  0.00000000000E+00 -0.00000000000E+00 -0.95254250272E+03  0.95254250272E+03  0.00000000000E+00 0. -1.
         25    2    1    2    0    0  0.36064431734E+02 -0.84528353337E+02 -0.62028750948E+03  0.63941333124E+03  0.12508848064E+03 0.  0.
         23    2    1    2    0    0 -0.36064431734E+02  0.84528353337E+02 -0.30983191244E+03  0.33555225228E+03  0.90298473335E+02 0.  0.
          5    1    3    3  502    0 -0.23487656558E+02 -0.72578870509E+02 -0.18912114131E+03  0.20396970595E+03  0.41800000000E+01 0.  1.
         -5    1    3    3    0  502  0.59552088292E+02 -0.11949482828E+02 -0.43116636818E+03  0.43544362529E+03  0.41800000000E+01 0.  1.
        -11    1    4    4    0    0  0.18982625680E+02  0.44610822242E+02 -0.62821758242E+02  0.79353883631E+02  0.00000000000E+00 0. -1.
         11    1    4    4    0    0 -0.55047057414E+02  0.39917531095E+02 -0.24701015420E+03  0.25619836865E+03  0.00000000000E+00 0.  1.
</event>
<event>
 8    1  0.6834011E-009  0.1924955E+03  0.7561462E-02  0.1156230E+00
         -1   -1    0    0    0  501 -0.00000000000E+00  0.00000000000E+00  0.17190501709E+03  0.17190501709E+03  0.00000000000E+00 0.  1.
          1   -1    0    0  501    0  0.00000000000E+00 -0.00000000000E+00 -0.46227026562E+03  0.46227026562E+03  0.00000000000E+00 0. -1.
         25    2    1    2    0    0  0.18765288897E+03 -0.33391369222E+02 -0.34662911589E+03  0.41488427722E+03  0.12509448120E+03 0.  0.
         23    2    1    2    0    0 -0.18765288897E+03  0.33391369222E+02  0.56263867354E+02  0.21929100550E+03  0.92705620364E+02 0.  0.
          5    1    3    3  502    0  0.29277194018E+02 -0.96078305738E+01 -0.18396285992E+03  0.18657242757E+03  0.41800000000E+01 0.  1.
         -5    1    3    3    0  502  0.15837569495E+03 -0.23783538648E+02 -0.16266625597E+03  0.22831184965E+03  0.41800000000E+01 0.  1.
        -11    1    4    4    0    0 -0.12542698489E+03  0.38635740520E+02 -0.56364293448E+01  0.13136368722E+03  0.00000000000E+00 0. -1.
         11    1    4    4    0    0 -0.62225904077E+02 -0.52443712981E+01  0.61900296698E+02  0.87927318280E+02  0.00000000000E+00 0.  1.
</event>
<event>
 8    1  0.6834011E-009  0.1018515E+03  0.7561462E-02  0.1276450E+00
         -1   -1    0    0    0  501 -0.00000000000E+00  0.00000000000E+00  0.99359413717E+02  0.99359413717E+02  0.00000000000E+00 0.  1.
          1   -1    0    0  501    0  0.00000000000E+00 -0.00000000000E+00 -0.22415212509E+03  0.22415212509E+03  0.00000000000E+00 0. -1.
         25    2    1    2    0    0 -0.98585586346E+01  0.17679014896E+02 -0.17999221360E+03  0.22012411789E+03  0.12509073336E+03 0.  0.
         23    2    1    2    0    0  0.98585586346E+01 -0.17679014896E+02  0.55199502232E+02  0.10338742092E+03  0.85042548240E+02 0.  0.
          5    1    3    3  502    0  0.19013117428E+02  0.66663118050E+02 -0.91830645169E+02  0.11513387744E+03  0.41800000000E+01 0.  1.
         -5    1    3    3    0  502 -0.28871676063E+02 -0.48984103155E+02 -0.88161568436E+02  0.10499024045E+03  0.41800000000E+01 0.  1.
        -11    1    4    4    0    0  0.37167551820E+02 -0.29532397675E+02  0.56242084892E+02  0.73598651712E+02  0.00000000000E+00 0.  1.
         11    1    4    4    0    0 -0.27308993185E+02  0.11853382780E+02 -0.10425826602E+01  0.29788769205E+02  0.00000000000E+00 0. -1.
</event>
<event>
 8    1  0.6834011E-009  0.2032283E+03  0.7561462E-02  0.1147044E+00
          2   -1    0    0  501    0  0.00000000000E+00  0.00000000000E+00  0.17254004341E+04  0.17254004341E+04  0.00000000000E+00 0. -1.
         -2   -1    0    0    0  501 -0.00000000000E+00 -0.00000000000E+00 -0.35581627689E+02  0.35581627689E+02  0.00000000000E+00 0.  1.
         25    2    1    2    0    0 -0.16676527330E+03 -0.70998252985E+02  0.13286046165E+04  0.13467328657E+04  0.12509107161E+03 0.  0.
         23    2    1    2    0    0  0.16676527330E+03  0.70998252985E+02  0.36121418983E+03  0.41424919603E+03  0.90968660390E+02 0.  0.
          5    1    3    3  502    0 -0.85166616189E+02  0.24254641175E+02  0.40132935384E+03  0.41100409096E+03  0.41800000000E+01 0.  1.
         -5    1    3    3    0  502 -0.81598657115E+02 -0.95252894160E+02  0.92727526269E+03  0.93572877475E+03  0.41800000000E+01 0.  1.
        -11    1    4    4    0    0  0.45773984851E+02  0.52929734582E+02  0.19990595912E+03  0.21179992205E+03  0.00000000000E+00 0. -1.
         11    1    4    4    0    0  0.12099128845E+03  0.18068518403E+02  0.16130823071E+03  0.20244927398E+03  0.00000000000E+00 0.  1.
</event>
<event>
 8    1  0.6834011E-009  0.1122063E+03  0.7561462E-02  0.1256538E+00
          2   -1    0    0  501    0  0.00000000000E+00  0.00000000000E+00  0.95849090852E+03  0.95849090852E+03  0.00000000000E+00 0. -1.
         -2   -1    0    0    0  501 -0.00000000000E+00 -0.00000000000E+00 -0.19608089831E+02  0.19608089831E+02  0.00000000000E+00 0.  1.
         25    2    1    2    0    0  0.67569886435E+02  0.45239778846E+02  0.56750764005E+03  0.58679170409E+03  0.12508898962E+03 0.  0.
         23    2    1    2    0    0 -0.67569886435E+02 -0.45239778846E+02  0.37137517864E+03  0.39130729427E+03  0.92679814927E+02 0.  0.
          5    1    3    3  502    0  0.68838644054E+02  0.66356371335E+02  0.23718206449E+03  0.25576303691E+03  0.41800000000E+01 0. -1.
         -5    1    3    3    0  502 -0.12687576189E+01 -0.21116592489E+02  0.33032557556E+03  0.33102866718E+03  0.41800000000E+01 0. -1.
        -11    1    4    4    0    0 -0.21759276284E+02 -0.56006794367E+02  0.29900570694E+03  0.30498301576E+03  0.00000000000E+00 0. -1.
         11    1    4    4    0    0 -0.45810610151E+02  0.10767015522E+02  0.72369471696E+02  0.86324278504E+02  0.00000000000E+00 0.  1.
</event>
<event>
 8    1  0.6834011E-009  0.1454603E+03  0.7561462E-02  0.1206165E+00
          1   -1    0    0  501    0  0.00000000000E+00  0.00000000000E+00  0.21235499102E+03  0.21235499102E+03  0.00000000000E+00 0. -1.
         -1   -1    0    0    0  501 -0.00000000000E+00 -0.00000000000E+00 -0.17537140202E+03  0.17537140202E+03  0.00000000000E+00 0.  1.
         25    2    1    2    0    0  0.12613850995E+03 -0.54480537225E+02 -0.62552373676E+02  0.19606604412E+03  0.12510012620E+03 0.  0.
         23    2    1    2    0    0 -0.12613850995E+03  0.54480537225E+02  0.99535962678E+02  0.19166034893E+03  0.89147231345E+02 0.  0.
          5    1    3    3  502    0  0.11508498662E+03 -0.49542916073E+02 -0.97518474261E+02  0.15882814580E+03  0.41800000000E+01 0.  1.
         -5    1    3    3    0  502  0.11053523331E+02 -0.49376211520E+01  0.34966100585E+02  0.37237898313E+02  0.41800000000E+01 0.  1.
        -11    1    4    4    0    0 -0.21166047044E+02  0.42005009757E+02  0.84952635477E+00  0.47044065377E+02  0.00000000000E+00 0.  1.
         11    1    4    4    0    0 -0.10497246290E+03  0.12475527468E+02  0.98686436323E+02  0.14461628355E+03  0.00000000000E+00 0. -1.
</event>
<event>
 8    1  0.6834011E-009  0.1317132E+03  0.7561462E-02  0.1224936E+00
         -1   -1    0    0    0  501 -0.00000000000E+00  0.00000000000E+00  0.11094036863E+03  0.11094036863E+03  0.00000000000E+00 0.  1.
          1   -1    0    0  501    0  0.00000000000E+00 -0.00000000000E+00 -0.21697852530E+03  0.21697852530E+03  0.00000000000E+00 0. -1.
         25    2    1    2    0    0 -0.41254839943E+02 -0.97548965209E+02 -0.88925706762E+02  0.18647542445E+03  0.12509012818E+03 0.  0.
         23    2    1    2    0    0  0.41254839943E+02  0.97548965209E+02 -0.17112449909E+02  0.14144346948E+03  0.92171886632E+02 0.  0.
          5    1    3    3  502    0  0.29707888052E+02  0.54473705804E+01  0.37915474649E+01  0.30725896096E+02  0.41800000000E+01 0.  1.
         -5    1    3    3    0  502 -0.70962727995E+02 -0.10299633579E+03 -0.92717254226E+02  0.15574952835E+03  0.41800000000E+01 0.  1.
        -11    1    4    4    0    0  0.23904417888E+02  0.31755884985E+02 -0.51621071808E+02  0.65150537069E+02  0.00000000000E+00 0. -1.
         11    1    4    4    0    0  0.17350422056E+02  0.65793080224E+02  0.34508621899E+02  0.76292932414E+02  0.00000000000E+00 0.  1.
</event>
<event>
 8    1  0.6834011E-009  0.1276169E+03  0.7561462E-02  0.1231035E+00
          2   -1    0    0  501    0  0.00000000000E+00  0.00000000000E+00  0.52012713651E+03  0.52012713651E+03  0.00000000000E+00 0.  1.
         -2   -1    0    0    0  501 -0.00000000000E+00 -0.00000000000E+00 -0.49337292061E+02  0.49337292061E+02  0.00000000000E+00 0. -1.
         25    2    1    2    0    0  0.10895258673E+03 -0.27440078865E+02  0.18557157022E+03  0.25041594330E+03  0.12509081861E+03 0.  0.
         23    2    1    2    0    0 -0.10895258673E+03  0.27440078865E+02  0.28521827423E+03  0.31904848527E+03  0.88424249597E+02 0.  0.
          5    1    3    3  502    0  0.10792437146E+03 -0.49060495684E+02  0.81232317210E+02  0.14377330751E+03  0.41800000000E+01 0.  1.
         -5    1    3    3    0  502  0.10282152658E+01  0.21620416819E+02  0.10433925301E+03  0.10664263579E+03  0.41800000000E+01 0.  1.
        -11    1    4    4    0    0 -0.76270962100E+02  0.29593215255E+02  0.27146650757E+03  0.28352615890E+03  0.00000000000E+00 0.  1.
         11    1    4    4    0    0 -0.32681624629E+02 -0.21531363899E+01  0.13751766663E+02  0.35522326375E+02  0.00000000000E+00 0. -1.
</event>
<event>
 8    1  0.6834011E-009  0.1185341E+03  0.7561462E-02  0.1245535E+00
         -3   -1    0    0    0  501 -0.00000000000E+00  0.00000000000E+00  0.40027211045E+02  0.40027211045E+02  0.00000000000E+00 0.  1.
          3   -1    0    0  501    0  0.00000000000E+00 -0.00000000000E+00 -0.39821278856E+03  0.39821278856E+03  0.00000000000E+00 0. -1.
         25    2    1    2    0    0 -0.15948087211E+02  0.61522495022E+02 -0.22735129289E+03  0.26716252836E+03  0.12509135583E+03 0.  0.
         23    2    1    2    0    0  0.15948087211E+02 -0.61522495022E+02 -0.13083428463E+03  0.17107747124E+03  0.90058493514E+02 0.  0.
          5    1    3    3  502    0  0.26802775260E+02  0.86423855465E+02 -0.15111307809E+03  0.17618202611E+03  0.41800000000E+01 0. -1.
         -5    1    3    3    0  502 -0.42750862471E+02 -0.24901360443E+02 -0.76238214802E+02  0.90980502253E+02  0.41800000000E+01 0. -1.
        -11    1    4    4    0    0 -0.29402722137E+02 -0.22910755405E+02 -0.93815516638E+02  0.10094936327E+03  0.00000000000E+00 0.  1.
         11    1    4    4    0    0  0.45350809348E+02 -0.38611739617E+02 -0.37018767989E+02  0.70128107976E+02  0.00000000000E+00 0. -1.
</event>
<event>
 8    1  0.6834011E-009  0.1197871E+03  0.7561462E-02  0.1243449E+00
         -1   -1    0    0    0  501 -0.00000000000E+00  0.00000000000E+00  0.19378460047E+02  0.19378460047E+02  0.00000000000E+00 0.  1.
          1   -1    0    0  501    0  0.00000000000E+00 -0.00000000000E+00 -0.11545380441E+04  0.11545380441E+04  0.00000000000E+00 0. -1.
         25    2    1    2    0    0 -0.35700654136E+02 -0.68602989909E+02 -0.87466146001E+03  0.88693955656E+03  0.12509276732E+03 0.  0.
         23    2    1    2    0    0  0.35700654136E+02  0.68602989909E+02 -0.26049812405E+03  0.28697694759E+03  0.92279948453E+02 0.  0.
          5    1    3    3  502    0  0.27540380760E+02 -0.50384712587E+02 -0.17609665193E+03  0.18526898029E+03  0.41800000000E+01 0. -1.
         -5    1    3    3    0  502 -0.63241034896E+02 -0.18218277322E+02 -0.69856480808E+03  0.70167057628E+03  0.41800000000E+01 0. -1.
        -11    1    4    4    0    0  0.46930441596E+02  0.39693929817E+00 -0.69563376863E+02  0.83914762168E+02  0.00000000000E+00 0.  1.
         11    1    4    4    0    0 -0.11229787460E+02  0.68206050611E+02 -0.19093474719E+03  0.20306218543E+03  0.00000000000E+00 0. -1.
</event>
<event>
 8    1  0.6834011E-009  0.2982747E+03  0.7561462E-02  0.1086106E+00
          2   -1    0    0  501    0  0.00000000000E+00  0.00000000000E+00  0.56533217414E+03  0.56533217414E+03  0.00000000000E+00 0. -1.
         -2   -1    0    0    0  501 -0.00000000000E+00 -0.00000000000E+00 -0.17628877935E+03  0.17628877935E+03  0.00000000000E+00 0.  1.
         25    2    1    2    0    0 -0.10991717445E+02 -0.28732974866E+03  0.11889810866E+03  0.33535182838E+03  0.12507951966E+03 0.  0.
         23    2    1    2    0    0  0.10991717445E+02  0.28732974866E+03  0.27014528613E+03  0.40626912511E+03  0.96937733014E+02 0.  0.
          5    1    3    3  502    0 -0.11258833852E+02 -0.29450051367E+03  0.12945390381E+03  0.32192095226E+03  0.41800000000E+01 0. -1.
         -5    1    3    3    0  502  0.26711640664E+00  0.71707650134E+01 -0.10555795151E+02  0.13430876119E+02  0.41800000000E+01 0. -1.
        -11    1    4    4    0    0 -0.21893213978E+02  0.17771207057E+03  0.21327754695E+03  0.27847478320E+03  0.00000000000E+00 0. -1.
         11    1    4    4    0    0  0.32884931422E+02  0.10961767809E+03  0.56867739173E+02  0.12779434191E+03  0.00000000000E+00 0.  1.
</event>
<event>
 8    1  0.6834011E-009  0.1062371E+03  0.7561462E-02  0.1267701E+00
         -3   -1    0    0    0  501 -0.00000000000E+00  0.00000000000E+00  0.15392805483E+03  0.15392805483E+03  0.00000000000E+00 0.  1.
          3   -1    0    0  501    0  0.00000000000E+00 -0.00000000000E+00 -0.13830891671E+03  0.13830891671E+03  0.00000000000E+00 0. -1.
         25    2    1    2    0    0 -0.74971911198E+02  0.47610105301E+02  0.50060552900E+02  0.16137246453E+03  0.12508998263E+03 0.  0.
         23    2    1    2    0    0  0.74971911198E+02 -0.47610105301E+02 -0.34441414779E+02  0.13086450700E+03  0.89731814570E+02 0.  0.
          5    1    3    3  502    0 -0.12389972314E+02  0.40400556855E+02 -0.35286665861E+02  0.55211752333E+02  0.41800000000E+01 0.  1.
         -5    1    3    3    0  502 -0.62581938885E+02  0.72095484460E+01  0.85347218761E+02  0.10616071219E+03  0.41800000000E+01 0.  1.
        -11    1    4    4    0    0  0.25031235011E+02  0.13109948574E+02  0.20534940365E+02  0.34930176833E+02  0.00000000000E+00 0.  1.
         11    1    4    4    0    0  0.49940676187E+02 -0.60720053874E+02 -0.54976355144E+02  0.95934330172E+02  0.00000000000E+00 0. -1.
</event>
<event>
 8    1  0.6834011E-009  0.1216272E+03  0.7561462E-02  0.1240437E+00
         -1   -1    0    0    0  501 -0.00000000000E+00  0.00000000000E+00  0.40458397635E+02  0.40458397635E+02  0.00000000000E+00 0.  1.
          1   -1    0    0  501    0  0.00000000000E+00 -0.00000000000E+00 -0.37108761964E+03  0.37108761964E+03  0.00000000000E+00 0. -1.
         25    2    1    2    0    0 -0.47557213618E+02 -0.26338660868E+02 -0.20900321510E+03  0.24957070142E+03  0.12509107668E+03 0.  0.
         23    2    1    2    0    0  0.47557213618E+02  0.26338660868E+02 -0.12162600690E+03  0.16197531585E+03  0.92128734739E+02 0.  0.
          5    1    3    3  502    0  0.25579923804E+02  0.33109040319E+02 -0.63661154038E+02  0.76293879087E+02  0.41800000000E+01 0.  1.
         -5    1    3    3    0  502 -0.73137137423E+02 -0.59447701187E+02 -0.14534206106E+03  0.17327682234E+03  0.41800000000E+01 0.  1.
        -11    1    4    4    0    0  0.53073242175E+02  0.55730598134E+02 -0.90811645462E+02  0.11903538783E+03  0.00000000000E+00 0. -1.
         11    1    4    4    0    0 -0.55160285561E+01 -0.29391937266E+02 -0.30814361442E+02  0.42939928020E+02  0.00000000000E+00 0.  1.
</event>
<event>
 8    1  0.6834011E-009  0.1095014E+03  0.7561462E-02  0.1261496E+00
         -1   -1    0    0    0  501 -0.00000000000E+00  0.00000000000E+00  0.26648123327E+02  0.26648123327E+02  0.00000000000E+00 0.  1.
          1   -1    0    0  501    0  0.00000000000E+00 -0.00000000000E+00 -0.65128079489E+03  0.65128079489E+03  0.00000000000E+00 0. -1.
         25    2    1    2    0    0 -0.72889473376E+02 -0.10182130271E+02 -0.35647398300E+03  0.38488513734E+03  0.12508524005E+03 0.  0.
         23    2    1    2    0    0  0.72889473376E+02  0.10182130271E+02 -0.26815868856E+03  0.29304378088E+03  0.92460933134E+02 0.  0.
          5    1    3    3  502    0  0.11460400207E+02 -0.15410442125E+02 -0.12188427968E+01  0.19692142523E+02  0.41800000000E+01 0. -1.
         -5    1    3    3    0  502 -0.84349873583E+02  0.52283118542E+01 -0.35525514021E+03  0.36519299482E+03  0.41800000000E+01 0. -1.
        -11    1    4    4    0    0  0.47817929822E+02  0.49036762760E+02 -0.19306944274E+03  0.20485841021E+03  0.00000000000E+00 0. -1.
         11    1    4    4    0    0  0.25071543554E+02 -0.38854632489E+02 -0.75089245819E+02  0.88185370667E+02  0.00000000000E+00 0.  1.
</event>
<event>
 8    1  0.6834011E-009  0.9934071E+02  0.7561462E-02  0.1281688E+00
         -3   -1    0    0    0  501 -0.00000000000E+00  0.00000000000E+00  0.30014405456E+02  0.30014405456E+02  0.00000000000E+00 0.  1.
          3   -1    0    0  501    0  0.00000000000E+00 -0.00000000000E+00 -0.87183877863E+03  0.87183877863E+03  0.00000000000E+00 0. -1.
         25    2    1    2    0    0 -0.19086617889E+02  0.33945661691E+02 -0.76681010311E+03  0.77792276330E+03  0.12509789965E+03 0.  0.
         23    2    1    2    0    0  0.19086617889E+02 -0.33945661691E+02 -0.75014270061E+02  0.12393042078E+03  0.90636645751E+02 0.  0.
          5    1    3    3  502    0 -0.59709759283E+02  0.42487786799E+01 -0.19844354791E+03  0.20731768275E+03  0.41800000000E+01 0. -1.
         -5    1    3    3    0  502  0.40623141394E+02  0.29696883012E+02 -0.56836655520E+03  0.57060508055E+03  0.41800000000E+01 0. -1.
        -11    1    4    4    0    0  0.33248589469E+02 -0.54129032655E+02 -0.25186056510E+02  0.68335629948E+02  0.00000000000E+00 0.  1.
         11    1    4    4    0    0 -0.14161971581E+02  0.20183370964E+02 -0.49828213550E+02  0.55594790836E+02  0.00000000000E+00 0. -1.
</event>
<event>
 8    1  0.6834011E-009  0.1126272E+03  0.7561462E-02  0.1255781E+00
         -1   -1    0    0    0  501 -0.00000000000E+00  0.00000000000E+00  0.59537851404E+03  0.59537851404E+03  0.00000000000E+00 0.  1.
          1   -1    0    0  501    0  0.00000000000E+00 -0.00000000000E+00 -0.35749411273E+02  0.35749411273E+02  0.00000000000E+00 0. -1.
         25    2    1    2    0    0 -0.15724959133E+02 -0.78919688632E+02  0.42574932482E+03  0.45098216687E+03  0.12508731213E+03 0.  0.
         23    2    1    2    0    0  0.15724959133E+02  0.78919688632E+02  0.13387977794E+03  0.18014575844E+03  0.89739109358E+02 0.  0.
          5    1    3    3  502    0 -0.13663828601E+02 -0.97682137610E+02  0.18706901613E+03  0.21152018678E+03  0.41800000000E+01 0.  1.
         -5    1    3    3    0  502 -0.20611305322E+01  0.18762448979E+02  0.23868030870E+03  0.23946198009E+03  0.41800000000E+01 0.  1.
        -11    1    4    4    0    0 -0.23362197258E+02  0.58730978353E+02  0.35775914185E+02  0.72629443856E+02  0.00000000000E+00 0. -1.
         11    1    4    4    0    0  0.39087156391E+02  0.20188710278E+02  0.98103863759E+02  0.10751631458E+03  0.00000000000E+00 0.  1.
</event>
<event>
 8    1  0.6834011E-009  0.1151600E+03  0.7561462E-02  0.1251302E+00
          1   -1    0    0  501    0  0.00000000000E+00  0.00000000000E+00  0.43302854628E+03  0.43302854628E+03  0.00000000000E+00 0. -1.
         -1   -1    0    0    0  501 -0.00000000000E+00 -0.00000000000E+00 -0.44152567472E+02  0.44152567472E+02  0.00000000000E+00 0.  1.
         25    2    1    2    0    0 -0.82343592184E+02  0.20150871557E+02  0.21315402044E+03  0.26128246827E+03  0.12508943600E+03 0.  0.
         23    2    1    2    0    0  0.82343592184E+02 -0.20150871557E+02  0.17572195837E+03  0.21589864548E+03  0.92452656368E+02 0.  0.
          5    1    3    3  502    0  0.28062350643E+02 -0.76219886870E+01  0.15671675901E+02  0.33296607345E+02  0.41800000000E+01 0.  1.
         -5    1    3    3    0  502 -0.11040594283E+03  0.27772860244E+02  0.19748234454E+03  0.22798586093E+03  0.41800000000E+01 0.  1.
        -11    1    4    4    0    0  0.37326219837E+02  0.87012625424E+00  0.44911267900E+01  0.37605505274E+02  0.00000000000E+00 0.  1.
         11    1    4    4    0    0  0.45017372347E+02 -0.21020997811E+02  0.17123083158E+03  0.17829314021E+03  0.00000000000E+00 0. -1.
</event>
<event>
 8    1  0.6834011E-009  0.6689236E+02  0.7561462E-02  0.1370991E+00
          2   -1    0    0  501    0  0.00000000000E+00  0.00000000000E+00  0.26251151490E+03  0.26251151490E+03  0.00000000000E+00 0. -1.
         -2   -1    0    0    0  501 -0.00000000000E+00 -0.00000000000E+00 -0.50031291178E+02  0.50031291178E+02  0.00000000000E+00 0.  1.
         25    2    1    2    0    0  0.31857101688E+02 -0.14861495593E+02  0.12702562715E+03  0.18171087497E+03  0.12509033996E+03 0.  0.
         23    2    1    2    0    0 -0.31857101688E+02  0.14861495593E+02  0.85454596574E+02  0.13083193110E+03  0.92621634304E+02 0.  0.
          5    1    3    3  502    0 -0.18995973310E+02  0.15697927183E+02 -0.14005642350E+02  0.28651393291E+02  0.41800000000E+01 0.  1.
         -5    1    3    3    0  502  0.50853074998E+02 -0.30559422777E+02  0.14103126950E+03  0.15305948168E+03  0.41800000000E+01 0.  1.
        -11    1    4    4    0    0 -0.28992812960E+02  0.25306194303E+02  0.10314457357E+03  0.11008991657E+03  0.00000000000E+00 0. -1.
         11    1    4    4    0    0 -0.28642887276E+01 -0.10444698710E+02 -0.17689976992E+02  0.20742014537E+02  0.00000000000E+00 0.  1.
</event>
<event>
 8    1  0.6834011E-009  0.1168951E+03  0.7561462E-02  0.1248309E+00
          4   -1    0    0  501    0  0.00000000000E+00  0.00000000000E+00  0.55068653201E+03  0.55068653201E+03  0.00000000000E+00 0. -1.
         -4   -1    0    0    0  501 -0.00000000000E+00 -0.00000000000E+00 -0.46844696767E+02  0.46844696767E+02  0.00000000000E+00 0.  1.
         25    2    1    2    0    0 -0.42520586556E+02  0.75804589316E+02  0.41775010596E+03  0.44465446080E+03  0.12509237562E+03 0.  0.
         23    2    1    2    0    0  0.42520586556E+02 -0.75804589316E+02  0.86091729283E+02  0.15287676797E+03  0.91679792174E+02 0.  0.
          5    1    3    3  502    0 -0.92381453331E+01  0.10308344752E+03  0.34302503644E+03  0.35832274349E+03  0.41800000000E+01 0. -1.
         -5    1    3    3    0  502 -0.33282441223E+02 -0.27278858201E+02  0.74725069526E+02  0.86331717313E+02  0.41800000000E+01 0. -1.
        -11    1    4    4    0    0  0.23213648487E+02 -0.38147721666E+02 -0.11835278286E+02  0.46197358761E+02  0.00000000000E+00 0.  1.
         11    1    4    4    0    0  0.19306938069E+02 -0.37656867650E+02  0.97927007569E+02  0.10667940921E+03  0.00000000000E+00 0. -1.
</event>
<event>
 8    1  0.6834011E-009  0.2612779E+03  0.7561462E-02  0.1106378E+00
         -2   -1    0    0    0  501 -0.00000000000E+00  0.00000000000E+00  0.20240843621E+03  0.20240843621E+03  0.00000000000E+00 0.  1.
          2   -1    0    0  501    0  0.00000000000E+00 -0.00000000000E+00 -0.34992365815E+03  0.34992365815E+03  0.00000000000E+00 0. -1.
         25    2    1    2    0    0 -0.22867882409E+03 -0.71223513894E+02 -0.34849726610E+02  0.27244634117E+03  0.12508281996E+03 0.  0.
         23    2    1    2    0    0  0.22867882409E+03  0.71223513894E+02 -0.11266549533E+03  0.27988575319E+03  0.90971025498E+02 0.  0.
          5    1    3    3  502    0 -0.13805243083E+03 -0.10251909864E+03 -0.39059146603E+02  0.17638517108E+03  0.41800000000E+01 0.  1.
         -5    1    3    3    0  502 -0.90626393266E+02  0.31295584750E+02  0.42094199930E+01  0.96061170084E+02  0.41800000000E+01 0.  1.
        -11    1    4    4    0    0  0.13330835804E+03  0.85174280596E+02 -0.54554879386E+02  0.16733801500E+03  0.00000000000E+00 0.  1.
         11    1    4    4    0    0  0.95370466052E+02 -0.13950766702E+02 -0.58110615943E+02  0.11254773819E+03  0.00000000000E+00 0. -1.
</event>
<event>
 8    1  0.6834011E-009  0.1285504E+03  0.7561462E-02  0.1229623E+00
         -2   -1    0    0    0  501 -0.00000000000E+00  0.00000000000E+00  0.39618328668E+02  0.39618328668E+02  0.00000000000E+00 0.  1.
          2   -1    0    0  501    0  0.00000000000E+00 -0.00000000000E+00 -0.43679643185E+03  0.43679643185E+03  0.00000000000E+00 0. -1.
         25    2    1    2    0    0  0.23765661743E+02 -0.66872140667E+02 -0.18168949452E+03  0.23172293926E+03  0.12509100002E+03 0.  0.
         23    2    1    2    0    0 -0.23765661743E+02  0.66872140667E+02 -0.21548860866E+03  0.24469182125E+03  0.91662735341E+02 0.  0.
          5    1    3    3  502    0  0.75360122336E+02 -0.38978060971E+02 -0.10370871013E+03  0.13405747362E+03  0.41800000000E+01 0.  1.
         -5    1    3    3    0  502 -0.51594460593E+02 -0.27894079696E+02 -0.77980784390E+02  0.97665465648E+02  0.41800000000E+01 0.  1.
        -11    1    4    4    0    0 -0.40765259202E+02  0.81370527122E+02 -0.19079987996E+03  0.21139433113E+03  0.00000000000E+00 0. -1.
         11    1    4    4    0    0  0.16999597459E+02 -0.14498386455E+02 -0.24688728701E+02  0.33297490122E+02  0.00000000000E+00 0.  1.
</event>
<event>
 8    1  0.6834011E-009  0.1694529E+03  0.7561462E-02  0.1178420E+00
         -1   -1    0    0    0  501 -0.00000000000E+00  0.00000000000E+00  0.28678093843E+03  0.28678093843E+03  0.00000000000E+00 0.  1.
          1   -1    0    0  501    0  0.00000000000E+00 -0.00000000000E+00 -0.16184970175E+03  0.16184970175E+03  0.00000000000E+00 0. -1.
         25    2    1    2    0    0  0.15547093556E+03  0.42105097141E+01 -0.39988468150E+02  0.20355224557E+03  0.12508196871E+03 0.  0.
         23    2    1    2    0    0 -0.15547093556E+03 -0.42105097141E+01  0.16491970483E+03  0.24507839460E+03  0.93144888563E+02 0.  0.
          5    1    3    3  502    0  0.25533413047E+02  0.40616453874E+02 -0.48410265672E+02  0.68283802835E+02  0.41800000000E+01 0.  1.
         -5    1    3    3    0  502  0.12993752252E+03 -0.36405944160E+02  0.84217975228E+01  0.13526844274E+03  0.41800000000E+01 0.  1.
        -11    1    4    4    0    0 -0.66912278499E+02 -0.58599498338E+01  0.13637428205E+03  0.15201821217E+03  0.00000000000E+00 0. -1.
         11    1    4    4    0    0 -0.88558657063E+02  0.16494401197E+01  0.28545422773E+02  0.93060182435E+02  0.00000000000E+00 0.  1.
</event>
<event>
 8    1  0.6834011E-009  0.9331546E+02  0.7561462E-02  0.1295016E+00
         -2   -1    0    0    0  501 -0.00000000000E+00  0.00000000000E+00  0.12376167255E+03  0.12376167255E+03  0.00000000000E+00 0.  1.
          2   -1    0    0  501    0  0.00000000000E+00 -0.00000000000E+00 -0.15357100497E+03  0.15357100497E+03  0.00000000000E+00 0. -1.
         25    2    1    2    0    0 -0.74102347110E+02 -0.33574007157E+02  0.70190646917E+01  0.14938342725E+03  0.12509104389E+03 0.  0.
         23    2    1    2    0    0  0.74102347110E+02  0.33574007157E+02 -0.36828397115E+02  0.12794925028E+03  0.91631370222E+02 0.  0.
          5    1    3    3  502    0  0.62661281023E+01 -0.15229873181E+02  0.52472325760E+02  0.55154607869E+02  0.41800000000E+01 0. -1.
         -5    1    3    3    0  502 -0.80368475212E+02 -0.18344133976E+02 -0.45453261068E+02  0.94228819376E+02  0.41800000000E+01 0. -1.
        -11    1    4    4    0    0  0.26152685406E+02  0.28814985621E+02  0.27445847175E+02  0.47618703021E+02  0.00000000000E+00 0.  1.
         11    1    4    4    0    0  0.47949661704E+02  0.47590215359E+01 -0.64274244290E+02  0.80330547257E+02  0.00000000000E+00 0. -1.
</event>
<event>
 8    1  0.6834011E-009  0.1282892E+03  0.7561462E-02  0.1230017E+00
          4   -1    0    0  501    0  0.00000000000E+00  0.00000000000E+00  0.40740439284E+03  0.40740439284E+03  0.00000000000E+00 0. -1.
         -4   -1    0    0    0  501 -0.00000000000E+00 -0.00000000000E+00 -0.50280313057E+02  0.50280313057E+02  0.00000000000E+00 0.  1.
         25    2    1    2    0    0 -0.30320842933E+02  0.83487799381E+02  0.22285241479E+03  0.27055553402E+03  0.12509009574E+03 0.  0.
         23    2    1    2    0    0  0.30320842933E+02 -0.83487799381E+02  0.13427166500E+03  0.18712917188E+03  0.95388053679E+02 0.  0.
          5    1    3    3  502    0  0.47605469077E+02  0.20603577225E+02  0.92428430044E+02  0.10607202817E+03  0.41800000000E+01 0. -1.
         -5    1    3    3    0  502 -0.77926312011E+02  0.62884222156E+02  0.13042398474E+03  0.16448350585E+03  0.41800000000E+01 0. -1.
        -11    1    4    4    0    0 -0.14174138257E+02 -0.38563494514E+02  0.27259664003E+01  0.41176209118E+02  0.00000000000E+00 0.  1.
         11    1    4    4    0    0  0.44494981191E+02 -0.44924304867E+02  0.13154569860E+03  0.14595296276E+03  0.00000000000E+00 0. -1.
</event>
<event>
 8    1  0.6834011E-009  0.1697746E+03  0.7561462E-02  0.1178083E+00
         -1   -1    0    0    0  501 -0.00000000000E+00  0.00000000000E+00  0.39079735710E+03  0.39079735710E+03  0.00000000000E+00 0.  1.
          1   -1    0    0  501    0  0.00000000000E+00 -0.00000000000E+00 -0.97512834591E+02  0.97512834591E+02  0.00000000000E+00 0. -1.
         25    2    1    2    0    0 -0.16084934132E+03 -0.13593844849E+02  0.15191800434E+03  0.25452405359E+03  0.12508441387E+03 0.  0.
         23    2    1    2    0    0  0.16084934132E+03  0.13593844849E+02  0.14136651817E+03  0.23378613810E+03  0.92812513626E+02 0.  0.
          5    1    3    3  502    0 -0.12745137760E+03 -0.41602934114E+02  0.16125590401E+03  0.20975127355E+03  0.41800000000E+01 0. -1.
         -5    1    3    3    0  502 -0.33397963718E+02  0.28009089265E+02 -0.93378996720E+01  0.44772780037E+02  0.41800000000E+01 0. -1.
        -11    1    4    4    0    0  0.11096054928E+03  0.13135154801E+02  0.36313481440E+02  0.11748806204E+03  0.00000000000E+00 0. -1.
         11    1    4    4    0    0  0.49888792042E+02  0.45869004801E+00  0.10505303673E+03  0.11629807606E+03  0.00000000000E+00 0.  1.
</event>
<event>
 8    1  0.6834011E-009  0.1318208E+03  0.7561462E-02  0.1224779E+00
         -2   -1    0    0    0  501 -0.00000000000E+00  0.00000000000E+00  0.47382825769E+02  0.47382825769E+02  0.00000000000E+00 0.  1.
          2   -1    0    0  501    0  0.00000000000E+00 -0.00000000000E+00 -0.40164608894E+03  0.40164608894E+03  0.00000000000E+00 0. -1.
         25    2    1    2    0    0  0.39659130265E+02  0.64091505829E+02 -0.25750899061E+03  0.29603783530E+03  0.12508777699E+03 0.  0.
         23    2    1    2    0    0 -0.39659130265E+02 -0.64091505829E+02 -0.96754272563E+02  0.15299107941E+03  0.91456620245E+02 0.  0.
          5    1    3    3  502    0  0.63241040976E+02 -0.13440587744E+02 -0.10878919851E+03  0.12662006466E+03  0.41800000000E+01 0.  1.
         -5    1    3    3    0  502 -0.23581910711E+02  0.77532093572E+02 -0.14871979210E+03  0.16941777064E+03  0.41800000000E+01 0.  1.
        -11    1    4    4    0    0 -0.33766586636E+02  0.16022967574E+02 -0.22666632563E+02  0.43711486987E+02  0.00000000000E+00 0.  1.
         11    1    4    4    0    0 -0.58925436290E+01 -0.80114473403E+02 -0.74087640000E+02  0.10927959242E+03  0.00000000000E+00 0. -1.
</event>
<event>
 8    1  0.6834011E-009  0.1335319E+03  0.7561462E-02  0.1222307E+00
          1   -1    0    0  501    0  0.00000000000E+00  0.00000000000E+00  0.17259596034E+03  0.17259596034E+03  0.00000000000E+00 0.  1.
         -1   -1    0    0    0  501 -0.00000000000E+00 -0.00000000000E+00 -0.15529576290E+03  0.15529576290E+03  0.00000000000E+00 0. -1.
         25    2    1    2    0    0  0.27775649438E+02 -0.10337758268E+03 -0.52762606501E+02  0.17288617751E+03  0.12508927382E+03 0.  0.
         23    2    1    2    0    0 -0.27775649438E+02  0.10337758268E+03  0.70062803943E+02  0.15500554573E+03  0.87518634627E+02 0.  0.
          5    1    3    3  502    0  0.53645158205E+02 -0.27241463171E+02  0.20825902452E+02  0.63805101109E+02  0.41800000000E+01 0. -1.
         -5    1    3    3    0  502 -0.25869508768E+02 -0.76136119513E+02 -0.73588508953E+02  0.10908107640E+03  0.41800000000E+01 0. -1.
        -11    1    4    4    0    0 -0.12607577299E+02  0.10924504618E+03  0.33452822618E+02  0.11494573703E+03  0.00000000000E+00 0. -1.
         11    1    4    4    0    0 -0.15168072139E+02 -0.58674634967E+01  0.36609981325E+02  0.40059808698E+02  0.00000000000E+00 0.  1.
</event>
<event>
 8    1  0.6834011E-009  0.1226471E+03  0.7561462E-02  0.1238793E+00
         -4   -1    0    0    0  501 -0.00000000000E+00  0.00000000000E+00  0.23547555552E+02  0.23547555552E+02  0.00000000000E+00 0.  1.
          4   -1    0    0  501    0  0.00000000000E+00 -0.00000000000E+00 -0.75097950004E+03  0.75097950004E+03  0.00000000000E+00 0. -1.
         25    2    1    2    0    0  0.39232435501E+02 -0.64065151287E+02 -0.44133140608E+03  0.46482776347E+03  0.12509161481E+03 0.  0.
         23    2    1    2    0    0 -0.39232435501E+02  0.64065151287E+02 -0.28610053840E+03  0.30969929212E+03  0.91742061554E+02 0.  0.
          5    1    3    3  502    0  0.60304804340E+02 -0.69476050038E+00 -0.32543300809E+03  0.33100040374E+03  0.41800000000E+01 0.  1.
         -5    1    3    3    0  502 -0.21072368840E+02 -0.63370390786E+02 -0.11589839799E+03  0.13382735974E+03  0.41800000000E+01 0.  1.
        -11    1    4    4    0    0  0.29881699405E+02  0.18482391022E+02 -0.10066942968E+03  0.10662480391E+03  0.00000000000E+00 0. -1.
         11    1    4    4    0    0 -0.69114134906E+02  0.45582760265E+02 -0.18543110872E+03  0.20307448821E+03  0.00000000000E+00 0.  1.
</event>
<event>
 8    1  0.6834011E-009  0.1125903E+03  0.7561462E-02  0.1255847E+00
          2   -1    0    0  501    0  0.00000000000E+00  0.00000000000E+00  0.38115480602E+03  0.38115480602E+03  0.00000000000E+00 0. -1.
         -2   -1    0    0    0  501 -0.00000000000E+00 -0.00000000000E+00 -0.58563075818E+02  0.58563075818E+02  0.00000000000E+00 0.  1.
         25    2    1    2    0    0 -0.75241574164E+02 -0.11144975184E+02  0.73401147866E+02  0.16377087942E+03  0.12509063708E+03 0.  0.
         23    2    1    2    0    0  0.75241574164E+02  0.11144975184E+02  0.24919058234E+03  0.27594700241E+03  0.90913678074E+02 0.  0.
          5    1    3    3  502    0  0.44820881043E+01  0.44696796548E+02  0.64852411252E+01  0.45578761368E+02  0.41800000000E+01 0.  1.
         -5    1    3    3    0  502 -0.79723662269E+02 -0.55841771732E+02  0.66915906741E+02  0.11819211806E+03  0.41800000000E+01 0.  1.
        -11    1    4    4    0    0  0.60163797983E+02  0.22001888314E+02  0.24926690501E+03  0.25736696682E+03  0.00000000000E+00 0. -1.
         11    1    4    4    0    0  0.15077776181E+02 -0.10856913130E+02 -0.76322679005E-01  0.18580035587E+02  0.00000000000E+00 0.  1.
</event>
<event>
 8    1  0.6834011E-009  0.1231708E+03  0.7561462E-02  0.1237956E+00
          1   -1    0    0  501    0  0.00000000000E+00  0.00000000000E+00  0.39856345566E+02  0.39856345566E+02  0.00000000000E+00 0. -1.
         -1   -1    0    0    0  501 -0.00000000000E+00 -0.00000000000E+00 -0.52249803777E+03  0.52249803777E+03  0.00000000000E+00 0.  1.
         25    2    1    2    0    0  0.93334422580E+02  0.73611439275E+01 -0.24047275841E+03  0.28677284444E+03  0.12508403531E+03 0.  0.
         23    2    1    2    0    0 -0.93334422580E+02 -0.73611439275E+01 -0.24216893379E+03  0.27558153890E+03  0.92379062612E+02 0.  0.
          5    1    3    3  502    0  0.92392016323E+02 -0.41828118991E+02 -0.19408071341E+03  0.21902208093E+03  0.41800000000E+01 0.  1.
         -5    1    3    3    0  502  0.94240625678E+00  0.49189262918E+02 -0.46392045003E+02  0.67750763506E+02  0.41800000000E+01 0.  1.
        -11    1    4    4    0    0 -0.53149783172E+02  0.50853654769E+01 -0.34213930618E+02  0.63414142284E+02  0.00000000000E+00 0. -1.
         11    1    4    4    0    0 -0.40184639407E+02 -0.12446509404E+02 -0.20795500317E+03  0.21216739661E+03  0.00000000000E+00 0.  1.
</event>
<event>
 8    1  0.6834011E-009  0.9213795E+02  0.7561462E-02  0.1297755E+00
          2   -1    0    0  501    0  0.00000000000E+00  0.00000000000E+00  0.45995483076E+03  0.45995483076E+03  0.00000000000E+00 0. -1.
         -2   -1    0    0    0  501 -0.00000000000E+00 -0.00000000000E+00 -0.27870688701E+02  0.27870688701E+02  0.00000000000E+00 0.  1.
         25    2    1    2    0    0  0.12148958219E+02 -0.22707975881E+02  0.21013790548E+03  0.24590465013E+03  0.12509159956E+03 0.  0.
         23    2    1    2    0    0 -0.12148958219E+02  0.22707975881E+02  0.22194623658E+03  0.24192086933E+03  0.92748723618E+02 0.  0.
          5    1    3    3  502    0 -0.27379009808E+02  0.42862694096E+02  0.85071865746E+02  0.99204412527E+02  0.41800000000E+01 0.  1.
         -5    1    3    3    0  502  0.39527968027E+02 -0.65570669977E+02  0.12506603974E+03  0.14670023760E+03  0.41800000000E+01 0.  1.
        -11    1    4    4    0    0  0.18171171711E+02 -0.81750881114E+00  0.16023481402E+01  0.18259992376E+02  0.00000000000E+00 0.  1.
         11    1    4    4    0    0 -0.30320129929E+02  0.23525484692E+02  0.22034388844E+03  0.22366087696E+03  0.00000000000E+00 0. -1.
</event>
<event>
 8    1  0.6834011E-009  0.1444370E+03  0.7561462E-02  0.1207480E+00
         -1   -1    0    0    0  501 -0.00000000000E+00  0.00000000000E+00  0.59126545405E+02  0.59126545405E+02  0.00000000000E+00 0.  1.
          1   -1    0    0  501    0  0.00000000000E+00 -0.00000000000E+00 -0.51407749809E+03  0.51407749809E+03  0.00000000000E+00 0. -1.
         25    2    1    2    0    0 -0.35633174486E+02  0.11803489424E+03 -0.14319924817E+03  0.22662545935E+03  0.12510441546E+03 0.  0.
         23    2    1    2    0    0  0.35633174486E+02 -0.11803489424E+03 -0.31175170451E+03  0.34657858415E+03  0.87895564955E+02 0.  0.
          5    1    3    3  502    0 -0.54891376772E+02  0.87851543186E+02 -0.15690333646E+03  0.18806138965E+03  0.41800000000E+01 0. -1.
         -5    1    3    3    0  502  0.19258202286E+02  0.30183351054E+02  0.13704088289E+02  0.38564069702E+02  0.41800000000E+01 0. -1.
        -11    1    4    4    0    0 -0.23162852337E+02 -0.82020489202E+01 -0.32037815534E+02  0.40375895768E+02  0.00000000000E+00 0.  1.
         11    1    4    4    0    0  0.58796026823E+02 -0.10983284532E+03 -0.27971388898E+03  0.30620268838E+03  0.00000000000E+00 0. -1.
</event>
<event>
 8    1  0.6834011E-009  0.9674722E+02  0.7561462E-02  0.1287289E+00
         -2   -1    0    0    0  501 -0.00000000000E+00  0.00000000000E+00  0.12641927231E+03  0.12641927231E+03  0.00000000000E+00 0.  1.
          2   -1    0    0  501    0  0.00000000000E+00 -0.00000000000E+00 -0.10271450871E+03  0.10271450871E+03  0.00000000000E+00 0. -1.
         25    2    1    2    0    0  0.81460874262E+01  0.28883459856E+02 -0.83953016032E+01  0.12891889879E+03  0.12509591673E+03 0.  0.
         23    2    1    2    0    0 -0.81460874262E+01 -0.28883459856E+02  0.32100065207E+02  0.10021488224E+03  0.90066616688E+02 0.  0.
          5    1    3    3  502    0 -0.89881651268E+01 -0.34366752903E+02  0.35134625718E+02  0.50137562185E+02  0.41800000000E+01 0. -1.
         -5    1    3    3    0  502  0.17134252553E+02  0.63250212759E+02 -0.43529927322E+02  0.78781336605E+02  0.41800000000E+01 0. -1.
        -11    1    4    4    0    0  0.23025053332E+02  0.22352651643E+02  0.23169278893E+02  0.39580419412E+02  0.00000000000E+00 0.  1.
         11    1    4    4    0    0 -0.31171140759E+02 -0.51236111499E+02  0.89307863143E+01  0.60634462823E+02  0.00000000000E+00 0. -1.
</event>
<event>
 8    1  0.6834011E-009  0.1118609E+03  0.7561462E-02  0.1257162E+00
         -3   -1    0    0    0  501 -0.00000000000E+00  0.00000000000E+00  0.12014842899E+03  0.12014842899E+03  0.00000000000E+00 0.  1.
          3   -1    0    0  501    0  0.00000000000E+00 -0.00000000000E+00 -0.20591707515E+03  0.20591707515E+03  0.00000000000E+00 0. -1.
         25    2    1    2    0    0 -0.64776388975E+02 -0.64013809536E+01 -0.14220701275E+03  0.20026642626E+03  0.12508736453E+03 0.  0.
         23    2    1    2    0    0  0.64776388975E+02  0.64013809536E+01  0.56438366593E+02  0.12579907788E+03  0.91668754355E+02 0.  0.
          5    1    3    3  502    0 -0.46524546764E+02  0.55007436943E+02 -0.10043513299E+03  0.12367311717E+03  0.41800000000E+01 0.  1.
         -5    1    3    3    0  502 -0.18251842211E+02 -0.61408817897E+02 -0.41771879755E+02  0.76593309093E+02  0.41800000000E+01 0.  1.
        -11    1    4    4    0    0 -0.20413971442E+01  0.19213378595E+02  0.54404549618E+02  0.57733666422E+02  0.00000000000E+00 0.  1.
         11    1    4    4    0    0  0.66817786120E+02 -0.12811997641E+02  0.20338169750E+01  0.68065411458E+02  0.00000000000E+00 0. -1.
</event>
<event>
 8    1  0.6834011E-009  0.3267271E+03  0.7561462E-02  0.1072594E+00
         -1   -1    0    0    0  501 -0.00000000000E+00  0.00000000000E+00  0.32269030954E+03  0.32269030954E+03  0.00000000000E+00 0.  1.
          1   -1    0    0  501    0  0.00000000000E+00 -0.00000000000E+00 -0.38906798487E+03  0.38906798487E+03  0.00000000000E+00 0. -1.
         25    2    1    2    0    0  0.20987581423E+03  0.23029537338E+03  0.95289177994E+02  0.34901480742E+03  0.12508993550E+03 0.  0.
         23    2    1    2    0    0 -0.20987581423E+03 -0.23029537338E+03 -0.16166685332E+03  0.36274348699E+03  0.91448616687E+02 0.  0.
          5    1    3    3  502    0  0.90703827862E+02  0.25258360361E+02  0.52857947047E+02  0.10805833667E+03  0.41800000000E+01 0.  1.
         -5    1    3    3    0  502  0.11917198636E+03  0.20503701302E+03  0.42431230947E+02  0.24095647076E+03  0.41800000000E+01 0.  1.
        -11    1    4    4    0    0 -0.97530895127E+02 -0.50046300806E+02 -0.33282430191E+02  0.11456276833E+03  0.00000000000E+00 0.  1.
         11    1    4    4    0    0 -0.11234491910E+03 -0.18024907257E+03 -0.12838442313E+03  0.24818071865E+03  0.00000000000E+00 0. -1.
</event>
<event>
 8    1  0.6834011E-009  0.1416310E+03  0.7561462E-02  0.1211151E+00
          1   -1    0    0  501    0  0.00000000000E+00  0.00000000000E+00  0.87521596271E+03  0.87521596271E+03  0.00000000000E+00 0. -1.
         -1   -1    0    0    0  501 -0.00000000000E+00 -0.00000000000E+00 -0.32652057415E+02  0.32652057415E+02  0.00000000000E+00 0.  1.
         25    2    1    2    0    0  0.78562514816E+00 -0.12458356646E+03  0.54232607444E+03  0.57033806671E+03  0.12508499944E+03 0.  0.
         23    2    1    2    0    0 -0.78562514816E+00  0.12458356646E+03  0.30023783086E+03  0.33752995341E+03  0.90895721221E+02 0.  0.
          5    1    3    3  502    0 -0.24732307446E+02 -0.10376847774E+03  0.51875387867E+03  0.52962500228E+03  0.41800000000E+01 0.  1.
         -5    1    3    3    0  502  0.25517932594E+02 -0.20815088714E+02  0.23572195768E+02  0.40713064431E+02  0.41800000000E+01 0.  1.
        -11    1    4    4    0    0 -0.30145818499E+02  0.24011043843E+02  0.33905432167E+02  0.51331071778E+02  0.00000000000E+00 0.  1.
         11    1    4    4    0    0  0.29360193350E+02  0.10057252261E+03  0.26633239869E+03  0.28619888164E+03  0.00000000000E+00 0. -1.
</event>
<event>
 8    1  0.6834011E-009  0.9405424E+02  0.7561462E-02  0.1293320E+00
          2   -1    0    0  501    0  0.00000000000E+00  0.00000000000E+00  0.52970151040E+02  0.52970151040E+02  0.00000000000E+00 0. -1.
         -2   -1    0    0    0  501 -0.00000000000E+00 -0.00000000000E+00 -0.25089786229E+03  0.25089786229E+03  0.00000000000E+00 0.  1.
         25    2    1    2    0    0 -0.23750153018E+02  0.15700543784E+02 -0.77400990306E+02  0.14982906970E+03  0.12508900825E+03 0.  0.
         23    2    1    2    0    0  0.23750153018E+02 -0.15700543784E+02 -0.12052672094E+03  0.15403894362E+03  0.91600921656E+02 0.  0.
          5    1    3    3  502    0 -0.56178288489E+02 -0.15610907464E+02 -0.85764773355E+02  0.10379195189E+03  0.41800000000E+01 0. -1.
         -5    1    3    3    0  502  0.32428135470E+02  0.31311451249E+02  0.83637830489E+01  0.46037117810E+02  0.41800000000E+01 0. -1.
        -11    1    4    4    0    0 -0.13801145098E+02 -0.38192019209E+02 -0.95125025019E+02  0.10343051930E+03  0.00000000000E+00 0.  1.
         11    1    4    4    0    0  0.37551298116E+02  0.22491475425E+02 -0.25401695923E+02  0.50608424327E+02  0.00000000000E+00 0. -1.
</event>
<event>
 8    1  0.6834011E-009  0.1118054E+03  0.7561462E-02  0.1257263E+00
          2   -1    0    0  501    0  0.00000000000E+00  0.00000000000E+00  0.60118047115E+03  0.60118047115E+03  0.00000000000E+00 0. -1.
         -2   -1    0    0    0  501 -0.00000000000E+00 -0.00000000000E+00 -0.27093671928E+02  0.27093671928E+02  0.00000000000E+00 0.  1.
         25    2    1    2    0    0 -0.30385788629E+02  0.57543800105E+02  0.29227799754E+03  0.32451181897E+03  0.12508760022E+03 0.  0.
         23    2    1    2    0    0  0.30385788629E+02 -0.57543800105E+02  0.28180880169E+03  0.30376232411E+03  0.92848068136E+02 0.  0.
          5    1    3    3  502    0 -0.54935782616E+02  0.72031159081E+02  0.27788095135E+03  0.29230416284E+03  0.41800000000E+01 0. -1.
         -5    1    3    3    0  502  0.24549993987E+02 -0.14487358976E+02  0.14397046187E+02  0.32207656136E+02  0.41800000000E+01 0. -1.
        -11    1    4    4    0    0  0.57647167846E+02 -0.28594402378E+02  0.11025051956E+03  0.12765583759E+03  0.00000000000E+00 0.  1.
         11    1    4    4    0    0 -0.27261379217E+02 -0.28949397727E+02  0.17155828213E+03  0.17610648652E+03  0.00000000000E+00 0. -1.
</event>
<event>
 8    1  0.6834011E-009  0.1074888E+03  0.7561462E-02  0.1265292E+00
         -3   -1    0    0    0  501 -0.00000000000E+00  0.00000000000E+00  0.25567072621E+03  0.25567072621E+03  0.00000000000E+00 0.  1.
          3   -1    0    0  501    0  0.00000000000E+00 -0.00000000000E+00 -0.57470720787E+02  0.57470720787E+02  0.00000000000E+00 0. -1.
         25    2    1    2    0    0 -0.18029896595E+02  0.44901818583E+02  0.13494448208E+03  0.19026126829E+03  0.12509231185E+03 0.  0.
         23    2    1    2    0    0  0.18029896595E+02 -0.44901818583E+02  0.63255523339E+02  0.12288017870E+03  0.93578985897E+02 0.  0.
          5    1    3    3  502    0 -0.62942463379E+02  0.39195548138E+02  0.38535004528E+02  0.83668773530E+02  0.41800000000E+01 0.  1.
         -5    1    3    3    0  502  0.44912566784E+02  0.57062704452E+01  0.96409477554E+02  0.10659249476E+03  0.41800000000E+01 0.  1.
        -11    1    4    4    0    0  0.51011769332E+02 -0.26887221095E+02  0.62852706182E+02  0.85297045336E+02  0.00000000000E+00 0.  1.
         11    1    4    4    0    0 -0.32981872737E+02 -0.18014597489E+02  0.40281715703E+00  0.37583133366E+02  0.00000000000E+00 0. -1.
</event>
<event>
 8    1  0.6834011E-009  0.9579962E+02  0.7561462E-02  0.1289385E+00
          1   -1    0    0  501    0  0.00000000000E+00  0.00000000000E+00  0.43758587894E+03  0.43758587894E+03  0.00000000000E+00 0. -1.
         -1   -1    0    0    0  501 -0.00000000000E+00 -0.00000000000E+00 -0.37717703933E+02  0.37717703933E+02  0.00000000000E+00 0.  1.
         25    2    1    2    0    0  0.36348375955E+02 -0.25312116070E+01  0.32751956884E+03  0.35247931360E+03  0.12507992275E+03 0.  0.
         23    2    1    2    0    0 -0.36348375955E+02  0.25312116070E+01  0.72348606164E+02  0.12282426927E+03  0.92324800792E+02 0.  0.
          5    1    3    3  502    0  0.30900981629E+02  0.44867316965E+02  0.61852209534E+02  0.82529479712E+02  0.41800000000E+01 0.  1.
         -5    1    3    3    0  502  0.54473943266E+01 -0.47398528572E+02  0.26566735931E+03  0.26994983389E+03  0.41800000000E+01 0.  1.
        -11    1    4    4    0    0 -0.58718696558E+02 -0.15047669404E+02  0.72332788283E+02  0.94373459938E+02  0.00000000000E+00 0.  1.
         11    1    4    4    0    0  0.22370320603E+02  0.17578881011E+02  0.15817880780E-01  0.28450809332E+02  0.00000000000E+00 0. -1.
</event>
<event>
 8    1  0.6834011E-009  0.2145860E+03  0.7561462E-02  0.1137985E+00
          2   -1    0    0  501    0  0.00000000000E+00  0.00000000000E+00  0.42770486497E+03  0.42770486497E+03  0.00000000000E+00 0.  1.
         -2   -1    0    0    0  501 -0.00000000000E+00 -0.00000000000E+00 -0.16154446341E+03  0.16154446341E+03  0.00000000000E+00 0. -1.
         25    2    1    2    0    0  0.40428416167E+02 -0.20113829479E+03  0.27431242190E+03  0.36467248170E+03  0.12509054174E+03 0.  0.
         23    2    1    2    0    0 -0.40428416167E+02  0.20113829479E+03 -0.81520203323E+01  0.22457684668E+03  0.90979306246E+02 0.  0.
          5    1    3    3  502    0  0.91573205443E+01 -0.53216931305E+02  0.32376931281E+01  0.54257288486E+02  0.41800000000E+01 0.  1.
         -5    1    3    3    0  502  0.31271095623E+02 -0.14792136349E+03  0.27107472877E+03  0.31041519321E+03  0.41800000000E+01 0.  1.
        -11    1    4    4    0    0  0.95693644970E+01  0.15633612577E+03 -0.13622755196E+02  0.15722002550E+03  0.00000000000E+00 0.  1.
         11    1    4    4    0    0 -0.49997780664E+02  0.44802169018E+02  0.54707348634E+01  0.67356821183E+02  0.00000000000E+00 0. -1.
</event>
<event>
 8    1  0.6834011E-009  0.1752360E+03  0.7561462E-02  0.1172495E+00
          2   -1    0    0  501    0  0.00000000000E+00  0.00000000000E+00  0.57946567366E+03  0.57946567366E+03  0.00000000000E+00 0. -1.
         -2   -1    0    0    0  501 -0.00000000000E+00 -0.00000000000E+00 -0.61377503904E+02  0.61377503904E+02  0.00000000000E+00 0.  1.
         25    2    1    2    0    0 -0.14691757425E+03 -0.27698888868E+02  0.21174944428E+03  0.28781485159E+03  0.12509020575E+03 0.  0.
         23    2    1    2    0    0  0.14691757425E+03  0.27698888868E+02  0.30633872547E+03  0.35302832598E+03  0.91834536809E+02 0.  0.
          5    1    3    3  502    0  0.22295544219E+02 -0.59567113166E+01  0.17586672397E+02  0.29314452881E+02  0.41800000000E+01 0. -1.
         -5    1    3    3    0  502 -0.16921311846E+03 -0.21742177551E+02  0.19416277189E+03  0.25850039871E+03  0.41800000000E+01 0. -1.
        -11    1    4    4    0    0  0.54281189625E+02  0.33087280056E+02  0.51475546192E+02  0.81798212109E+02  0.00000000000E+00 0.  1.
         11    1    4    4    0    0  0.92636384621E+02 -0.53883911874E+01  0.25486317928E+03  0.27123011387E+03  0.00000000000E+00 0. -1.
</event>
<event>
 8    1  0.6834011E-009  0.1180641E+03  0.7561462E-02  0.1246325E+00
          2   -1    0    0  501    0  0.00000000000E+00  0.00000000000E+00  0.34108286789E+03  0.34108286789E+03  0.00000000000E+00 0.  1.
         -2   -1    0    0    0  501 -0.00000000000E+00 -0.00000000000E+00 -0.58399509154E+02  0.58399509154E+02  0.00000000000E+00 0. -1.
         25    2    1    2    0    0 -0.71610732957E+02 -0.49194183652E+02  0.18637853481E+03  0.24069118418E+03  0.12508846119E+03 0.  0.
         23    2    1    2    0    0  0.71610732957E+02  0.49194183652E+02  0.96304823921E+02  0.15879119286E+03  0.91607090556E+02 0.  0.
          5    1    3    3  502    0 -0.69492867800E+02 -0.86734582546E+02  0.15880234507E+03  0.19387574290E+03  0.41800000000E+01 0.  1.
         -5    1    3    3    0  502 -0.21178651570E+01  0.37540398893E+02  0.27576189745E+02  0.46815441286E+02  0.41800000000E+01 0.  1.
        -11    1    4    4    0    0  0.30129886079E+02  0.17217425690E+02 -0.13420173164E+02  0.37206865365E+02  0.00000000000E+00 0. -1.
         11    1    4    4    0    0  0.41480846878E+02  0.31976757962E+02  0.10972499709E+03  0.12158432750E+03  0.00000000000E+00 0.  1.
</event>
<event>
 8    1  0.6834011E-009  0.1350715E+03  0.7561462E-02  0.1220119E+00
         -1   -1    0    0    0  501 -0.00000000000E+00  0.00000000000E+00  0.52345335424E+02  0.52345335424E+02  0.00000000000E+00 0.  1.
          1   -1    0    0  501    0  0.00000000000E+00 -0.00000000000E+00 -0.52390100940E+03  0.52390100940E+03  0.00000000000E+00 0. -1.
         25    2    1    2    0    0  0.77665183391E+02  0.19538361492E+02 -0.41707373348E+03  0.44273183988E+03  0.12508938646E+03 0.  0.
         23    2    1    2    0    0 -0.77665183391E+02 -0.19538361492E+02 -0.54481940497E+02  0.13351450494E+03  0.91892398538E+02 0.  0.
          5    1    3    3  502    0  0.56929594640E+02  0.72013266524E+02 -0.25207429088E+03  0.26830171416E+03  0.41800000000E+01 0.  1.
         -5    1    3    3    0  502  0.20735588751E+02 -0.52474905032E+02 -0.16499944260E+03  0.17443012571E+03  0.41800000000E+01 0.  1.
        -11    1    4    4    0    0  0.72252883656E+01 -0.34694685259E+02 -0.19561272647E+02  0.40479246099E+02  0.00000000000E+00 0. -1.
         11    1    4    4    0    0 -0.84890471756E+02  0.15156323767E+02 -0.34920667851E+02  0.93035258845E+02  0.00000000000E+00 0.  1.
</event>
<event>
 8    1  0.6834011E-009  0.1361676E+03  0.7561462E-02  0.1218581E+00
          2   -1    0    0  501    0  0.00000000000E+00  0.00000000000E+00  0.20375072063E+02  0.20375072063E+02  0.00000000000E+00 0. -1.
         -2   -1    0    0    0  501 -0.00000000000E+00 -0.00000000000E+00 -0.96169196875E+03  0.96169196875E+03  0.00000000000E+00 0.  1.
         25    2    1    2    0    0 -0.28538211050E+02 -0.74670693413E+02 -0.55569052792E+03  0.57517882308E+03  0.12509425949E+03 0.  0.
         23    2    1    2    0    0  0.28538211050E+02  0.74670693413E+02 -0.38562636877E+03  0.40688821773E+03  0.10227503847E+03 0.  0.
          5    1    3    3  502    0  0.26528141349E+02  0.19618263901E+02 -0.21035335015E+03  0.21296624822E+03  0.41800000000E+01 0.  1.
         -5    1    3    3    0  502 -0.55066352398E+02 -0.94288957314E+02 -0.34533717777E+03  0.36221257486E+03  0.41800000000E+01 0.  1.
        -11    1    4    4    0    0 -0.38612318604E+02  0.32867343962E+02 -0.15191456788E+03  0.16015370548E+03  0.00000000000E+00 0. -1.
         11    1    4    4    0    0  0.67150529653E+02  0.41803349450E+02 -0.23371180090E+03  0.24673451225E+03  0.00000000000E+00 0.  1.
</event>
<event>
 8    1  0.6834011E-009  0.1796323E+03  0.7561462E-02  0.1168159E+00
          3   -1    0    0  501    0  0.00000000000E+00  0.00000000000E+00  0.92351463211E+02  0.92351463211E+02  0.00000000000E+00 0. -1.
         -3   -1    0    0    0  501 -0.00000000000E+00 -0.00000000000E+00 -0.47758760444E+03  0.47758760444E+03  0.00000000000E+00 0.  1.
         25    2    1    2    0    0  0.12497096503E+03 -0.12417039023E+03 -0.24713076509E+03  0.32826201409E+03  0.12508519869E+03 0.  0.
         23    2    1    2    0    0 -0.12497096503E+03  0.12417039023E+03 -0.13810537614E+03  0.24167705356E+03  0.91097065754E+02 0.  0.
          5    1    3    3  502    0  0.42860196757E+02 -0.32346714531E+02 -0.20077052874E+01  0.53896286398E+02  0.41800000000E+01 0. -1.
         -5    1    3    3    0  502  0.82110768274E+02 -0.91823675700E+02 -0.24512305980E+03  0.27436572769E+03  0.41800000000E+01 0. -1.
        -11    1    4    4    0    0 -0.99699341179E+02  0.68350807426E+02 -0.42522401334E+02  0.12814033761E+03  0.00000000000E+00 0.  1.
         11    1    4    4    0    0 -0.25271623852E+02  0.55819582805E+02 -0.95582974808E+02  0.11353671595E+03  0.00000000000E+00 0. -1.
</event>
<event>
 8    1  0.6834011E-009  0.9467340E+02  0.7561462E-02  0.1291913E+00
          4   -1    0    0  501    0  0.00000000000E+00  0.00000000000E+00  0.58500572069E+02  0.58500572069E+02  0.00000000000E+00 0. -1.
         -4   -1    0    0    0  501 -0.00000000000E+00 -0.00000000000E+00 -0.27574275403E+03  0.27574275403E+03  0.00000000000E+00 0.  1.
         25    2    1    2    0    0  0.48954593713E+02  0.41153363895E+02 -0.99256682477E+02  0.17201981732E+03  0.12509507156E+03 0.  0.
         23    2    1    2    0    0 -0.48954593713E+02 -0.41153363895E+02 -0.11798549948E+03  0.16222350878E+03  0.91135816821E+02 0.  0.
          5    1    3    3  502    0  0.21942033153E+02 -0.72807578586E+01  0.25957456815E+02  0.35010344445E+02  0.41800000000E+01 0. -1.
         -5    1    3    3    0  502  0.27012560559E+02  0.48434121754E+02 -0.12521413929E+03  0.13700947287E+03  0.41800000000E+01 0. -1.
        -11    1    4    4    0    0 -0.29763396357E+00 -0.58560816285E+02 -0.73947168785E+02  0.94327310792E+02  0.00000000000E+00 0.  1.
         11    1    4    4    0    0 -0.48656959749E+02  0.17407452390E+02 -0.44038330696E+02  0.67896197988E+02  0.00000000000E+00 0. -1.
</event>
<event>
 8    1  0.6834011E-009  0.1101406E+03  0.7561462E-02  0.1260310E+00
          2   -1    0    0  501    0  0.00000000000E+00  0.00000000000E+00  0.24329041127E+03  0.24329041127E+03  0.00000000000E+00 0. -1.
         -2   -1    0    0    0  501 -0.00000000000E+00 -0.00000000000E+00 -0.90641704910E+02  0.90641704910E+02  0.00000000000E+00 0.  1.
         25    2    1    2    0    0 -0.92053886302E+02  0.25286148089E+02  0.10980520345E+03  0.19187412947E+03  0.12508074028E+03 0.  0.
         23    2    1    2    0    0  0.92053886302E+02 -0.25286148089E+02  0.42843502914E+02  0.14205798671E+03  0.96081208240E+02 0.  0.
          5    1    3    3  502    0 -0.18277558388E+02 -0.26561991270E+02 -0.16631787948E+02  0.36519820526E+02  0.41800000000E+01 0. -1.
         -5    1    3    3    0  502 -0.73776327914E+02  0.51848139359E+02  0.12643699140E+03  0.15535430895E+03  0.41800000000E+01 0. -1.
        -11    1    4    4    0    0  0.55831012113E+02 -0.51828696182E+01 -0.25925574576E+02  0.61774585941E+02  0.00000000000E+00 0.  1.
         11    1    4    4    0    0  0.36222874189E+02 -0.20103278471E+02  0.68769077490E+02  0.80283400767E+02  0.00000000000E+00 0. -1.
</event>
<event>
 8    1  0.6834011E-009  0.4735805E+02  0.7561462E-02  0.1460136E+00
         -2   -1    0    0    0  501 -0.00000000000E+00  0.00000000000E+00  0.27082383020E+02  0.27082383020E+02  0.00000000000E+00 0.  1.
          2   -1    0    0  501    0  0.00000000000E+00 -0.00000000000E+00 -0.12596135630E+04  0.12596135630E+04  0.00000000000E+00 0. -1.
         25    2    1    2    0    0 -0.11447767068E+01 -0.80180282294E+01 -0.11775456560E+04  0.11841990542E+04  0.12509208054E+03 0.  0.
         23    2    1    2    0    0  0.11447767068E+01  0.80180282294E+01 -0.54985523905E+02  0.10249689179E+03  0.86119717234E+02 0.  0.
          5    1    3    3  502    0 -0.57295098351E+01  0.64447221272E+00 -0.11723018998E+04  0.11723235302E+04  0.41800000000E+01 0.  1.
         -5    1    3    3    0  502  0.45847331283E+01 -0.86625004421E+01 -0.52437561977E+01  0.11875524023E+02  0.41800000000E+01 0.  1.
        -11    1    4    4    0    0 -0.73679572760E+01 -0.33631423385E+02 -0.18910244147E+01  0.34480942659E+02  0.00000000000E+00 0.  1.
         11    1    4    4    0    0  0.85127339828E+01  0.41649451614E+02 -0.53094499490E+02  0.68015949128E+02  0.00000000000E+00 0. -1.
</event>
<event>
 8    1  0.6834011E-009  0.1621159E+03  0.7561462E-02  0.1186328E+00
         -2   -1    0    0    0  501 -0.00000000000E+00  0.00000000000E+00  0.90811042988E+02  0.90811042988E+02  0.00000000000E+00 0. -1.
          2   -1    0    0  501    0  0.00000000000E+00 -0.00000000000E+00 -0.35366843514E+03  0.35366843514E+03  0.00000000000E+00 0.  1.
         25    2    1    2    0    0  0.10476146599E+01 -0.14201237042E+03 -0.15177423630E+03  0.24259404377E+03  0.12509132831E+03 0.  0.
         23    2    1    2    0    0 -0.10476146599E+01  0.14201237042E+03 -0.11108315585E+03  0.20188543436E+03  0.90827585257E+02 0.  0.
          5    1    3    3  502    0 -0.51407538960E+02 -0.33176607469E+02 -0.83994685962E+02  0.10400000969E+03  0.41800000000E+01 0.  1.
         -5    1    3    3    0  502  0.52455153620E+02 -0.10883576295E+03 -0.67779550340E+02  0.13859403408E+03  0.41800000000E+01 0.  1.
        -11    1    4    4    0    0 -0.93479880420E-01  0.14362770778E+02  0.16177777478E+02  0.21633733081E+02  0.00000000000E+00 0.  1.
         11    1    4    4    0    0 -0.95413477951E+00  0.12764959964E+03 -0.12726093333E+03  0.18025170128E+03  0.00000000000E+00 0. -1.
</event>
<event>
 8    1  0.6834011E-009  0.1004226E+03  0.7561462E-02  0.1279410E+00
         -2   -1    0    0    0  501 -0.00000000000E+00  0.00000000000E+00  0.14939223421E+02  0.14939223421E+02  0.00000000000E+00 0.  1.
          2   -1    0    0  501    0  0.00000000000E+00 -0.00000000000E+00 -0.11611592911E+04  0.11611592911E+04  0.00000000000E+00 0. -1.
         25    2    1    2    0    0 -0.64896196960E+01  0.61919083959E+02 -0.85564079194E+03  0.86697494370E+03  0.12509316551E+03 0.  0.
         23    2    1    2    0    0  0.64896196960E+01 -0.61919083959E+02 -0.29057927570E+03  0.30912357078E+03  0.85117438999E+02 0.  0.
          5    1    3    3  502    0  0.53586317098E+02  0.56309873585E+02 -0.41963957847E+03  0.42679871539E+03  0.41800000000E+01 0. -1.
         -5    1    3    3    0  502 -0.60075936794E+02  0.56092103740E+01 -0.43600121347E+03  0.44017622831E+03  0.41800000000E+01 0. -1.
        -11    1    4    4    0    0  0.35984675207E+01 -0.12299066063E+02  0.14483133741E+01  0.12896263263E+02  0.00000000000E+00 0.  1.
         11    1    4    4    0    0  0.28911521754E+01 -0.49620017896E+02 -0.29202758908E+03  0.29622730752E+03  0.00000000000E+00 0. -1.
</event>
<event>
 8    1  0.6834011E-009  0.6958271E+02  0.7561462E-02  0.1361518E+00
         -4   -1    0    0    0  501 -0.00000000000E+00  0.00000000000E+00  0.27272939217E+02  0.27272939217E+02  0.00000000000E+00 0.  1.
          4   -1    0    0  501    0  0.00000000000E+00 -0.00000000000E+00 -0.47580882434E+03  0.47580882434E+03  0.00000000000E+00 0. -1.
         25    2    1    2    0    0  0.27273692281E+02 -0.23077628354E+01 -0.20456632301E+03  0.24133136257E+03  0.12507704022E+03 0.  0.
         23    2    1    2    0    0 -0.27273692281E+02  0.23077628354E+01 -0.24396956212E+03  0.26175040099E+03  0.90790666476E+02 0.  0.
          5    1    3    3  502    0  0.26976901083E+02 -0.22739385454E+02 -0.21506581206E+03  0.21798075319E+03  0.41800000000E+01 0.  1.
         -5    1    3    3    0  502  0.29679119748E+00  0.20431622619E+02  0.10499489056E+02  0.23350609377E+02  0.41800000000E+01 0.  1.
        -11    1    4    4    0    0  0.17933787269E+02 -0.24392788627E+02 -0.34961395591E+02  0.46248546404E+02  0.00000000000E+00 0.  1.
         11    1    4    4    0    0 -0.45207479549E+02  0.26700551463E+02 -0.20900816652E+03  0.21550185459E+03  0.00000000000E+00 0. -1.
</event>
<event>
 8    1  0.6834011E-009  0.1076877E+03  0.7561462E-02  0.1264913E+00
          1   -1    0    0  501    0  0.00000000000E+00  0.00000000000E+00  0.13829780794E+03  0.13829780794E+03  0.00000000000E+00 0. -1.
         -1   -1    0    0    0  501 -0.00000000000E+00 -0.00000000000E+00 -0.17586146410E+03  0.17586146410E+03  0.00000000000E+00 0.  1.
         25    2    1    2    0    0 -0.92578820409E+01  0.65226995874E+02 -0.10938009466E+03  0.17874931817E+03  0.12508814599E+03 0.  0.
         23    2    1    2    0    0  0.92578820409E+01 -0.65226995874E+02  0.71816438508E+02  0.13540995388E+03  0.94010560036E+02 0.  0.
          5    1    3    3  502    0 -0.20582210453E+02  0.84748803652E+02 -0.24304641579E+02  0.90632086536E+02  0.41800000000E+01 0.  1.
         -5    1    3    3    0  502  0.11324328412E+02 -0.19521807778E+02 -0.85075453084E+02  0.88117231631E+02  0.41800000000E+01 0.  1.
        -11    1    4    4    0    0  0.45285945251E+02 -0.44768279704E+02  0.68983594584E+02  0.93881585131E+02  0.00000000000E+00 0. -1.
         11    1    4    4    0    0 -0.36028063210E+02 -0.20458716170E+02  0.28328439239E+01  0.41528368746E+02  0.00000000000E+00 0.  1.
</event>
<event>
 8    1  0.6834011E-009  0.2372943E+03  0.7561462E-02  0.1121609E+00
         -4   -1    0    0    0  501 -0.00000000000E+00  0.00000000000E+00  0.57211159740E+03  0.57211159740E+03  0.00000000000E+00 0.  1.
          4   -1    0    0  501    0  0.00000000000E+00 -0.00000000000E+00 -0.11939685720E+03  0.11939685720E+03  0.00000000000E+00 0. -1.
         25    2    1    2    0    0 -0.22934543912E+03 -0.15824067748E+02  0.15903961625E+03  0.30625343750E+03  0.12509131417E+03 0.  0.
         23    2    1    2    0    0  0.22934543912E+03  0.15824067748E+02  0.29367512395E+03  0.38525501711E+03  0.96574418005E+02 0.  0.
          5    1    3    3  502    0 -0.22848658529E+03 -0.23071538115E+02  0.10673164128E+03  0.25327362907E+03  0.41800000000E+01 0.  1.
         -5    1    3    3    0  502 -0.85885382487E+00  0.72474703669E+01  0.52307974967E+02  0.52979808434E+02  0.41800000000E+01 0.  1.
        -11    1    4    4    0    0  0.99985797892E+02  0.34543189178E+02  0.72161089304E+02  0.12805317063E+03  0.00000000000E+00 0. -1.
         11    1    4    4    0    0  0.12935964123E+03 -0.18719121430E+02  0.22151403465E+03  0.25720184648E+03  0.00000000000E+00 0.  1.
</event>
<event>
 8    1  0.6834011E-009  0.1108248E+03  0.7561462E-02  0.1259050E+00
          1   -1    0    0  501    0  0.00000000000E+00  0.00000000000E+00  0.48168223436E+02  0.48168223436E+02  0.00000000000E+00 0. -1.
         -1   -1    0    0    0  501 -0.00000000000E+00 -0.00000000000E+00 -0.29427498840E+03  0.29427498840E+03  0.00000000000E+00 0.  1.
         25    2    1    2    0    0  0.21081243654E+02 -0.42800589582E+02 -0.11220626806E+03  0.17468235911E+03  0.12508945075E+03 0.  0.
         23    2    1    2    0    0 -0.21081243654E+02  0.42800589582E+02 -0.13390049690E+03  0.16776085272E+03  0.89095742510E+02 0.  0.
          5    1    3    3  502    0  0.71379916273E+02 -0.36760103850E+02 -0.85109277682E+02  0.11707885902E+03  0.41800000000E+01 0.  1.
         -5    1    3    3    0  502 -0.50298672618E+02 -0.60404857322E+01 -0.27096990379E+02  0.57603500090E+02  0.41800000000E+01 0.  1.
        -11    1    4    4    0    0  0.31870374098E+01  0.60372878319E+02 -0.49295168645E+02  0.78006764423E+02  0.00000000000E+00 0. -1.
         11    1    4    4    0    0 -0.24268281064E+02 -0.17572288737E+02 -0.84605328254E+02  0.89754088298E+02  0.00000000000E+00 0.  1.
</event>
<event>
 8    1  0.6834011E-009  0.2155882E+03  0.7561462E-02  0.1137216E+00
         -1   -1    0    0    0  501 -0.00000000000E+00  0.00000000000E+00  0.11943333031E+03  0.11943333031E+03  0.00000000000E+00 0.  1.
          1   -1    0    0  501    0  0.00000000000E+00 -0.00000000000E+00 -0.64256158328E+03  0.64256158328E+03  0.00000000000E+00 0. -1.
         25    2    1    2    0    0 -0.43483531477E+02 -0.20081898834E+03 -0.47321216246E+03  0.53084327049E+03  0.12508294662E+03 0.  0.
         23    2    1    2    0    0  0.43483531477E+02  0.20081898834E+03 -0.49916090512E+02  0.23115164311E+03  0.93382987903E+02 0.  0.
          5    1    3    3  502    0 -0.12079801325E+02 -0.92596013744E+02 -0.35651551661E+03  0.36856577343E+03  0.41800000000E+01 0.  1.
         -5    1    3    3    0  502 -0.31403730152E+02 -0.10822297460E+03 -0.11669664585E+03  0.16227749706E+03  0.41800000000E+01 0.  1.
        -11    1    4    4    0    0  0.42143999994E+02  0.24771411902E+02 -0.18772737688E+02  0.52365592362E+02  0.00000000000E+00 0.  1.
         11    1    4    4    0    0  0.13395314827E+01  0.17604757644E+03 -0.31143352823E+02  0.17878605074E+03  0.00000000000E+00 0. -1.
</event>
<event>
 8    1  0.6834011E-009  0.1185056E+03  0.7561462E-02  0.1245583E+00
          1   -1    0    0  501    0  0.00000000000E+00  0.00000000000E+00  0.43870098835E+03  0.43870098835E+03  0.00000000000E+00 0. -1.
         -1   -1    0    0    0  501 -0.00000000000E+00 -0.00000000000E+00 -0.43459054618E+02  0.43459054618E+02  0.00000000000E+00 0.  1.
         25    2    1    2    0    0  0.67484577243E+02  0.29888340410E+02  0.29173712024E+03  0.32589084556E+03  0.12508722892E+03 0.  0.
         23    2    1    2    0    0 -0.67484577243E+02 -0.29888340410E+02  0.10350481349E+03  0.15626919740E+03  0.90880881285E+02 0.  0.
          5    1    3    3  502    0 -0.12301382603E+02  0.48902457164E+02  0.18152051437E+03  0.18844082325E+03  0.41800000000E+01 0. -1.
         -5    1    3    3    0  502  0.79785959846E+02 -0.19014116754E+02  0.11021660587E+03  0.13745002231E+03  0.41800000000E+01 0. -1.
        -11    1    4    4    0    0 -0.57983958508E+02  0.13777242545E+02  0.22400988161E+02  0.63669114389E+02  0.00000000000E+00 0.  1.
         11    1    4    4    0    0 -0.95006187343E+01 -0.43665582955E+02  0.81103825330E+02  0.92600083014E+02  0.00000000000E+00 0. -1.
</event>
<event>
 8    1  0.6834011E-009  0.1162870E+03  0.7561462E-02  0.1249351E+00
          1   -1    0    0  501    0  0.00000000000E+00  0.00000000000E+00  0.15469262503E+03  0.15469262503E+03  0.00000000000E+00 0. -1.
         -1   -1    0    0    0  501 -0.00000000000E+00 -0.00000000000E+00 -0.10417536307E+03  0.10417536307E+03  0.00000000000E+00 0.  1.
         25    2    1    2    0    0 -0.50199331462E+02 -0.44640766697E+02  0.33559153774E+02  0.14589461286E+03  0.12508497243E+03 0.  0.
         23    2    1    2    0    0  0.50199331462E+02  0.44640766697E+02  0.16958108181E+02  0.11297337524E+03  0.89233598771E+02 0.  0.
          5    1    3    3  502    0 -0.82232919613E+02 -0.64007240499E+02  0.25881497225E+02  0.10745466115E+03  0.41800000000E+01 0.  1.
         -5    1    3    3    0  502  0.32033588151E+02  0.19366473802E+02  0.76776565481E+01  0.38439951709E+02  0.41800000000E+01 0.  1.
        -11    1    4    4    0    0  0.49976896457E+02  0.41749111730E+01  0.41974527964E+02  0.65398631947E+02  0.00000000000E+00 0. -1.
         11    1    4    4    0    0  0.22243500514E+00  0.40465855524E+02 -0.25016419783E+02  0.47574743293E+02  0.00000000000E+00 0.  1.
</event>
<event>
 8    1  0.6834011E-009  0.1050211E+03  0.7561462E-02  0.1270078E+00
          3   -1    0    0  501    0  0.00000000000E+00  0.00000000000E+00  0.98852607347E+02  0.98852607347E+02  0.00000000000E+00 0. -1.
         -3   -1    0    0    0  501 -0.00000000000E+00 -0.00000000000E+00 -0.14415801273E+03  0.14415801273E+03  0.00000000000E+00 0.  1.
         25    2    1    2    0    0 -0.14799114069E+02 -0.47269840761E+02 -0.22523612365E+02  0.13641511909E+03  0.12509324514E+03 0.  0.
         23    2    1    2    0    0  0.14799114069E+02  0.47269840761E+02 -0.22781793016E+02  0.10659550099E+03  0.91597702565E+02 0.  0.
          5    1    3    3  502    0  0.37774548628E+02 -0.66327456723E+02 -0.12978972597E+01  0.76455248195E+02  0.41800000000E+01 0. -1.
         -5    1    3    3    0  502 -0.52573662697E+02  0.19057615962E+02 -0.21225715105E+02  0.59959870891E+02  0.41800000000E+01 0. -1.
        -11    1    4    4    0    0 -0.19264580385E+02  0.37377126336E+02 -0.47441671452E+02  0.63394682906E+02  0.00000000000E+00 0.  1.
         11    1    4    4    0    0  0.34063694454E+02  0.98927144250E+01  0.24659878436E+02  0.43200818083E+02  0.00000000000E+00 0. -1.
</event>
<event>
 8    1  0.6834011E-009  0.8843891E+02  0.7561462E-02  0.1306677E+00
          3   -1    0    0  501    0  0.00000000000E+00  0.00000000000E+00  0.21254101645E+03  0.21254101645E+03  0.00000000000E+00 0. -1.
         -3   -1    0    0    0  501 -0.00000000000E+00 -0.00000000000E+00 -0.64571905560E+02  0.64571905560E+02  0.00000000000E+00 0.  1.
         25    2    1    2    0    0 -0.23237883914E+02 -0.37087579254E+02  0.84010282448E+02  0.15691543221E+03  0.12509691253E+03 0.  0.
         23    2    1    2    0    0  0.23237883914E+02  0.37087579254E+02  0.63958828442E+02  0.12019748980E+03  0.91876096106E+02 0.  0.
          5    1    3    3  502    0 -0.60304476913E+02  0.20493068583E+02  0.43482254093E+02  0.77231953340E+02  0.41800000000E+01 0.  1.
         -5    1    3    3    0  502  0.37066592999E+02 -0.57580647837E+02  0.40528028355E+02  0.79683478867E+02  0.41800000000E+01 0.  1.
        -11    1    4    4    0    0  0.20440972004E+02  0.26364640875E+02  0.87790462260E+02  0.93915349591E+02  0.00000000000E+00 0. -1.
         11    1    4    4    0    0  0.27969119096E+01  0.10722938379E+02 -0.23831633818E+02  0.26282140213E+02  0.00000000000E+00 0.  1.
</event>
<event>
 8    1  0.6834011E-009  0.3114386E+03  0.7561462E-02  0.1079658E+00
          2   -1    0    0  501    0  0.00000000000E+00  0.00000000000E+00  0.11870570485E+04  0.11870570485E+04  0.00000000000E+00 0.  1.
         -2   -1    0    0    0  501 -0.00000000000E+00 -0.00000000000E+00 -0.11950101380E+03  0.11950101380E+03  0.00000000000E+00 0. -1.
         25    2    1    2    0    0  0.15197077061E+03  0.26600879127E+03  0.21118017165E+03  0.39255629071E+03  0.12509030468E+03 0.  0.
         23    2    1    2    0    0 -0.15197077061E+03 -0.26600879127E+03  0.85637586307E+03  0.91400177160E+03  0.90353901370E+02 0.  0.
          5    1    3    3  502    0  0.10824165106E+03  0.20226540611E+03  0.85321817974E+02  0.24479549537E+03  0.41800000000E+01 0.  1.
         -5    1    3    3    0  502  0.43729119559E+02  0.63743385165E+02  0.12585835368E+03  0.14776079534E+03  0.41800000000E+01 0.  1.
        -11    1    4    4    0    0 -0.65381495321E+02 -0.18952996457E+03  0.60486268105E+03  0.63722461529E+03  0.00000000000E+00 0.  1.
         11    1    4    4    0    0 -0.86589275294E+02 -0.76478826701E+02  0.25151318201E+03  0.27677715631E+03  0.00000000000E+00 0. -1.
</event>
<event>
 8    1  0.6834011E-009  0.1186631E+03  0.7561462E-02  0.1245319E+00
         -2   -1    0    0    0  501 -0.00000000000E+00  0.00000000000E+00  0.17203475049E+03  0.17203475049E+03  0.00000000000E+00 0. -1.
          2   -1    0    0  501    0  0.00000000000E+00 -0.00000000000E+00 -0.11361545378E+03  0.11361545378E+03  0.00000000000E+00 0.  1.
         25    2    1    2    0    0  0.86586028597E+02 -0.35516938388E+01  0.21962044632E+02  0.15375429934E+03  0.12509315842E+03 0.  0.
         23    2    1    2    0    0 -0.86586028597E+02  0.35516938388E+01  0.36457252083E+02  0.13189590493E+03  0.92507532825E+02 0.  0.
          5    1    3    3  502    0  0.62960317952E+02 -0.47249572266E+02 -0.27539288730E+02  0.83500949334E+02  0.41800000000E+01 0.  1.
         -5    1    3    3    0  502  0.23625710645E+02  0.43697878427E+02  0.49501333361E+02  0.70253350006E+02  0.41800000000E+01 0.  1.
        -11    1    4    4    0    0  0.22626609695E+01 -0.17247518631E+02  0.36734167237E+02  0.40644748445E+02  0.00000000000E+00 0. -1.
         11    1    4    4    0    0 -0.88848689566E+02  0.20799212469E+02 -0.27691515360E+00  0.91251156480E+02  0.00000000000E+00 0.  1.
</event>
<event>
 8    1  0.6834011E-009  0.1627096E+03  0.7561462E-02  0.1185671E+00
         -1   -1    0    0    0  501 -0.00000000000E+00  0.00000000000E+00  0.45547334624E+02  0.45547334624E+02  0.00000000000E+00 0.  1.
          1   -1    0    0  501    0  0.00000000000E+00 -0.00000000000E+00 -0.80497688277E+03  0.80497688277E+03  0.00000000000E+00 0. -1.
         25    2    1    2    0    0 -0.35149267124E+02 -0.13690068056E+03 -0.54918217504E+03  0.58071145788E+03  0.12508984216E+03 0.  0.
         23    2    1    2    0    0  0.35149267124E+02  0.13690068056E+03 -0.21024737310E+03  0.26981275951E+03  0.92831567798E+02 0.  0.
          5    1    3    3  502    0  0.19319854328E+02 -0.73760649102E+02 -0.11153853436E+03  0.13517472831E+03  0.41800000000E+01 0. -1.
         -5    1    3    3    0  502 -0.54469121452E+02 -0.63140031463E+02 -0.43764364068E+03  0.44553672957E+03  0.41800000000E+01 0. -1.
        -11    1    4    4    0    0 -0.24358898075E+02  0.11878213451E+02 -0.57998829910E+02  0.64018061054E+02  0.00000000000E+00 0.  1.
         11    1    4    4    0    0  0.59508165199E+02  0.12502246711E+03 -0.15224854319E+03  0.20579469846E+03  0.00000000000E+00 0. -1.
</event>
<event>
 8    1  0.6834011E-009  0.1688688E+03  0.7561462E-02  0.1179033E+00
          2   -1    0    0  501    0  0.00000000000E+00  0.00000000000E+00  0.46333052709E+03  0.46333052709E+03  0.00000000000E+00 0. -1.
         -2   -1    0    0    0  501 -0.00000000000E+00 -0.00000000000E+00 -0.80088045327E+02  0.80088045327E+02  0.00000000000E+00 0.  1.
         25    2    1    2    0    0  0.86383091162E+02 -0.13310104658E+03  0.18068717801E+03  0.27106520369E+03  0.12510220349E+03 0.  0.
         23    2    1    2    0    0 -0.86383091162E+02  0.13310104658E+03  0.20255530375E+03  0.27235336872E+03  0.89273620598E+02 0.  0.
          5    1    3    3  502    0  0.94773379776E+02 -0.98776161466E+02  0.68023551815E+02  0.15291631564E+03  0.41800000000E+01 0. -1.
         -5    1    3    3    0  502 -0.83902886131E+01 -0.34324885116E+02  0.11266362619E+03  0.11814888805E+03  0.41800000000E+01 0. -1.
        -11    1    4    4    0    0 -0.12351305301E+02  0.59650823272E+02  0.23797959882E+02  0.65399681607E+02  0.00000000000E+00 0.  1.
         11    1    4    4    0    0 -0.74031785861E+02  0.73450223310E+02  0.17875734387E+03  0.20695368711E+03  0.00000000000E+00 0. -1.
</event>
<event>
 8    1  0.6834011E-009  0.8762254E+02  0.7561462E-02  0.1308713E+00
         -1   -1    0    0    0  501 -0.00000000000E+00  0.00000000000E+00  0.12772262186E+02  0.12772262186E+02  0.00000000000E+00 0.  1.
          1   -1    0    0  501    0  0.00000000000E+00 -0.00000000000E+00 -0.10497546568E+04  0.10497546568E+04  0.00000000000E+00 0. -1.
         25    2    1    2    0    0 -0.20489563809E+02  0.19705601259E+02 -0.66383809263E+03  0.67611947641E+03  0.12509356581E+03 0.  0.
         23    2    1    2    0    0  0.20489563809E+02 -0.19705601259E+02 -0.37314430200E+03  0.38640744259E+03  0.96259589811E+02 0.  0.
          5    1    3    3  502    0  0.17558007622E+02 -0.19420247819E+02 -0.30465568715E+02  0.40386296366E+02  0.41800000000E+01 0.  1.
         -5    1    3    3    0  502 -0.38047571431E+02  0.39125849078E+02 -0.63337252391E+03  0.63573318004E+03  0.41800000000E+01 0.  1.
        -11    1    4    4    0    0  0.40751507520E+02 -0.45575392524E+02 -0.30079625390E+03  0.30694655582E+03  0.00000000000E+00 0. -1.
         11    1    4    4    0    0 -0.20261943711E+02  0.25869791266E+02 -0.72348048098E+02  0.79460886772E+02  0.00000000000E+00 0.  1.
</event>
<event>
 8    1  0.6834011E-009  0.1902746E+03  0.7561462E-02  0.1158214E+00
          2   -1    0    0  501    0  0.00000000000E+00  0.00000000000E+00  0.19753035476E+03  0.19753035476E+03  0.00000000000E+00 0. -1.
         -2   -1    0    0    0  501 -0.00000000000E+00 -0.00000000000E+00 -0.25895972603E+03  0.25895972603E+03  0.00000000000E+00 0.  1.
         25    2    1    2    0    0  0.80461575114E+02  0.14268413817E+03  0.77896457956E+02  0.22032862514E+03  0.12507604303E+03 0.  0.
         23    2    1    2    0    0 -0.80461575114E+02 -0.14268413817E+03 -0.13932582923E+03  0.23616145565E+03  0.97610030698E+02 0.  0.
          5    1    3    3  502    0  0.20169128821E+02  0.13036049905E+03  0.86865412390E+02  0.15799913209E+03  0.41800000000E+01 0.  1.
         -5    1    3    3    0  502  0.60292446293E+02  0.12323639116E+02 -0.89689544341E+01  0.62329493057E+02  0.41800000000E+01 0.  1.
        -11    1    4    4    0    0 -0.88203514125E+02 -0.66880529710E+02 -0.58963745824E+02  0.12541765617E+03  0.00000000000E+00 0. -1.
         11    1    4    4    0    0  0.77419390114E+01 -0.75803608456E+02 -0.80362083404E+02  0.11074379948E+03  0.00000000000E+00 0.  1.
</event>
<event>
 8    1  0.6834011E-009  0.9561715E+02  0.7561462E-02  0.1289792E+00
         -4   -1    0    0    0  501 -0.00000000000E+00  0.00000000000E+00  0.27568303347E+03  0.27568303347E+03  0.00000000000E+00 0.  1.
          4   -1    0    0  501    0  0.00000000000E+00 -0.00000000000E+00 -0.58568682367E+02  0.58568682367E+02  0.00000000000E+00 0. -1.
         25    2    1    2    0    0  0.29335824754E+02 -0.35134420376E+02  0.18411341765E+03  0.22724496780E+03  0.12508999449E+03 0.  0.
         23    2    1    2    0    0 -0.29335824754E+02  0.35134420376E+02  0.33000933457E+02  0.10700674804E+03  0.90919549096E+02 0.  0.
          5    1    3    3  502    0  0.23785515240E+02 -0.66495524279E+02  0.18175391447E+03  0.19503682552E+03  0.41800000000E+01 0. -1.
         -5    1    3    3    0  502  0.55503095142E+01  0.31361103904E+02  0.23595031798E+01  0.32208142278E+02  0.41800000000E+01 0. -1.
        -11    1    4    4    0    0 -0.63804996951E+01 -0.24052785481E+02 -0.13503895036E+02  0.28312584603E+02  0.00000000000E+00 0. -1.
         11    1    4    4    0    0 -0.22955325059E+02  0.59187205857E+02  0.46504828493E+02  0.78694163436E+02  0.00000000000E+00 0.  1.
</event>
<event>
 8    1  0.6834011E-009  0.1138252E+03  0.7561462E-02  0.1253646E+00
         -2   -1    0    0    0  501 -0.00000000000E+00  0.00000000000E+00  0.41712868901E+02  0.41712868901E+02  0.00000000000E+00 0.  1.
          2   -1    0    0  501    0  0.00000000000E+00 -0.00000000000E+00 -0.34092143498E+03  0.34092143498E+03  0.00000000000E+00 0. -1.
         25    2    1    2    0    0 -0.35503838018E+02 -0.26748116896E+02 -0.13374646195E+03  0.18844686539E+03  0.12509244868E+03 0.  0.
         23    2    1    2    0    0  0.35503838018E+02  0.26748116896E+02 -0.16546210413E+03  0.19418743850E+03  0.91406067063E+02 0.  0.
          5    1    3    3  502    0 -0.74748386706E+02  0.89778066705E+01 -0.10065583439E+03  0.12576562219E+03  0.41800000000E+01 0. -1.
         -5    1    3    3    0  502  0.39244548688E+02 -0.35725923566E+02 -0.33090627564E+02  0.62681243199E+02  0.41800000000E+01 0. -1.
        -11    1    4    4    0    0 -0.29232846183E+02  0.72247408833E+00 -0.70709725085E+02  0.76517622064E+02  0.00000000000E+00 0. -1.
         11    1    4    4    0    0  0.64736684201E+02  0.26025642807E+02 -0.94752379042E+02  0.11766981643E+03  0.00000000000E+00 0.  1.
</event>
<event>
 8    1  0.6834011E-009  0.1495713E+03  0.7561462E-02  0.1201001E+00
         -1   -1    0    0    0  501 -0.00000000000E+00  0.00000000000E+00  0.16883548587E+03  0.16883548587E+03  0.00000000000E+00 0.  1.
          1   -1    0    0  501    0  0.00000000000E+00 -0.00000000000E+00 -0.13377306129E+03  0.13377306129E+03  0.00000000000E+00 0. -1.
         25    2    1    2    0    0 -0.92000713839E+02  0.47143228352E+02  0.83561811667E+01  0.16249200050E+03  0.12508880500E+03 0.  0.
         23    2    1    2    0    0  0.92000713839E+02 -0.47143228352E+02  0.26706243412E+02  0.14011654666E+03  0.90734821790E+02 0.  0.
          5    1    3    3  502    0  0.29901142595E+02 -0.28547586173E+01 -0.94375860785E+00  0.30341243474E+02  0.41800000000E+01 0.  1.
         -5    1    3    3    0  502 -0.12190185643E+03  0.49997986970E+02  0.92999397745E+01  0.13215075703E+03  0.41800000000E+01 0.  1.
        -11    1    4    4    0    0  0.10377962483E+03 -0.17696314834E+02  0.25777994292E+02  0.10838761497E+03  0.00000000000E+00 0.  1.
         11    1    4    4    0    0 -0.11778910994E+02 -0.29446913518E+02  0.92824912011E+00  0.31728931693E+02  0.00000000000E+00 0. -1.
</event>
<event>
 8    1  0.6834011E-009  0.8234189E+02  0.7561462E-02  0.1322534E+00
          2   -1    0    0  501    0  0.00000000000E+00  0.00000000000E+00  0.82088493748E+02  0.82088493748E+02  0.00000000000E+00 0. -1.
         -2   -1    0    0    0  501 -0.00000000000E+00 -0.00000000000E+00 -0.15247242379E+03  0.15247242379E+03  0.00000000000E+00 0.  1.
         25    2    1    2    0    0 -0.17154169550E+02  0.12726298360E+02 -0.16846300100E+02  0.12801724552E+03  0.12509353748E+03 0.  0.
         23    2    1    2    0    0  0.17154169550E+02 -0.12726298360E+02 -0.53537629939E+02  0.10654367202E+03  0.89604977678E+02 0.  0.
          5    1    3    3  502    0 -0.13863625154E+02 -0.30003501676E+02  0.42934031410E+02  0.54343478619E+02  0.41800000000E+01 0. -1.
         -5    1    3    3    0  502 -0.32905443960E+01  0.42729800036E+02 -0.59780331511E+02  0.73673766899E+02  0.41800000000E+01 0. -1.
        -11    1    4    4    0    0  0.30680846795E+01 -0.49155673099E+02 -0.44670968130E+02  0.66492020086E+02  0.00000000000E+00 0.  1.
         11    1    4    4    0    0  0.14086084871E+02  0.36429374739E+02 -0.88666618089E+01  0.40051651932E+02  0.00000000000E+00 0. -1.
</event>
<event>
 8    1  0.6834011E-009  0.4017417E+03  0.7561462E-02  0.1043178E+00
          1   -1    0    0  501    0  0.00000000000E+00  0.00000000000E+00  0.12249388294E+04  0.12249388294E+04  0.00000000000E+00 0. -1.
         -1   -1    0    0    0  501 -0.00000000000E+00 -0.00000000000E+00 -0.21690423946E+03  0.21690423946E+03  0.00000000000E+00 0.  1.
         25    2    1    2    0    0 -0.40004806991E+03  0.21977072797E+02  0.81362334735E+02  0.42753937976E+03  0.12509453130E+03 0.  0.
         23    2    1    2    0    0  0.40004806991E+03 -0.21977072797E+02  0.92667225521E+03  0.10143036891E+04  0.97821547647E+02 0.  0.
          5    1    3    3  502    0 -0.31274746246E+03  0.45155184070E+01  0.11354647440E+03  0.33277866432E+03  0.41800000000E+01 0.  1.
         -5    1    3    3    0  502 -0.87300607451E+02  0.17461554390E+02 -0.32184139668E+02  0.94760715432E+02  0.41800000000E+01 0.  1.
        -11    1    4    4    0    0  0.15223984079E+03  0.46654577236E+01  0.46975880178E+03  0.49383404851E+03  0.00000000000E+00 0. -1.
         11    1    4    4    0    0  0.24780822912E+03 -0.26642530520E+02  0.45691345343E+03  0.52046964059E+03  0.00000000000E+00 0.  1.
</event>
<event>
 8    1  0.6834011E-009  0.1075974E+03  0.7561462E-02  0.1265085E+00
         -1   -1    0    0    0  501 -0.00000000000E+00  0.00000000000E+00  0.51376059054E+03  0.51376059054E+03  0.00000000000E+00 0.  1.
          1   -1    0    0  501    0  0.00000000000E+00 -0.00000000000E+00 -0.31174425815E+02  0.31174425815E+02  0.00000000000E+00 0. -1.
         25    2    1    2    0    0 -0.51300405272E+01 -0.10964820775E+02  0.41046693175E+03  0.42927517254E+03  0.12509007589E+03 0.  0.
         23    2    1    2    0    0  0.51300405272E+01  0.10964820775E+02  0.72119232980E+02  0.11565984382E+03  0.89607316091E+02 0.  0.
          5    1    3    3  502    0  0.38494309303E+02  0.41432700711E+02  0.20820794589E+03  0.21579272849E+03  0.41800000000E+01 0.  1.
         -5    1    3    3    0  502 -0.43624349830E+02 -0.52397521485E+02  0.20225898586E+03  0.21348244404E+03  0.41800000000E+01 0.  1.
        -11    1    4    4    0    0  0.38315718847E+02  0.32812207662E+02  0.36101720344E+02  0.62032809821E+02  0.00000000000E+00 0.  1.
         11    1    4    4    0    0 -0.33185678320E+02 -0.21847386887E+02  0.36017512635E+02  0.53627034002E+02  0.00000000000E+00 0. -1.
</event>
<event>
 8    1  0.6834011E-009  0.8067064E+02  0.7561462E-02  0.1327159E+00
          2   -1    0    0  501    0  0.00000000000E+00  0.00000000000E+00  0.37878573155E+03  0.37878573155E+03  0.00000000000E+00 0. -1.
         -2   -1    0    0    0  501 -0.00000000000E+00 -0.00000000000E+00 -0.53490177960E+02  0.53490177960E+02  0.00000000000E+00 0.  1.
         25    2    1    2    0    0 -0.30488467357E+02 -0.15317126063E+02  0.30983107272E+03  0.33586721524E+03  0.12508929473E+03 0.  0.
         23    2    1    2    0    0  0.30488467357E+02  0.15317126063E+02  0.15464480862E+02  0.96408694263E+02  0.88833131030E+02 0.  0.
          5    1    3    3  502    0 -0.68841191489E+02  0.15894969116E+02  0.11689688639E+03  0.13665326245E+03  0.41800000000E+01 0.  1.
         -5    1    3    3    0  502  0.38352724132E+02 -0.31212095179E+02  0.19293418633E+03  0.19921395280E+03  0.41800000000E+01 0.  1.
        -11    1    4    4    0    0  0.17163423806E+02  0.20417320281E+02 -0.34977764224E+02  0.43987430867E+02  0.00000000000E+00 0.  1.
         11    1    4    4    0    0  0.13325043551E+02 -0.51001942178E+01  0.50442245086E+02  0.52421263396E+02  0.00000000000E+00 0. -1.
</event>
<event>
 8    1  0.6834011E-009  0.1056372E+03  0.7561462E-02  0.1268869E+00
         -4   -1    0    0    0  501 -0.00000000000E+00  0.00000000000E+00  0.15989518125E+03  0.15989518125E+03  0.00000000000E+00 0.  1.
          4   -1    0    0  501    0  0.00000000000E+00 -0.00000000000E+00 -0.79707096358E+02  0.79707096358E+02  0.00000000000E+00 0. -1.
         25    2    1    2    0    0  0.39379784548E+01 -0.46665979437E+02  0.41002359260E+02  0.13970744366E+03  0.12507499765E+03 0.  0.
         23    2    1    2    0    0 -0.39379784548E+01  0.46665979437E+02  0.39185725628E+02  0.99894833947E+02  0.79058430577E+02 0.  0.
          5    1    3    3  502    0 -0.48610002030E+02  0.29411738194E+00  0.48398655986E+02  0.68723512015E+02  0.41800000000E+01 0. -1.
         -5    1    3    3    0  502  0.52547980484E+02 -0.46960096819E+02 -0.73962967259E+01  0.70983931643E+02  0.41800000000E+01 0. -1.
        -11    1    4    4    0    0  0.37522564185E+02  0.19156729046E+02  0.18268088081E+02  0.45919997092E+02  0.00000000000E+00 0. -1.
         11    1    4    4    0    0 -0.41460542640E+02  0.27509250390E+02  0.20917637547E+02  0.53974836855E+02  0.00000000000E+00 0.  1.
</event>
<event>
 8    1  0.6834011E-009  0.9317261E+02  0.7561462E-02  0.1295346E+00
          1   -1    0    0  501    0  0.00000000000E+00  0.00000000000E+00  0.35067307311E+03  0.35067307311E+03  0.00000000000E+00 0. -1.
         -1   -1    0    0    0  501 -0.00000000000E+00 -0.00000000000E+00 -0.75148670262E+02  0.75148670262E+02  0.00000000000E+00 0.  1.
         25    2    1    2    0    0 -0.64018541154E+02 -0.35530999352E+02  0.27364936691E+03  0.30966575084E+03  0.12509226877E+03 0.  0.
         23    2    1    2    0    0  0.64018541154E+02  0.35530999352E+02  0.18750359435E+01  0.11615599254E+03  0.90154718771E+02 0.  0.
          5    1    3    3  502    0 -0.36786389720E+02  0.38736925037E+01  0.25561874669E+03  0.25831504025E+03  0.41800000000E+01 0.  1.
         -5    1    3    3    0  502 -0.27232151434E+02 -0.39404691855E+02  0.18030620220E+02  0.51350710584E+02  0.41800000000E+01 0.  1.
        -11    1    4    4    0    0  0.78486860100E+02  0.22707515911E+02 -0.22782773807E+02  0.84822598814E+02  0.00000000000E+00 0.  1.
         11    1    4    4    0    0 -0.14468318946E+02  0.12823483440E+02  0.24657809751E+02  0.31333393726E+02  0.00000000000E+00 0. -1.
</event>
<event>
 8    1  0.6834011E-009  0.1032147E+03  0.7561462E-02  0.1273678E+00
          2   -1    0    0  501    0  0.00000000000E+00  0.00000000000E+00  0.52906617388E+02  0.52906617388E+02  0.00000000000E+00 0.  1.
         -2   -1    0    0    0  501 -0.00000000000E+00 -0.00000000000E+00 -0.34287198849E+03  0.34287198849E+03  0.00000000000E+00 0. -1.
         25    2    1    2    0    0 -0.61179475289E+02  0.19626327114E+02 -0.23177732156E+03  0.27109867278E+03  0.12508254347E+03 0.  0.
         23    2    1    2    0    0  0.61179475289E+02 -0.19626327114E+02 -0.58188049534E+02  0.12467993309E+03  0.89616492317E+02 0.  0.
          5    1    3    3  502    0 -0.40181636698E+02 -0.31126562535E+02 -0.24409683157E+02  0.56539648520E+02  0.41800000000E+01 0.  1.
         -5    1    3    3    0  502 -0.20997838591E+02  0.50752889649E+02 -0.20736763841E+03  0.21455902426E+03  0.41800000000E+01 0.  1.
        -11    1    4    4    0    0  0.59393014471E+02 -0.45246259506E+02 -0.17700049699E+02  0.76733603634E+02  0.00000000000E+00 0.  1.
         11    1    4    4    0    0  0.17864608177E+01  0.25619932392E+02 -0.40487999835E+02  0.47946329460E+02  0.00000000000E+00 0. -1.
</event>
<event>
 8    1  0.6834011E-009  0.9785321E+02  0.7561462E-02  0.1284876E+00
         -2   -1    0    0    0  501 -0.00000000000E+00  0.00000000000E+00  0.32589465919E+02  0.32589465919E+02  0.00000000000E+00 0.  1.
          2   -1    0    0  501    0  0.00000000000E+00 -0.00000000000E+00 -0.78590805131E+03  0.78590805131E+03  0.00000000000E+00 0. -1.
         25    2    1    2    0    0  0.40425612251E+01  0.80579452601E+02 -0.62059674245E+03  0.63819853309E+03  0.12509060882E+03 0.  0.
         23    2    1    2    0    0 -0.40425612251E+01 -0.80579452601E+02 -0.13272184294E+03  0.18029898414E+03  0.91560065562E+02 0.  0.
          5    1    3    3  502    0  0.36288805836E+02  0.68584435772E+02 -0.57838560867E+03  0.58358211673E+03  0.41800000000E+01 0. -1.
         -5    1    3    3    0  502 -0.32246244611E+02  0.11995016829E+02 -0.42211133785E+02  0.54616416357E+02  0.41800000000E+01 0. -1.
        -11    1    4    4    0    0 -0.12650580046E+02 -0.49897102264E+02 -0.86467924869E+01  0.52196982769E+02  0.00000000000E+00 0.  1.
         11    1    4    4    0    0  0.86080188208E+01 -0.30682350336E+02 -0.12407505045E+03  0.12810200137E+03  0.00000000000E+00 0. -1.
</event>
<event>
 8    1  0.6834011E-009  0.1072580E+03  0.7561462E-02  0.1265734E+00
          2   -1    0    0  501    0  0.00000000000E+00  0.00000000000E+00  0.44915674831E+03  0.44915674831E+03  0.00000000000E+00 0. -1.
         -2   -1    0    0    0  501 -0.00000000000E+00 -0.00000000000E+00 -0.35866212638E+02  0.35866212638E+02  0.00000000000E+00 0.  1.
         25    2    1    2    0    0 -0.54871322354E+02  0.25841635642E+02  0.27671430676E+03  0.30967293118E+03  0.12509142492E+03 0.  0.
         23    2    1    2    0    0  0.54871322354E+02 -0.25841635642E+02  0.13657622891E+03  0.17535002977E+03  0.91738293460E+02 0.  0.
          5    1    3    3  502    0 -0.55523170454E+02 -0.33922001485E+02  0.75637788766E+02  0.99860263025E+02  0.41800000000E+01 0. -1.
         -5    1    3    3    0  502  0.65184809971E+00  0.59763637128E+02  0.20107651800E+03  0.20981266816E+03  0.41800000000E+01 0. -1.
        -11    1    4    4    0    0  0.75458189113E+01 -0.39445880721E+02  0.11458731707E+03  0.12142145660E+03  0.00000000000E+00 0. -1.
         11    1    4    4    0    0  0.47325503443E+02  0.13604245079E+02  0.21988911840E+02  0.53928573171E+02  0.00000000000E+00 0.  1.
</event>
<event>
 8    1  0.6834011E-009  0.1307733E+03  0.7561462E-02  0.1226313E+00
         -2   -1    0    0    0  501 -0.00000000000E+00  0.00000000000E+00  0.15285640045E+02  0.15285640045E+02  0.00000000000E+00 0.  1.
          2   -1    0    0  501    0  0.00000000000E+00 -0.00000000000E+00 -0.15146822401E+04  0.15146822401E+04  0.00000000000E+00 0. -1.
         25    2    1    2    0    0 -0.83607362720E+02 -0.53132326730E+02 -0.10175160734E+04  0.10299502126E+04  0.12508095603E+03 0.  0.
         23    2    1    2    0    0  0.83607362720E+02  0.53132326730E+02 -0.48188052663E+03  0.50001766752E+03  0.89418066643E+02 0.  0.
          5    1    3    3  502    0  0.20670639102E+02  0.52908726303E+01 -0.43629732945E+02  0.48747252752E+02  0.41800000000E+01 0.  1.
         -5    1    3    3    0  502 -0.10427800182E+03 -0.58423199361E+02 -0.97388634044E+03  0.98120295983E+03  0.41800000000E+01 0.  1.
        -11    1    4    4    0    0  0.61258379399E+02 -0.13929903592E+01 -0.13617367843E+03  0.14932447946E+03  0.00000000000E+00 0.  1.
         11    1    4    4    0    0  0.22348983321E+02  0.54525317090E+02 -0.34570684821E+03  0.35069318807E+03  0.00000000000E+00 0. -1.
</event>
<event>
 8    1  0.6834011E-009  0.1274900E+03  0.7561462E-02  0.1231228E+00
          2   -1    0    0  501    0  0.00000000000E+00  0.00000000000E+00  0.13819067717E+03  0.13819067717E+03  0.00000000000E+00 0. -1.
         -2   -1    0    0    0  501 -0.00000000000E+00 -0.00000000000E+00 -0.17889270834E+03  0.17889270834E+03  0.00000000000E+00 0.  1.
         25    2    1    2    0    0  0.64173478287E+02  0.47675677804E+02 -0.10282542272E+03  0.18059428043E+03  0.12510004394E+03 0.  0.
         23    2    1    2    0    0 -0.64173478287E+02 -0.47675677804E+02  0.62123391548E+02  0.13648910508E+03  0.91535536592E+02 0.  0.
          5    1    3    3  502    0 -0.16980894565E+02  0.56730079861E+02 -0.16330260978E+02  0.61569493784E+02  0.41800000000E+01 0. -1.
         -5    1    3    3    0  502  0.81154372852E+02 -0.90544020569E+01 -0.86495161745E+02  0.11902478664E+03  0.41800000000E+01 0. -1.
        -11    1    4    4    0    0  0.57852787306E+01 -0.43376033404E+02  0.14479801442E+01  0.43784088096E+02  0.00000000000E+00 0.  1.
         11    1    4    4    0    0 -0.69958757017E+02 -0.42996443996E+01  0.60675411404E+02  0.92705016986E+02  0.00000000000E+00 0. -1.
</event>
<event>
 8    1  0.6834011E-009  0.1233396E+03  0.7561462E-02  0.1237687E+00
          1   -1    0    0  501    0  0.00000000000E+00  0.00000000000E+00  0.90646810512E+02  0.90646810512E+02  0.00000000000E+00 0. -1.
         -1   -1    0    0    0  501 -0.00000000000E+00 -0.00000000000E+00 -0.30385452681E+03  0.30385452681E+03  0.00000000000E+00 0.  1.
         25    2    1    2    0    0  0.55226109790E+02  0.68083694064E+02 -0.82009118538E+01  0.15297353966E+03  0.12509331030E+03 0.  0.
         23    2    1    2    0    0 -0.55226109790E+02 -0.68083694064E+02 -0.20500680445E+03  0.24152779766E+03  0.92857819131E+02 0.  0.
          5    1    3    3  502    0  0.95238132363E+02  0.49093991716E+02 -0.13890858371E+02  0.10812469757E+03  0.41800000000E+01 0. -1.
         -5    1    3    3    0  502 -0.40012022573E+02  0.18989702348E+02  0.56899465168E+01  0.44848842093E+02  0.41800000000E+01 0. -1.
        -11    1    4    4    0    0 -0.12272964407E+02 -0.44084824726E+02 -0.18116064764E+03  0.18685095044E+03  0.00000000000E+00 0.  1.
         11    1    4    4    0    0 -0.42953145383E+02 -0.23998869338E+02 -0.23846156806E+02  0.54676847223E+02  0.00000000000E+00 0. -1.
</event>
<event>
 8    1  0.6834011E-009  0.1191746E+03  0.7561462E-02  0.1244465E+00
         -2   -1    0    0    0  501 -0.00000000000E+00  0.00000000000E+00  0.13349371156E+03  0.13349371156E+03  0.00000000000E+00 0.  1.
          2   -1    0    0  501    0  0.00000000000E+00 -0.00000000000E+00 -0.11855758455E+03  0.11855758455E+03  0.00000000000E+00 0. -1.
         25    2    1    2    0    0  0.51282506550E+02 -0.33686996797E+02  0.12836382205E+02  0.13991878500E+03  0.12509110463E+03 0.  0.
         23    2    1    2    0    0 -0.51282506550E+02  0.33686996797E+02  0.20997448013E+01  0.11213251111E+03  0.93832733571E+02 0.  0.
          5    1    3    3  502    0  0.19383187991E+02  0.41351814955E+02 -0.22347883336E+02  0.51015496336E+02  0.41800000000E+01 0.  1.
         -5    1    3    3    0  502  0.31899318559E+02 -0.75038811753E+02  0.35184265541E+02  0.88903288665E+02  0.41800000000E+01 0.  1.
        -11    1    4    4    0    0  0.23335601548E+02 -0.88451654381E+01 -0.65740245419E+01  0.25807073641E+02  0.00000000000E+00 0. -1.
         11    1    4    4    0    0 -0.74618108097E+02  0.42532162236E+02  0.86737693432E+01  0.86325437474E+02  0.00000000000E+00 0.  1.
</event>
<event>
 8    1  0.6834011E-009  0.1108562E+03  0.7561462E-02  0.1258993E+00
         -1   -1    0    0    0  501 -0.00000000000E+00  0.00000000000E+00  0.11383490026E+03  0.11383490026E+03  0.00000000000E+00 0.  1.
          1   -1    0    0  501    0  0.00000000000E+00 -0.00000000000E+00 -0.13567403935E+03  0.13567403935E+03  0.00000000000E+00 0. -1.
         25    2    1    2    0    0 -0.25616259811E+02 -0.29885294322E+02  0.29436280310E+02  0.13439993535E+03  0.12509006531E+03 0.  0.
         23    2    1    2    0    0  0.25616259811E+02  0.29885294322E+02 -0.51275419398E+02  0.11510900426E+03  0.95244898255E+02 0.  0.
          5    1    3    3  502    0 -0.62269191163E+02 -0.55487997921E+02  0.31980020199E+02  0.89423510182E+02  0.41800000000E+01 0. -1.
         -5    1    3    3    0  502  0.36652931352E+02  0.25602703600E+02 -0.25437398892E+01  0.44976425168E+02  0.41800000000E+01 0. -1.
        -11    1    4    4    0    0  0.55938505424E+02  0.28893589383E+02 -0.97941496646E+01  0.63717197554E+02  0.00000000000E+00 0.  1.
         11    1    4    4    0    0 -0.30322245613E+02  0.99170493896E+00 -0.41481269734E+02  0.51391806705E+02  0.00000000000E+00 0. -1.
</event>
<event>
 8    1  0.6834011E-009  0.1418488E+03  0.7561462E-02  0.1210863E+00
         -1   -1    0    0    0  501 -0.00000000000E+00  0.00000000000E+00  0.54319717838E+02  0.54319717838E+02  0.00000000000E+00 0.  1.
          1   -1    0    0  501    0  0.00000000000E+00 -0.00000000000E+00 -0.44346980987E+03  0.44346980987E+03  0.00000000000E+00 0. -1.
         25    2    1    2    0    0  0.10543951263E+03 -0.27042135933E+02 -0.17919522126E+03  0.24414482931E+03  0.12508797870E+03 0.  0.
         23    2    1    2    0    0 -0.10543951263E+03  0.27042135933E+02 -0.20995487077E+03  0.25364469840E+03  0.91683244525E+02 0.  0.
          5    1    3    3  502    0  0.91879876566E+02 -0.58508718760E+02 -0.69816636061E+02  0.12944889710E+03  0.41800000000E+01 0. -1.
         -5    1    3    3    0  502  0.13559636066E+02  0.31466582827E+02 -0.10937858520E+03  0.11469593221E+03  0.41800000000E+01 0. -1.
        -11    1    4    4    0    0 -0.79267268150E+02  0.59036694628E+02 -0.12667880841E+03  0.16067405395E+03  0.00000000000E+00 0. -1.
         11    1    4    4    0    0 -0.26172244483E+02 -0.31994558695E+02 -0.83276062360E+02  0.92970644451E+02  0.00000000000E+00 0.  1.
</event>
<event>
 8    1  0.6834011E-009  0.2095613E+03  0.7561462E-02  0.1141914E+00
         -2   -1    0    0    0  501 -0.00000000000E+00  0.00000000000E+00  0.78973959506E+02  0.78973959506E+02  0.00000000000E+00 0.  1.
          2   -1    0    0  501    0  0.00000000000E+00 -0.00000000000E+00 -0.65384959329E+03  0.65384959329E+03  0.00000000000E+00 0. -1.
         25    2    1    2    0    0 -0.10926013794E+03 -0.15746053852E+03 -0.38522552693E+03  0.44808435218E+03  0.12509708685E+03 0.  0.
         23    2    1    2    0    0  0.10926013794E+03  0.15746053852E+03 -0.18965010686E+03  0.28473920062E+03  0.91529505633E+02 0.  0.
          5    1    3    3  502    0 -0.82721679170E+02 -0.48985493779E+02 -0.87446322201E+02  0.13002609920E+03  0.41800000000E+01 0.  1.
         -5    1    3    3    0  502 -0.26538458774E+02 -0.10847504474E+03 -0.29777920473E+03  0.31805825299E+03  0.41800000000E+01 0.  1.
        -11    1    4    4    0    0  0.16981137903E+02  0.10215900597E+03 -0.10844692498E+03  0.14995184921E+03  0.00000000000E+00 0.  1.
         11    1    4    4    0    0  0.92279000040E+02  0.55301532553E+02 -0.81203181884E+02  0.13478735141E+03  0.00000000000E+00 0. -1.
</event>
<event>
 8    1  0.6834011E-009  0.1123170E+03  0.7561462E-02  0.1256338E+00
          2   -1    0    0  501    0  0.00000000000E+00  0.00000000000E+00  0.12148816090E+03  0.12148816090E+03  0.00000000000E+00 0. -1.
         -2   -1    0    0    0  501 -0.00000000000E+00 -0.00000000000E+00 -0.11191547091E+03  0.11191547091E+03  0.00000000000E+00 0.  1.
         25    2    1    2    0    0 -0.40350799217E+02 -0.16162518990E+02  0.90662092381E+01  0.13274755450E+03  0.12510117129E+03 0.  0.
         23    2    1    2    0    0  0.40350799217E+02  0.16162518990E+02  0.50648075239E+00  0.10065607732E+03  0.90785325691E+02 0.  0.
          5    1    3    3  502    0 -0.83676227796E+02  0.18670557320E+01 -0.38705888382E+01  0.83890707788E+02  0.41800000000E+01 0. -1.
         -5    1    3    3    0  502  0.43325428579E+02 -0.18029574722E+02  0.12936798076E+02  0.48856846712E+02  0.41800000000E+01 0. -1.
        -11    1    4    4    0    0  0.15143738080E+02  0.49591456665E+02 -0.17990697783E+02  0.54884520440E+02  0.00000000000E+00 0.  1.
         11    1    4    4    0    0  0.25207061137E+02 -0.33428937676E+02  0.18497178535E+02  0.45771556878E+02  0.00000000000E+00 0. -1.
</event>
<event>
 8    1  0.6834011E-009  0.2042325E+03  0.7561462E-02  0.1146216E+00
          4   -1    0    0  501    0  0.00000000000E+00  0.00000000000E+00  0.34765481335E+02  0.34765481335E+02  0.00000000000E+00 0. -1.
         -4   -1    0    0    0  501 -0.00000000000E+00 -0.00000000000E+00 -0.14885524046E+04  0.14885524046E+04  0.00000000000E+00 0.  1.
         25    2    1    2    0    0  0.17877362563E+03  0.18849199144E+02 -0.46346177335E+03  0.51260193488E+03  0.12509447133E+03 0.  0.
         23    2    1    2    0    0 -0.17877362563E+03 -0.18849199144E+02 -0.99032514994E+03  0.10107159511E+04  0.92127789716E+02 0.  0.
          5    1    3    3  502    0  0.10789368309E+03  0.63974892426E+02 -0.20079296433E+03  0.23678919028E+03  0.41800000000E+01 0.  1.
         -5    1    3    3    0  502  0.70879942541E+02 -0.45125693282E+02 -0.26266880902E+03  0.27581274460E+03  0.41800000000E+01 0.  1.
        -11    1    4    4    0    0 -0.10697112775E+02  0.23223687616E+02 -0.77992458464E+02  0.82076741318E+02  0.00000000000E+00 0.  1.
         11    1    4    4    0    0 -0.16807651285E+03 -0.42072886760E+02 -0.91233269148E+03  0.92863920976E+03  0.00000000000E+00 0. -1.
</event>
<event>
 8    1  0.6834011E-009  0.1061673E+03  0.7561462E-02  0.1267837E+00
          1   -1    0    0  501    0  0.00000000000E+00  0.00000000000E+00  0.28951046397E+03  0.28951046397E+03  0.00000000000E+00 0. -1.
         -1   -1    0    0    0  501 -0.00000000000E+00 -0.00000000000E+00 -0.40819342933E+02  0.40819342933E+02  0.00000000000E+00 0.  1.
         25    2    1    2    0    0  0.92788008034E+01 -0.10752316624E+02  0.14294835206E+03  0.19048186578E+03  0.12508957343E+03 0.  0.
         23    2    1    2    0    0 -0.92788008034E+01  0.10752316624E+02  0.10574276899E+03  0.13984794112E+03  0.90411310059E+02 0.  0.
          5    1    3    3  502    0  0.63359357606E+02  0.12107418560E+02  0.56242126683E+02  0.85683411430E+02  0.41800000000E+01 0.  1.
         -5    1    3    3    0  502 -0.54080556802E+02 -0.22859735184E+02  0.86706225372E+02  0.10479845435E+03  0.41800000000E+01 0.  1.
        -11    1    4    4    0    0  0.33235417769E+02 -0.17719507604E+02  0.28659427570E+02  0.47327969877E+02  0.00000000000E+00 0.  1.
         11    1    4    4    0    0 -0.42514218572E+02  0.28471824228E+02  0.77083341416E+02  0.92519971247E+02  0.00000000000E+00 0. -1.
</event>
<event>
 8    1  0.6834011E-009  0.1387769E+03  0.7561462E-02  0.1214984E+00
          2   -1    0    0  501    0  0.00000000000E+00  0.00000000000E+00  0.26312881317E+04  0.26312881317E+04  0.00000000000E+00 0. -1.
         -2   -1    0    0    0  501 -0.00000000000E+00 -0.00000000000E+00 -0.14100744262E+02  0.14100744262E+02  0.00000000000E+00 0.  1.
         25    2    1    2    0    0 -0.56800732466E+02  0.95329299642E+02  0.21372571878E+04  0.21437896002E+04  0.12510621403E+03 0.  0.
         23    2    1    2    0    0  0.56800732466E+02 -0.95329299642E+02  0.47993019965E+03  0.50159927572E+03  0.94630007318E+02 0.  0.
          5    1    3    3  502    0  0.48967000513E+01 -0.86387263073E+01  0.17277924536E+02  0.20361835376E+02  0.41800000000E+01 0.  1.
         -5    1    3    3    0  502 -0.61697432517E+02  0.10396802595E+03  0.21199792632E+04  0.21234277649E+04  0.41800000000E+01 0.  1.
        -11    1    4    4    0    0 -0.92679843551E+01  0.14754125475E+02  0.60548865489E+02  0.63005911346E+02  0.00000000000E+00 0.  1.
         11    1    4    4    0    0  0.66068716821E+02 -0.11008342512E+03  0.41938133416E+03  0.43859336437E+03  0.00000000000E+00 0. -1.
</event>
<event>
 8    1  0.6834011E-009  0.1320446E+03  0.7561462E-02  0.1224453E+00
         -1   -1    0    0    0  501 -0.00000000000E+00  0.00000000000E+00  0.19569681968E+02  0.19569681968E+02  0.00000000000E+00 0.  1.
          1   -1    0    0  501    0  0.00000000000E+00 -0.00000000000E+00 -0.13581209438E+04  0.13581209438E+04  0.00000000000E+00 0. -1.
         25    2    1    2    0    0  0.50630092515E+02 -0.70904217773E+02 -0.10705866670E+04  0.10813861246E+04  0.12509726043E+03 0.  0.
         23    2    1    2    0    0 -0.50630092515E+02  0.70904217773E+02 -0.26796459482E+03  0.29630450115E+03  0.91654345009E+02 0.  0.
          5    1    3    3  502    0  0.15559713142E+01  0.29041409611E+02 -0.44390150614E+03  0.44487284034E+03  0.41800000000E+01 0. -1.
         -5    1    3    3    0  502  0.49074121201E+02 -0.99945627384E+02 -0.62668516086E+03  0.63651328426E+03  0.41800000000E+01 0. -1.
        -11    1    4    4    0    0 -0.23560442157E+02  0.88113097062E+02 -0.22420734588E+03  0.24204947068E+03  0.00000000000E+00 0. -1.
         11    1    4    4    0    0 -0.27069650358E+02 -0.17208879289E+02 -0.43757248941E+02  0.54255030474E+02  0.00000000000E+00 0.  1.
</event>
<event>
 8    1  0.6834011E-009  0.8499630E+02  0.7561462E-02  0.1315442E+00
         -2   -1    0    0    0  501 -0.00000000000E+00  0.00000000000E+00  0.68621702982E+02  0.68621702982E+02  0.00000000000E+00 0.  1.
          2   -1    0    0  501    0  0.00000000000E+00 -0.00000000000E+00 -0.21313585192E+03  0.21313585192E+03  0.00000000000E+00 0. -1.
         25    2    1    2    0    0  0.78806949551E+01  0.26671769811E+02 -0.13820503657E+03  0.18846963115E+03  0.12508669423E+03 0.  0.
         23    2    1    2    0    0 -0.78806949551E+01 -0.26671769811E+02 -0.63091123690E+01  0.93287923752E+02  0.88821974541E+02 0.  0.
          5    1    3    3  502    0  0.45981223844E+02 -0.93942645544E+00 -0.41868946300E+01  0.46369795718E+02  0.41800000000E+01 0.  1.
         -5    1    3    3    0  502 -0.38100528889E+02  0.27611196266E+02 -0.13401814194E+03  0.14209983543E+03  0.41800000000E+01 0.  1.
        -11    1    4    4    0    0  0.19305125763E+02 -0.41381576923E+02  0.22613963631E+02  0.50956002006E+02  0.00000000000E+00 0.  1.
         11    1    4    4    0    0 -0.27185820718E+02  0.14709807112E+02 -0.28923076000E+02  0.42331921746E+02  0.00000000000E+00 0. -1.
</event>
<event>
 8    1  0.6834011E-009  0.7599931E+02  0.7561462E-02  0.1340804E+00
          1   -1    0    0  501    0  0.00000000000E+00  0.00000000000E+00  0.11127347414E+03  0.11127347414E+03  0.00000000000E+00 0. -1.
         -1   -1    0    0    0  501 -0.00000000000E+00 -0.00000000000E+00 -0.16253553872E+03  0.16253553872E+03  0.00000000000E+00 0.  1.
         25    2    1    2    0    0 -0.11985098040E+02 -0.14852827923E+02 -0.10547272289E+03  0.16473001905E+03  0.12508890770E+03 0.  0.
         23    2    1    2    0    0  0.11985098040E+02  0.14852827923E+02  0.54210658313E+02  0.10907899381E+03  0.92710206253E+02 0.  0.
          5    1    3    3  502    0 -0.18770376393E+02 -0.46090122841E+02  0.44868559018E+01  0.50142105354E+02  0.41800000000E+01 0.  1.
         -5    1    3    3    0  502  0.67852783535E+01  0.31237294917E+02 -0.10995957880E+03  0.11458791370E+03  0.41800000000E+01 0.  1.
        -11    1    4    4    0    0 -0.27332830163E+02  0.13484346766E+02 -0.11430500487E+02  0.32550999275E+02  0.00000000000E+00 0.  1.
         11    1    4    4    0    0  0.39317928203E+02  0.13684811570E+01  0.65641158799E+02  0.76527994534E+02  0.00000000000E+00 0. -1.
</event>
<event>
 8    1  0.6834011E-009  0.3314981E+03  0.7561462E-02  0.1070476E+00
          1   -1    0    0  501    0  0.00000000000E+00  0.00000000000E+00  0.90893643236E+03  0.90893643236E+03  0.00000000000E+00 0. -1.
         -1   -1    0    0    0  501 -0.00000000000E+00 -0.00000000000E+00 -0.12634997828E+03  0.12634997828E+03  0.00000000000E+00 0.  1.
         25    2    1    2    0    0  0.31470460211E+03  0.52820673000E+02  0.44605846964E+03  0.56253357600E+03  0.12508739229E+03 0.  0.
         23    2    1    2    0    0 -0.31470460211E+03 -0.52820673000E+02  0.33652798444E+03  0.47275283464E+03  0.91734117243E+02 0.  0.
          5    1    3    3  502    0  0.23182905020E+02 -0.31400175485E+02  0.49131579147E+02  0.62887221080E+02  0.41800000000E+01 0. -1.
         -5    1    3    3    0  502  0.29152169709E+03  0.84220848485E+02  0.39692689049E+03  0.49964635492E+03  0.41800000000E+01 0. -1.
        -11    1    4    4    0    0 -0.82885682494E+02 -0.26195765081E+02  0.40728003433E+02  0.95994920357E+02  0.00000000000E+00 0.  1.
         11    1    4    4    0    0 -0.23181891961E+03 -0.26624907920E+02  0.29579998100E+03  0.37675791428E+03  0.00000000000E+00 0. -1.
</event>
<event>
 8    1  0.6834011E-009  0.1494972E+03  0.7561462E-02  0.1201092E+00
          2   -1    0    0  501    0  0.00000000000E+00  0.00000000000E+00  0.20886460245E+03  0.20886460245E+03  0.00000000000E+00 0. -1.
         -2   -1    0    0    0  501 -0.00000000000E+00 -0.00000000000E+00 -0.12804414007E+03  0.12804414007E+03  0.00000000000E+00 0.  1.
         25    2    1    2    0    0  0.16734128061E+02 -0.10424085811E+03  0.10667962324E+03  0.19538154077E+03  0.12508883610E+03 0.  0.
         23    2    1    2    0    0 -0.16734128061E+02  0.10424085811E+03 -0.25859160865E+02  0.14152720174E+03  0.90636996256E+02 0.  0.
          5    1    3    3  502    0  0.39019026610E+02 -0.12568542965E+03  0.93575108818E+02  0.16153354157E+03  0.41800000000E+01 0.  1.
         -5    1    3    3    0  502 -0.22284898548E+02  0.21444571533E+02  0.13104514426E+02  0.33847999201E+02  0.41800000000E+01 0.  1.
        -11    1    4    4    0    0 -0.46378634378E+02  0.27664719290E+02 -0.24753482087E+02  0.59405801868E+02  0.00000000000E+00 0. -1.
         11    1    4    4    0    0  0.29644506316E+02  0.76576138823E+02 -0.11056787778E+01  0.82121399875E+02  0.00000000000E+00 0.  1.
</event>
<event>
 8    1  0.6834011E-009  0.2028095E+03  0.7561462E-02  0.1147390E+00
          1   -1    0    0  501    0  0.00000000000E+00  0.00000000000E+00  0.15133728109E+03  0.15133728109E+03  0.00000000000E+00 0. -1.
         -1   -1    0    0    0  501 -0.00000000000E+00 -0.00000000000E+00 -0.36679436566E+03  0.36679436566E+03  0.00000000000E+00 0.  1.
         25    2    1    2    0    0  0.11495977235E+03  0.13108159701E+03 -0.23637638717E+03  0.31924790365E+03  0.12508914118E+03 0.  0.
         23    2    1    2    0    0 -0.11495977235E+03 -0.13108159701E+03  0.20919302607E+02  0.19888374310E+03  0.93375541308E+02 0.  0.
          5    1    3    3  502    0  0.81808890830E+00  0.86873747671E+02 -0.13331739627E+03  0.15918139920E+03  0.41800000000E+01 0. -1.
         -5    1    3    3    0  502  0.11414168344E+03  0.44207849341E+02 -0.10305899091E+03  0.16006650445E+03  0.41800000000E+01 0. -1.
        -11    1    4    4    0    0 -0.42039364874E+02  0.44382494153E+01 -0.58634151414E+01  0.42677697853E+02  0.00000000000E+00 0. -1.
         11    1    4    4    0    0 -0.72920407471E+02 -0.13551984643E+03  0.26782717748E+02  0.15620604525E+03  0.00000000000E+00 0.  1.
</event>
<event>
 8    1  0.6834011E-009  0.7321160E+02  0.7561462E-02  0.1349500E+00
          1   -1    0    0  501    0  0.00000000000E+00  0.00000000000E+00  0.85289644766E+03  0.85289644766E+03  0.00000000000E+00 0. -1.
         -1   -1    0    0    0  501 -0.00000000000E+00 -0.00000000000E+00 -0.15624730456E+02  0.15624730456E+02  0.00000000000E+00 0.  1.
         25    2    1    2    0    0  0.25697001019E+02  0.34426498201E+02  0.57696713379E+03  0.59193233596E+03  0.12508915718E+03 0.  0.
         23    2    1    2    0    0 -0.25697001019E+02 -0.34426498201E+02  0.26030458342E+03  0.27658884215E+03  0.83050537732E+02 0.  0.
          5    1    3    3  502    0 -0.10747550562E+02  0.27018311754E+02  0.53458706649E+03  0.53539359641E+03  0.41800000000E+01 0.  1.
         -5    1    3    3    0  502  0.36444551581E+02  0.74081864478E+01  0.42380067298E+02  0.56538739556E+02  0.41800000000E+01 0.  1.
        -11    1    4    4    0    0  0.15630884982E+02 -0.34955903416E+02  0.19901533931E+03  0.20266559903E+03  0.00000000000E+00 0. -1.
         11    1    4    4    0    0 -0.41327886000E+02  0.52940521489E+00  0.61289244101E+02  0.73923243122E+02  0.00000000000E+00 0.  1.
</event>
<event>
 8    1  0.6834011E-009  0.2253452E+03  0.7561462E-02  0.1129960E+00
         -1   -1    0    0    0  501 -0.00000000000E+00  0.00000000000E+00  0.65331194043E+02  0.65331194043E+02  0.00000000000E+00 0.  1.
          1   -1    0    0  501    0  0.00000000000E+00 -0.00000000000E+00 -0.10054409663E+04  0.10054409663E+04  0.00000000000E+00 0. -1.
         25    2    1    2    0    0 -0.21938090373E+03  0.68035639252E-01 -0.63676157713E+03  0.68500912184E+03  0.12507679779E+03 0.  0.
         23    2    1    2    0    0  0.21938090373E+03 -0.68035639252E-01 -0.30334819509E+03  0.38576303847E+03  0.93086029200E+02 0.  0.
          5    1    3    3  502    0 -0.19752753317E+03 -0.48216960513E+01 -0.39017131639E+03  0.43736884165E+03  0.41800000000E+01 0. -1.
         -5    1    3    3    0  502 -0.21853370559E+02  0.48897316906E+01 -0.24659026074E+03  0.24764028019E+03  0.41800000000E+01 0. -1.
        -11    1    4    4    0    0  0.42662322870E+02 -0.28474664207E+02 -0.11507042642E+03  0.12598445670E+03  0.00000000000E+00 0.  1.
         11    1    4    4    0    0  0.17671858086E+03  0.28406628568E+02 -0.18827776868E+03  0.25977858177E+03  0.00000000000E+00 0. -1.
</event>
<event>
 8    1  0.6834011E-009  0.1258307E+03  0.7561462E-02  0.1233777E+00
          2   -1    0    0  501    0  0.00000000000E+00  0.00000000000E+00  0.90427927993E+02  0.90427927993E+02  0.00000000000E+00 0. -1.
         -2   -1    0    0    0  501 -0.00000000000E+00 -0.00000000000E+00 -0.28429105243E+03  0.28429105243E+03  0.00000000000E+00 0.  1.
         25    2    1    2    0    0 -0.75759236682E+02 -0.37825292959E+02 -0.10715135593E+02  0.15143550735E+03  0.12509070319E+03 0.  0.
         23    2    1    2    0    0  0.75759236682E+02  0.37825292959E+02 -0.18314798884E+03  0.22328347307E+03  0.95614375495E+02 0.  0.
          5    1    3    3  502    0 -0.46461752025E+02  0.37115240659E+02 -0.32599085375E+02  0.67944155435E+02  0.41800000000E+01 0. -1.
         -5    1    3    3    0  502 -0.29297484657E+02 -0.74940533618E+02  0.21883949782E+02  0.83491351912E+02  0.41800000000E+01 0. -1.
        -11    1    4    4    0    0  0.38256988364E+02  0.57547872233E+02 -0.16158229277E+03  0.17573898855E+03  0.00000000000E+00 0.  1.
         11    1    4    4    0    0  0.37502248318E+02 -0.19722579274E+02 -0.21565696068E+02  0.47544484529E+02  0.00000000000E+00 0. -1.
</event>
<event>
 8    1  0.6834011E-009  0.1018650E+03  0.7561462E-02  0.1276422E+00
          2   -1    0    0  501    0  0.00000000000E+00  0.00000000000E+00  0.73522015316E+02  0.73522015316E+02  0.00000000000E+00 0. -1.
         -2   -1    0    0    0  501 -0.00000000000E+00 -0.00000000000E+00 -0.18003258911E+03  0.18003258911E+03  0.00000000000E+00 0.  1.
         25    2    1    2    0    0  0.42646287181E+01 -0.37203909369E+02 -0.81149756693E+02  0.15373849428E+03  0.12509166112E+03 0.  0.
         23    2    1    2    0    0 -0.42646287181E+01  0.37203909369E+02 -0.25360817101E+02  0.99816110148E+02  0.88981834498E+02 0.  0.
          5    1    3    3  502    0  0.46277571868E+02  0.61368914682E+01  0.64111258044E+01  0.47305919598E+02  0.41800000000E+01 0.  1.
         -5    1    3    3    0  502 -0.42012943150E+02 -0.43340800837E+02 -0.87560882498E+02  0.10643257468E+03  0.41800000000E+01 0.  1.
        -11    1    4    4    0    0  0.38956329515E+02  0.36112500623E+02 -0.10895217258E+02  0.54225585010E+02  0.00000000000E+00 0. -1.
         11    1    4    4    0    0 -0.43220958233E+02  0.10914087460E+01 -0.14465599842E+02  0.45590525139E+02  0.00000000000E+00 0.  1.
</event>
<event>
 8    1  0.6834011E-009  0.1871004E+03  0.7561462E-02  0.1161103E+00
         -2   -1    0    0    0  501 -0.00000000000E+00  0.00000000000E+00  0.15190062572E+03  0.15190062572E+03  0.00000000000E+00 0. -1.
          2   -1    0    0  501    0  0.00000000000E+00 -0.00000000000E+00 -0.43297501296E+03  0.43297501296E+03  0.00000000000E+00 0.  1.
         25    2    1    2    0    0  0.14524036914E+03 -0.11508397046E+03  0.14535547626E+02  0.22404818470E+03  0.12508885578E+03 0.  0.
         23    2    1    2    0    0 -0.14524036914E+03  0.11508397046E+03 -0.29560993487E+03  0.36082745397E+03  0.92044189719E+02 0.  0.
          5    1    3    3  502    0  0.36074354824E+02 -0.22229464424E+02 -0.50971787797E+02  0.66416140477E+02  0.41800000000E+01 0. -1.
         -5    1    3    3    0  502  0.10916601431E+03 -0.92854506037E+02  0.65507335424E+02  0.15763204423E+03  0.41800000000E+01 0. -1.
        -11    1    4    4    0    0 -0.11510385126E+03  0.72348250922E+02 -0.13369080791E+03  0.19067353803E+03  0.00000000000E+00 0. -1.
         11    1    4    4    0    0 -0.30136517881E+02  0.42735719539E+02 -0.16191912695E+03  0.17015391593E+03  0.00000000000E+00 0.  1.
</event>
<event>
 8    1  0.6834011E-009  0.1745054E+03  0.7561462E-02  0.1173229E+00
          1   -1    0    0  501    0  0.00000000000E+00  0.00000000000E+00  0.10900279901E+04  0.10900279901E+04  0.00000000000E+00 0. -1.
         -1   -1    0    0    0  501 -0.00000000000E+00 -0.00000000000E+00 -0.30617762590E+02  0.30617762590E+02  0.00000000000E+00 0.  1.
         25    2    1    2    0    0  0.71797606139E+02 -0.12074092994E+03  0.69635496714E+03  0.72131234149E+03  0.12509190747E+03 0.  0.
         23    2    1    2    0    0 -0.71797606139E+02  0.12074092994E+03  0.36305526034E+03  0.39933341117E+03  0.89021249188E+02 0.  0.
          5    1    3    3  502    0 -0.30429045236E+02 -0.49854745032E+02  0.30738179989E+03  0.31290967658E+03  0.41800000000E+01 0. -1.
         -5    1    3    3    0  502  0.10222665138E+03 -0.70886184906E+02  0.38897316725E+03  0.40840266490E+03  0.41800000000E+01 0. -1.
        -11    1    4    4    0    0 -0.34938240071E+02 -0.46886794497E+01  0.67335705113E+02  0.76005009817E+02  0.00000000000E+00 0. -1.
         11    1    4    4    0    0 -0.36859366068E+02  0.12542960939E+03  0.29571955522E+03  0.32332840135E+03  0.00000000000E+00 0.  1.
</event>
<event>
 8    1  0.6834011E-009  0.1170379E+03  0.7561462E-02  0.1248065E+00
          1   -1    0    0  501    0  0.00000000000E+00  0.00000000000E+00  0.20066348611E+02  0.20066348611E+02  0.00000000000E+00 0. -1.
         -1   -1    0    0    0  501 -0.00000000000E+00 -0.00000000000E+00 -0.83338299096E+03  0.83338299096E+03  0.00000000000E+00 0.  1.
         25    2    1    2    0    0  0.10551853175E+02 -0.52224734050E+02 -0.60799240561E+03  0.62300879453E+03  0.12508568395E+03 0.  0.
         23    2    1    2    0    0 -0.10551853175E+02  0.52224734050E+02 -0.20532423674E+03  0.23044054504E+03  0.90033539055E+02 0.  0.
          5    1    3    3  502    0 -0.34389294616E+02  0.27214446492E+02 -0.22464513308E+03  0.22892391291E+03  0.41800000000E+01 0. -1.
         -5    1    3    3    0  502  0.44941147791E+02 -0.79439180542E+02 -0.38334727253E+03  0.39408488163E+03  0.41800000000E+01 0. -1.
        -11    1    4    4    0    0 -0.33305602595E+02 -0.80200365399E+01 -0.38056987874E+02  0.51204672407E+02  0.00000000000E+00 0. -1.
         11    1    4    4    0    0  0.22753749420E+02  0.60244770590E+02 -0.16726724886E+03  0.17923587263E+03  0.00000000000E+00 0.  1.
</event>
<event>
 8    1  0.6834011E-009  0.1482961E+03  0.7561462E-02  0.1202583E+00
         -2   -1    0    0    0  501 -0.00000000000E+00  0.00000000000E+00  0.12462973221E+03  0.12462973221E+03  0.00000000000E+00 0.  1.
          2   -1    0    0  501    0  0.00000000000E+00 -0.00000000000E+00 -0.40181570386E+03  0.40181570386E+03  0.00000000000E+00 0. -1.
         25    2    1    2    0    0  0.49801727449E+02  0.11588170051E+03 -0.31897470438E+03  0.36510372654E+03  0.12508832291E+03 0.  0.
         23    2    1    2    0    0 -0.49801727449E+02 -0.11588170051E+03  0.41788732731E+02  0.16134170953E+03  0.91520863623E+02 0.  0.
          5    1    3    3  502    0 -0.36113492018E+02  0.42248412145E+02 -0.57075462921E+02  0.79775895496E+02  0.41800000000E+01 0. -1.
         -5    1    3    3    0  502  0.85915219467E+02  0.73633288370E+02 -0.26189924146E+03  0.28532783105E+03  0.41800000000E+01 0. -1.
        -11    1    4    4    0    0 -0.38915216581E+02 -0.66416433094E+02  0.69410687831E+02  0.10365027859E+03  0.00000000000E+00 0.  1.
         11    1    4    4    0    0 -0.10886510867E+02 -0.49465267420E+02 -0.27621955100E+02  0.57691430936E+02  0.00000000000E+00 0. -1.
</event>
<event>
 8    1  0.6834011E-009  0.1284755E+03  0.7561462E-02  0.1229735E+00
          2   -1    0    0  501    0  0.00000000000E+00  0.00000000000E+00  0.68280724795E+03  0.68280724795E+03  0.00000000000E+00 0. -1.
         -2   -1    0    0    0  501 -0.00000000000E+00 -0.00000000000E+00 -0.37180702224E+02  0.37180702224E+02  0.00000000000E+00 0.  1.
         25    2    1    2    0    0  0.75395636509E+02 -0.88606989150E+02  0.36617529492E+03  0.40406408201E+03  0.12509090786E+03 0.  0.
         23    2    1    2    0    0 -0.75395636509E+02  0.88606989150E+02  0.27945125081E+03  0.31592386817E+03  0.90438865368E+02 0.  0.
          5    1    3    3  502    0 -0.14832892797E+00 -0.45133165036E+00 -0.97388196558E+01  0.10608614896E+02  0.41800000000E+01 0.  1.
         -5    1    3    3    0  502  0.75543965437E+02 -0.88155657500E+02  0.37591411457E+03  0.39345546711E+03  0.41800000000E+01 0.  1.
        -11    1    4    4    0    0 -0.53891269259E+02  0.96610097288E+01  0.57620847514E+02  0.79484376324E+02  0.00000000000E+00 0.  1.
         11    1    4    4    0    0 -0.21504367250E+02  0.78945979422E+02  0.22183040330E+03  0.23643949185E+03  0.00000000000E+00 0. -1.
</event>
<event>
 8    1  0.6834011E-009  0.2244640E+03  0.7561462E-02  0.1130598E+00
          2   -1    0    0  501    0  0.00000000000E+00  0.00000000000E+00  0.67788559276E+03  0.67788559276E+03  0.00000000000E+00 0. -1.
         -2   -1    0    0    0  501 -0.00000000000E+00 -0.00000000000E+00 -0.78248153516E+02  0.78248153516E+02  0.00000000000E+00 0.  1.
         25    2    1    2    0    0  0.66084744624E+02  0.19150138027E+03  0.29527160842E+03  0.37930342235E+03  0.12508313776E+03 0.  0.
         23    2    1    2    0    0 -0.66084744624E+02 -0.19150138027E+03  0.30436583083E+03  0.37683032393E+03  0.91228076495E+02 0.  0.
          5    1    3    3  502    0  0.36332324167E+02 -0.49359998047E+01  0.28375672400E+02  0.46551617132E+02  0.41800000000E+01 0. -1.
         -5    1    3    3    0  502  0.29752420458E+02  0.19643738007E+03  0.26689593602E+03  0.33275180522E+03  0.41800000000E+01 0. -1.
        -11    1    4    4    0    0 -0.40018085560E+02 -0.30793068328E+02  0.12381073756E+03  0.13371147656E+03  0.00000000000E+00 0. -1.
         11    1    4    4    0    0 -0.26066659064E+02 -0.16070831194E+03  0.18055509327E+03  0.24311884737E+03  0.00000000000E+00 0.  1.
</event>
<event>
 8    1  0.6834011E-009  0.1117794E+03  0.7561462E-02  0.1257310E+00
          1   -1    0    0  501    0  0.00000000000E+00  0.00000000000E+00  0.50414390809E+03  0.50414390809E+03  0.00000000000E+00 0. -1.
         -1   -1    0    0    0  501 -0.00000000000E+00 -0.00000000000E+00 -0.99222914673E+02  0.99222914673E+02  0.00000000000E+00 0.  1.
         25    2    1    2    0    0  0.22859491271E+02 -0.52383302282E+02  0.46361723184E+03  0.48358605078E+03  0.12509182287E+03 0.  0.
         23    2    1    2    0    0 -0.22859491271E+02  0.52383302282E+02 -0.58696238428E+02  0.11978077198E+03  0.87382024644E+02 0.  0.
          5    1    3    3  502    0 -0.51025833302E+02 -0.14891296617E+02  0.15050748201E+03  0.15967266804E+03  0.41800000000E+01 0. -1.
         -5    1    3    3    0  502  0.73885324574E+02 -0.37492005665E+02  0.31310974983E+03  0.32391338274E+03  0.41800000000E+01 0. -1.
        -11    1    4    4    0    0  0.23451147198E+02  0.19221898640E+02 -0.54872755734E+02  0.62693357017E+02  0.00000000000E+00 0.  1.
         11    1    4    4    0    0 -0.46310638470E+02  0.33161403643E+02 -0.38234826941E+01  0.57087414961E+02  0.00000000000E+00 0. -1.
</event>
<event>
 8    1  0.6834011E-009  0.1094937E+03  0.7561462E-02  0.1261510E+00
         -2   -1    0    0    0  501 -0.00000000000E+00  0.00000000000E+00  0.32937323603E+02  0.32937323603E+02  0.00000000000E+00 0.  1.
          2   -1    0    0  501    0  0.00000000000E+00 -0.00000000000E+00 -0.43831190685E+03  0.43831190685E+03  0.00000000000E+00 0. -1.
         25    2    1    2    0    0 -0.17819221466E+00  0.52067830274E+02 -0.21662912248E+03  0.25551103933E+03  0.12508646535E+03 0.  0.
         23    2    1    2    0    0  0.17819221466E+00 -0.52067830274E+02 -0.18874546077E+03  0.21573819112E+03  0.90592645647E+02 0.  0.
          5    1    3    3  502    0  0.43656542408E+02  0.66638278341E+02 -0.88010360325E+02  0.11878488860E+03  0.41800000000E+01 0. -1.
         -5    1    3    3    0  502 -0.43834734623E+02 -0.14570448067E+02 -0.12861876215E+03  0.13672615073E+03  0.41800000000E+01 0. -1.
        -11    1    4    4    0    0 -0.27082915333E+02 -0.58811808714E+02 -0.17015947219E+03  0.18206196506E+03  0.00000000000E+00 0. -1.
         11    1    4    4    0    0  0.27261107548E+02  0.67439784401E+01 -0.18585988579E+02  0.33676226056E+02  0.00000000000E+00 0.  1.
</event>
<event>
 8    1  0.6834011E-009  0.5385903E+02  0.7561462E-02  0.1425573E+00
          2   -1    0    0  501    0  0.00000000000E+00  0.00000000000E+00  0.86629697764E+02  0.86629697764E+02  0.00000000000E+00 0. -1.
         -2   -1    0    0    0  501 -0.00000000000E+00 -0.00000000000E+00 -0.30831151003E+03  0.30831151003E+03  0.00000000000E+00 0.  1.
         25    2    1    2    0    0  0.45590843039E+02  0.50269298065E+01 -0.25600225587E+03  0.28859134308E+03  0.12507603007E+03 0.  0.
         23    2    1    2    0    0 -0.45590843039E+02 -0.50269298065E+01  0.34320443602E+02  0.10634986472E+03  0.89602488157E+02 0.  0.
          5    1    3    3  502    0  0.32460057632E+02  0.16674261714E+02 -0.51489999447E+01  0.37090038361E+02  0.41800000000E+01 0.  1.
         -5    1    3    3    0  502  0.13130785407E+02 -0.11647331907E+02 -0.25085325593E+03  0.25150130472E+03  0.41800000000E+01 0.  1.
        -11    1    4    4    0    0 -0.99010251078E+01 -0.13033061211E+02 -0.28956432428E+02  0.33262079936E+02  0.00000000000E+00 0.  1.
         11    1    4    4    0    0 -0.35689817932E+02  0.80061314047E+01  0.63276876030E+02  0.73087784781E+02  0.00000000000E+00 0. -1.
</event>
<event>
 8    1  0.6834011E-009  0.1132725E+03  0.7561462E-02  0.1254627E+00
          1   -1    0    0  501    0  0.00000000000E+00  0.00000000000E+00  0.61635941174E+03  0.61635941174E+03  0.00000000000E+00 0. -1.
         -1   -1    0    0    0  501 -0.00000000000E+00 -0.00000000000E+00 -0.28931480523E+02  0.28931480523E+02  0.00000000000E+00 0.  1.
         25    2    1    2    0    0  0.69499121841E+02 -0.26602094349E+02  0.30698605145E+03  0.33974331242E+03  0.12508910101E+03 0.  0.
         23    2    1    2    0    0 -0.69499121841E+02  0.26602094349E+02  0.28044187977E+03  0.30554757984E+03  0.95780354235E+02 0.  0.
          5    1    3    3  502    0  0.61322414356E+02 -0.54515329580E+02  0.94436871565E+02  0.12517250007E+03  0.41800000000E+01 0.  1.
         -5    1    3    3    0  502  0.81767074851E+01  0.27913235231E+02  0.21254917988E+03  0.21457081236E+03  0.41800000000E+01 0.  1.
        -11    1    4    4    0    0 -0.18085543919E+02 -0.32176681546E+02  0.49410968386E+02  0.61675518085E+02  0.00000000000E+00 0.  1.
         11    1    4    4    0    0 -0.51413577922E+02  0.58778775895E+02  0.23103091138E+03  0.24387206176E+03  0.00000000000E+00 0. -1.
</event>
<event>
 8    1  0.6834011E-009  0.1305105E+03  0.7561462E-02  0.1226700E+00
          3   -1    0    0  501    0  0.00000000000E+00  0.00000000000E+00  0.33190678465E+03  0.33190678465E+03  0.00000000000E+00 0. -1.
         -3   -1    0    0    0  501 -0.00000000000E+00 -0.00000000000E+00 -0.61025531142E+02  0.61025531142E+02  0.00000000000E+00 0.  1.
         25    2    1    2    0    0 -0.74607100983E+02 -0.48973343326E+02  0.15234331848E+03  0.21637895958E+03  0.12508700808E+03 0.  0.
         23    2    1    2    0    0  0.74607100983E+02  0.48973343326E+02  0.11853793503E+03  0.17655335621E+03  0.95683006197E+02 0.  0.
          5    1    3    3  502    0 -0.10362398298E+03 -0.55287523254E+02  0.14272581584E+03  0.18488583229E+03  0.41800000000E+01 0.  1.
         -5    1    3    3    0  502  0.29016882002E+02  0.63141799283E+01  0.96175026425E+01  0.31493127288E+02  0.41800000000E+01 0.  1.
        -11    1    4    4    0    0 -0.42331317546E+01 -0.12715119942E+02  0.58082466707E+02  0.59608444187E+02  0.00000000000E+00 0. -1.
         11    1    4    4    0    0  0.78840232738E+02  0.61688463267E+02  0.60455468324E+02  0.11694491203E+03  0.00000000000E+00 0.  1.
</event>
<event>
 8    1  0.6834011E-009  0.1066198E+03  0.7561462E-02  0.1266961E+00
         -1   -1    0    0    0  501 -0.00000000000E+00  0.00000000000E+00  0.99995556600E+03  0.99995556600E+03  0.00000000000E+00 0.  1.
          1   -1    0    0  501    0  0.00000000000E+00 -0.00000000000E+00 -0.24503933897E+02  0.24503933897E+02  0.00000000000E+00 0. -1.
         25    2    1    2    0    0 -0.50483257064E+01  0.80959850369E+02  0.78165313505E+03  0.79574436867E+03  0.12508994273E+03 0.  0.
         23    2    1    2    0    0  0.50483257064E+01 -0.80959850369E+02  0.19379849706E+03  0.22871513123E+03  0.90403378412E+02 0.  0.
          5    1    3    3  502    0  0.28039127082E+02  0.91199694457E+02  0.70605189893E+03  0.71248181261E+03  0.41800000000E+01 0. -1.
         -5    1    3    3    0  502 -0.33087452788E+02 -0.10239844088E+02  0.75601236119E+02  0.83262556060E+02  0.41800000000E+01 0. -1.
        -11    1    4    4    0    0  0.11285122489E+02 -0.55498734742E+02  0.19441293302E+03  0.20249407910E+03  0.00000000000E+00 0.  1.
         11    1    4    4    0    0 -0.62367967822E+01 -0.25461115627E+02 -0.61443596173E+00  0.26221052126E+02  0.00000000000E+00 0. -1.
</event>
<event>
 8    1  0.6834011E-009  0.1078313E+03  0.7561462E-02  0.1264639E+00
          2   -1    0    0  501    0  0.00000000000E+00  0.00000000000E+00  0.17301436743E+02  0.17301436743E+02  0.00000000000E+00 0. -1.
         -2   -1    0    0    0  501 -0.00000000000E+00 -0.00000000000E+00 -0.68876067683E+03  0.68876067683E+03  0.00000000000E+00 0.  1.
         25    2    1    2    0    0  0.71926419121E+01 -0.13074047892E+02 -0.36619826076E+03  0.38726229242E+03  0.12509297391E+03 0.  0.
         23    2    1    2    0    0 -0.71926419121E+01  0.13074047892E+02 -0.30526097933E+03  0.31879982115E+03  0.90699479824E+02 0.  0.
          5    1    3    3  502    0  0.42449332162E+02  0.41433909179E+02 -0.20447126834E+03  0.21294291866E+03  0.41800000000E+01 0.  1.
         -5    1    3    3    0  502 -0.35256690250E+02 -0.54507957071E+02 -0.16172699242E+03  0.17431937376E+03  0.41800000000E+01 0.  1.
        -11    1    4    4    0    0  0.16493228404E+02 -0.34367509061E+02 -0.14844231288E+03  0.15325884156E+03  0.00000000000E+00 0.  1.
         11    1    4    4    0    0 -0.23685870316E+02  0.47441556953E+02 -0.15681866645E+03  0.16554097959E+03  0.00000000000E+00 0. -1.
</event>
<event>
 8    1  0.6834011E-009  0.9489852E+02  0.7561462E-02  0.1291405E+00
         -1   -1    0    0    0  501 -0.00000000000E+00  0.00000000000E+00  0.11224591322E+04  0.11224591322E+04  0.00000000000E+00 0.  1.
          1   -1    0    0  501    0  0.00000000000E+00 -0.00000000000E+00 -0.30777750570E+02  0.30777750570E+02  0.00000000000E+00 0. -1.
         25    2    1    2    0    0  0.43362135332E+02  0.51330042451E+02  0.99952012162E+03  0.10095555106E+04  0.12508719901E+03 0.  0.
         23    2    1    2    0    0 -0.43362135332E+02 -0.51330042451E+02  0.92161259987E+02  0.14368137218E+03  0.87381867860E+02 0.  0.
          5    1    3    3  502    0  0.55950269325E+02  0.39048322326E+02  0.98201739963E+03  0.98439364570E+03  0.41800000000E+01 0. -1.
         -5    1    3    3    0  502 -0.12588133994E+02  0.12281720125E+02  0.17502721990E+02  0.25161864870E+02  0.41800000000E+01 0. -1.
        -11    1    4    4    0    0 -0.55458047629E+02 -0.64778584926E+02  0.92205373596E+02  0.12559335584E+03  0.00000000000E+00 0.  1.
         11    1    4    4    0    0  0.12095912298E+02  0.13448542475E+02 -0.44113609313E-01  0.18088016337E+02  0.00000000000E+00 0. -1.
</event>
<event>
 8    1  0.6834011E-009  0.1022023E+03  0.7561462E-02  0.1275732E+00
         -2   -1    0    0    0  501 -0.00000000000E+00  0.00000000000E+00  0.83011246209E+02  0.83011246209E+02  0.00000000000E+00 0.  1.
          2   -1    0    0  501    0  0.00000000000E+00 -0.00000000000E+00 -0.20282143864E+03  0.20282143864E+03  0.00000000000E+00 0. -1.
         25    2    1    2    0    0  0.68898622756E+02 -0.17123098282E+02 -0.58751879432E+02  0.15536935448E+03  0.12509049630E+03 0.  0.
         23    2    1    2    0    0 -0.68898622756E+02  0.17123098282E+02 -0.61058312995E+02  0.13046333036E+03  0.90842403484E+02 0.  0.
          5    1    3    3  502    0  0.42178846154E+02  0.22437472719E+02 -0.87288074955E+02  0.99595058483E+02  0.41800000000E+01 0. -1.
         -5    1    3    3    0  502  0.26719776602E+02 -0.39560571001E+02  0.28536195522E+02  0.55774296002E+02  0.41800000000E+01 0. -1.
        -11    1    4    4    0    0 -0.44241090308E+02  0.50429313551E+02 -0.58390449967E+02  0.88937249700E+02  0.00000000000E+00 0. -1.
         11    1    4    4    0    0 -0.24657532448E+02 -0.33306215269E+02 -0.26678630282E+01  0.41526080661E+02  0.00000000000E+00 0.  1.
</event>
<event>
 8    1  0.6834011E-009  0.1076428E+03  0.7561462E-02  0.1264998E+00
          2   -1    0    0  501    0  0.00000000000E+00  0.00000000000E+00  0.41877123477E+03  0.41877123477E+03  0.00000000000E+00 0.  1.
         -2   -1    0    0    0  501 -0.00000000000E+00 -0.00000000000E+00 -0.33617257517E+02  0.33617257517E+02  0.00000000000E+00 0. -1.
         25    2    1    2    0    0  0.36621934071E+02 -0.23283426680E+02  0.24847695272E+03  0.28155116234E+03  0.12508787700E+03 0.  0.
         23    2    1    2    0    0 -0.36621934071E+02  0.23283426680E+02  0.13667702454E+03  0.17083732994E+03  0.92852034193E+02 0.  0.
          5    1    3    3  502    0  0.79835856983E+02  0.44413249088E+01  0.16614740547E+03  0.18443405915E+03  0.41800000000E+01 0.  1.
         -5    1    3    3    0  502 -0.43213922912E+02 -0.27724751589E+02  0.82329547242E+02  0.97117103196E+02  0.41800000000E+01 0.  1.
        -11    1    4    4    0    0 -0.54363786863E+02  0.32879726996E+02  0.13661577097E+03  0.15066640849E+03  0.00000000000E+00 0.  1.
         11    1    4    4    0    0  0.17741852791E+02 -0.95963003157E+01  0.61253561640E-01  0.20170921452E+02  0.00000000000E+00 0. -1.
</event>
<event>
 8    1  0.6834011E-009  0.1283290E+03  0.7561462E-02  0.1229956E+00
          1   -1    0    0  501    0  0.00000000000E+00  0.00000000000E+00  0.43586547252E+02  0.43586547252E+02  0.00000000000E+00 0. -1.
         -1   -1    0    0    0  501 -0.00000000000E+00 -0.00000000000E+00 -0.39901212017E+03  0.39901212017E+03  0.00000000000E+00 0.  1.
         25    2    1    2    0    0  0.57359585835E+02 -0.37406440484E+02 -0.15074873166E+03  0.20751309057E+03  0.12508852379E+03 0.  0.
         23    2    1    2    0    0 -0.57359585835E+02  0.37406440484E+02 -0.20467684126E+03  0.23508557685E+03  0.93183985857E+02 0.  0.
          5    1    3    3  502    0  0.77565231774E+02  0.20179918571E+02 -0.72186339608E+02  0.10794412592E+03  0.41800000000E+01 0.  1.
         -5    1    3    3    0  502 -0.20205645939E+02 -0.57586359055E+02 -0.78562392049E+02  0.99568964650E+02  0.41800000000E+01 0.  1.
        -11    1    4    4    0    0 -0.22697845729E+02  0.66317451932E+02 -0.13399847914E+03  0.15122430044E+03  0.00000000000E+00 0.  1.
         11    1    4    4    0    0 -0.34661740106E+02 -0.28911011448E+02 -0.70678362119E+02  0.83861276415E+02  0.00000000000E+00 0. -1.
</event>
<event>
 8    1  0.6834011E-009  0.1117193E+03  0.7561462E-02  0.1257419E+00
          2   -1    0    0  501    0  0.00000000000E+00  0.00000000000E+00  0.69888159525E+02  0.69888159525E+02  0.00000000000E+00 0. -1.
         -2   -1    0    0    0  501 -0.00000000000E+00 -0.00000000000E+00 -0.34892828245E+03  0.34892828245E+03  0.00000000000E+00 0.  1.
         25    2    1    2    0    0  0.84186624436E+02  0.42741048743E+02 -0.69316207446E+02  0.17136645999E+03  0.12509013556E+03 0.  0.
         23    2    1    2    0    0 -0.84186624436E+02 -0.42741048743E+02 -0.20972391547E+03  0.24744998198E+03  0.91286296215E+02 0.  0.
          5    1    3    3  502    0  0.72400909984E+02  0.24858374383E+02 -0.10471713419E+03  0.12978051139E+03  0.41800000000E+01 0.  1.
         -5    1    3    3    0  502  0.11785714452E+02  0.17882674360E+02  0.35400926741E+02  0.41585948607E+02  0.41800000000E+01 0.  1.
        -11    1    4    4    0    0  0.14488897046E+02 -0.18217356657E+02 -0.14749809141E+02  0.27556434655E+02  0.00000000000E+00 0.  1.
         11    1    4    4    0    0 -0.98675521482E+02 -0.24523692086E+02 -0.19497410633E+03  0.21989354732E+03  0.00000000000E+00 0. -1.
</event>
<event>
 8    1  0.6834011E-009  0.1343099E+03  0.7561462E-02  0.1221197E+00
         -1   -1    0    0    0  501 -0.00000000000E+00  0.00000000000E+00  0.27666755545E+03  0.27666755545E+03  0.00000000000E+00 0.  1.
          1   -1    0    0  501    0  0.00000000000E+00 -0.00000000000E+00 -0.81440275268E+02  0.81440275268E+02  0.00000000000E+00 0. -1.
         25    2    1    2    0    0 -0.96344298698E+02  0.35499343354E+02  0.12359064241E+03  0.20362794214E+03  0.12508902693E+03 0.  0.
         23    2    1    2    0    0  0.96344298698E+02 -0.35499343354E+02  0.71636637772E+02  0.15447988858E+03  0.90497518385E+02 0.  0.
          5    1    3    3  502    0 -0.50557723853E+02 -0.33478653278E+02  0.10071225772E+03  0.11763220189E+03  0.41800000000E+01 0. -1.
         -5    1    3    3    0  502 -0.45786574845E+02  0.68977996632E+02  0.22878384693E+02  0.85995740252E+02  0.41800000000E+01 0. -1.
        -11    1    4    4    0    0  0.21782939165E+02  0.21867415595E+02  0.48684472321E+02  0.57644237775E+02  0.00000000000E+00 0.  1.
         11    1    4    4    0    0  0.74561359533E+02 -0.57366758949E+02  0.22952165451E+02  0.96835650804E+02  0.00000000000E+00 0. -1.
</event>
<event>
 8    1  0.6834011E-009  0.8698176E+02  0.7561462E-02  0.1310330E+00
         -2   -1    0    0    0  501 -0.00000000000E+00  0.00000000000E+00  0.56637550893E+02  0.56637550893E+02  0.00000000000E+00 0.  1.
          2   -1    0    0  501    0  0.00000000000E+00 -0.00000000000E+00 -0.28506988969E+03  0.28506988969E+03  0.00000000000E+00 0. -1.
         25    2    1    2    0    0  0.29199990582E+02 -0.39937752381E+02 -0.69666399521E+02  0.15148684885E+03  0.12508874705E+03 0.  0.
         23    2    1    2    0    0 -0.29199990582E+02  0.39937752381E+02 -0.15876593927E+03  0.19022059173E+03  0.92355760666E+02 0.  0.
          5    1    3    3  502    0  0.28639580607E+02 -0.60816538221E+02  0.10832084278E+02  0.68217910759E+02  0.41800000000E+01 0. -1.
         -5    1    3    3    0  502  0.56040997471E+00  0.20878785840E+02 -0.80498483799E+02  0.83268938095E+02  0.41800000000E+01 0. -1.
        -11    1    4    4    0    0  0.45044805084E+01 -0.17851352965E+02 -0.52424174713E+00  0.18418359773E+02  0.00000000000E+00 0.  1.
         11    1    4    4    0    0 -0.33704471090E+02  0.57789105346E+02 -0.15824169753E+03  0.17180223195E+03  0.00000000000E+00 0. -1.
</event>
<event>
 8    1  0.6834011E-009  0.1141458E+03  0.7561462E-02  0.1253080E+00
          2   -1    0    0  501    0  0.00000000000E+00  0.00000000000E+00  0.64836852317E+03  0.64836852317E+03  0.00000000000E+00 0. -1.
         -2   -1    0    0    0  501 -0.00000000000E+00 -0.00000000000E+00 -0.28114439630E+02  0.28114439630E+02  0.00000000000E+00 0.  1.
         25    2    1    2    0    0  0.24832973958E+02  0.72660873469E+02  0.39558833620E+03  0.42194133247E+03  0.12509227465E+03 0.  0.
         23    2    1    2    0    0 -0.24832973958E+02 -0.72660873469E+02  0.22466574734E+03  0.25454163033E+03  0.91763088527E+02 0.  0.
          5    1    3    3  502    0 -0.48310276616E+02  0.13074602615E+02  0.10498829961E+03  0.11638231616E+03  0.41800000000E+01 0. -1.
         -5    1    3    3    0  502  0.73143250574E+02  0.59586270854E+02  0.29060003659E+03  0.30555901631E+03  0.41800000000E+01 0. -1.
        -11    1    4    4    0    0 -0.33030572205E+02 -0.61180871581E+02  0.22936624592E+03  0.23967267787E+03  0.00000000000E+00 0. -1.
         11    1    4    4    0    0  0.81975982473E+01 -0.11480001888E+02 -0.47004985863E+01  0.14868952462E+02  0.00000000000E+00 0.  1.
</event>
<event>
 8    1  0.6834011E-009  0.9086940E+02  0.7561462E-02  0.1300760E+00
          1   -1    0    0  501    0  0.00000000000E+00  0.00000000000E+00  0.13593570511E+03  0.13593570511E+03  0.00000000000E+00 0. -1.
         -1   -1    0    0    0  501 -0.00000000000E+00 -0.00000000000E+00 -0.87699054155E+02  0.87699054155E+02  0.00000000000E+00 0.  1.
         25    2    1    2    0    0  0.13258157533E+02 -0.36932574156E+01  0.33500934763E+02  0.13022766590E+03  0.12509002136E+03 0.  0.
         23    2    1    2    0    0 -0.13258157533E+02  0.36932574156E+01  0.14735716188E+02  0.93407093358E+02  0.91204851113E+02 0.  0.
          5    1    3    3  502    0 -0.17997981938E+02 -0.42714005410E+02  0.58026414179E+02  0.74383807071E+02  0.41800000000E+01 0.  1.
         -5    1    3    3    0  502  0.31256139471E+02  0.39020747994E+02 -0.24525479416E+02  0.55843858832E+02  0.41800000000E+01 0.  1.
        -11    1    4    4    0    0 -0.46632058200E+02  0.16234421075E+02  0.26276161333E+02  0.55933370487E+02  0.00000000000E+00 0. -1.
         11    1    4    4    0    0  0.33373900667E+02 -0.12541163659E+02 -0.11540445145E+02  0.37473722871E+02  0.00000000000E+00 0.  1.
</event>
<event>
 8    1  0.6834011E-009  0.7958253E+02  0.7561462E-02  0.1330240E+00
         -1   -1    0    0    0  501 -0.00000000000E+00  0.00000000000E+00  0.18839179326E+03  0.18839179326E+03  0.00000000000E+00 0.  1.
          1   -1    0    0  501    0  0.00000000000E+00 -0.00000000000E+00 -0.11478231697E+03  0.11478231697E+03  0.00000000000E+00 0. -1.
         25    2    1    2    0    0  0.23998370860E+02  0.48402688324E+02  0.12731541515E+03  0.18647976335E+03  0.12508695041E+03 0.  0.
         23    2    1    2    0    0 -0.23998370860E+02 -0.48402688324E+02 -0.53705938861E+02  0.11669434688E+03  0.88399664500E+02 0.  0.
          5    1    3    3  502    0 -0.32052313041E+02  0.32955680000E+02 -0.32114493984E+00  0.46162789664E+02  0.41800000000E+01 0.  1.
         -5    1    3    3    0  502  0.56050683901E+02  0.15447008324E+02  0.12763656009E+03  0.14031697368E+03  0.41800000000E+01 0.  1.
        -11    1    4    4    0    0 -0.56462907402E+01 -0.20902026371E+02  0.23954490548E+02  0.32289207530E+02  0.00000000000E+00 0.  1.
         11    1    4    4    0    0 -0.18352080120E+02 -0.27500661953E+02 -0.77660429408E+02  0.84405139349E+02  0.00000000000E+00 0. -1.
</event>
<event>
 8    1  0.6834011E-009  0.1111906E+03  0.7561462E-02  0.1258381E+00
          1   -1    0    0  501    0  0.00000000000E+00  0.00000000000E+00  0.21895960511E+03  0.21895960511E+03  0.00000000000E+00 0. -1.
         -1   -1    0    0    0  501 -0.00000000000E+00 -0.00000000000E+00 -0.71679998739E+02  0.71679998739E+02  0.00000000000E+00 0.  1.
         25    2    1    2    0    0 -0.52448417364E+02  0.25694940877E+02  0.56258951407E+02  0.14907314410E+03  0.12508663480E+03 0.  0.
         23    2    1    2    0    0  0.52448417364E+02 -0.25694940877E+02  0.91020654968E+02  0.14156645976E+03  0.91352265580E+02 0.  0.
          5    1    3    3  502    0 -0.19838643923E+02 -0.37573228476E+02  0.64445215630E+02  0.77304446887E+02  0.41800000000E+01 0. -1.
         -5    1    3    3    0  502 -0.32609773441E+02  0.63268169353E+02 -0.81862642235E+01  0.71768697209E+02  0.41800000000E+01 0. -1.
        -11    1    4    4    0    0  0.77245225493E+01 -0.54594444014E+02  0.48218958678E+02  0.73248136781E+02  0.00000000000E+00 0.  1.
         11    1    4    4    0    0  0.44723894815E+02  0.28899503137E+02  0.42801696290E+02  0.68318322976E+02  0.00000000000E+00 0. -1.
</event>
<event>
 8    1  0.6834011E-009  0.1393095E+03  0.7561462E-02  0.1214261E+00
         -2   -1    0    0    0  501 -0.00000000000E+00  0.00000000000E+00  0.27156927131E+03  0.27156927131E+03  0.00000000000E+00 0. -1.
          2   -1    0    0  501    0  0.00000000000E+00 -0.00000000000E+00 -0.89739519764E+02  0.89739519764E+02  0.00000000000E+00 0.  1.
         25    2    1    2    0    0 -0.21655606999E+02 -0.10968362104E+03  0.86149626932E+02  0.18859063144E+03  0.12508079791E+03 0.  0.
         23    2    1    2    0    0  0.21655606999E+02  0.10968362104E+03  0.95680124614E+02  0.17271815963E+03  0.90429057177E+02 0.  0.
          5    1    3    3  502    0 -0.14597022428E+02  0.11889111153E+02  0.61262208963E+02  0.64225810036E+02  0.41800000000E+01 0.  1.
         -5    1    3    3    0  502 -0.70585845709E+01 -0.12157273220E+03  0.24887417969E+02  0.12436482140E+03  0.41800000000E+01 0.  1.
        -11    1    4    4    0    0  0.52168219121E+02  0.64358199853E+02  0.81621668471E+02  0.11629960335E+03  0.00000000000E+00 0. -1.
         11    1    4    4    0    0 -0.30512612122E+02  0.45325421190E+02  0.14058456143E+02  0.56418556288E+02  0.00000000000E+00 0.  1.
</event>
<event>
 8    1  0.6834011E-009  0.2148146E+03  0.7561462E-02  0.1137809E+00
          1   -1    0    0  501    0  0.00000000000E+00  0.00000000000E+00  0.13893825315E+03  0.13893825315E+03  0.00000000000E+00 0. -1.
         -1   -1    0    0    0  501 -0.00000000000E+00 -0.00000000000E+00 -0.40863059855E+03  0.40863059855E+03  0.00000000000E+00 0.  1.
         25    2    1    2    0    0 -0.20976267340E+03  0.10944402330E+02 -0.10912922136E+03  0.26772417191E+03  0.12508751405E+03 0.  0.
         23    2    1    2    0    0  0.20976267340E+03 -0.10944402330E+02 -0.16056312403E+03  0.27984467980E+03  0.91718967046E+02 0.  0.
          5    1    3    3  502    0 -0.33716866961E+02  0.13008871682E+02  0.26860898289E+02  0.45222097662E+02  0.41800000000E+01 0.  1.
         -5    1    3    3    0  502 -0.17604580644E+03 -0.20644693526E+01 -0.13599011965E+03  0.22250207424E+03  0.41800000000E+01 0.  1.
        -11    1    4    4    0    0  0.38359401828E+02 -0.23988314933E+02 -0.75579178942E+02  0.88085726718E+02  0.00000000000E+00 0.  1.
         11    1    4    4    0    0  0.17140327158E+03  0.13043912603E+02 -0.84983945090E+02  0.19175895308E+03  0.00000000000E+00 0. -1.
</event>
<event>
 8    1  0.6834011E-009  0.8990044E+02  0.7561462E-02  0.1303093E+00
         -2   -1    0    0    0  501 -0.00000000000E+00  0.00000000000E+00  0.70508142960E+03  0.70508142960E+03  0.00000000000E+00 0.  1.
          2   -1    0    0  501    0  0.00000000000E+00 -0.00000000000E+00 -0.21555849924E+02  0.21555849924E+02  0.00000000000E+00 0. -1.
         25    2    1    2    0    0 -0.44181445980E+02 -0.22132073312E+02  0.29529730427E+03  0.32448387164E+03  0.12508979258E+03 0.  0.
         23    2    1    2    0    0  0.44181445980E+02  0.22132073312E+02  0.38822827541E+03  0.40215340789E+03  0.92543723771E+02 0.  0.
          5    1    3    3  502    0 -0.72851849962E+01  0.19443312627E+02  0.25456474127E+03  0.25544431139E+03  0.41800000000E+01 0. -1.
         -5    1    3    3    0  502 -0.36896260983E+02 -0.41575385938E+02  0.40732563002E+02  0.69039560248E+02  0.41800000000E+01 0. -1.
        -11    1    4    4    0    0 -0.13825141494E+02 -0.24713110985E+02  0.14556623117E+03  0.14829497648E+03  0.00000000000E+00 0. -1.
         11    1    4    4    0    0  0.58006587474E+02  0.46845184296E+02  0.24266204424E+03  0.25385843141E+03  0.00000000000E+00 0.  1.
</event>
<event>
 8    1  0.6834011E-009  0.7194325E+02  0.7561462E-02  0.1353607E+00
          2   -1    0    0  501    0  0.00000000000E+00  0.00000000000E+00  0.47201466243E+03  0.47201466243E+03  0.00000000000E+00 0. -1.
         -2   -1    0    0    0  501 -0.00000000000E+00 -0.00000000000E+00 -0.28275168318E+02  0.28275168318E+02  0.00000000000E+00 0.  1.
         25    2    1    2    0    0  0.26152645553E+02 -0.97960622415E+01  0.32032388548E+03  0.34501759772E+03  0.12509927026E+03 0.  0.
         23    2    1    2    0    0 -0.26152645553E+02  0.97960622415E+01  0.12341560863E+03  0.15527223303E+03  0.89989611575E+02 0.  0.
          5    1    3    3  502    0 -0.30951073826E+01 -0.21220426689E+02 -0.12528917294E+01  0.21884431367E+02  0.41800000000E+01 0. -1.
         -5    1    3    3    0  502  0.29247752936E+02  0.11424364448E+02  0.32157677721E+03  0.32313316635E+03  0.41800000000E+01 0. -1.
        -11    1    4    4    0    0 -0.20926675618E+01  0.46460325005E+02  0.85365780895E+02  0.97212435444E+02  0.00000000000E+00 0.  1.
         11    1    4    4    0    0 -0.24059977991E+02 -0.36664262764E+02  0.38049827734E+02  0.58059797585E+02  0.00000000000E+00 0. -1.
</event>
<event>
 8    1  0.6834011E-009  0.2353268E+03  0.7561462E-02  0.1122946E+00
         -2   -1    0    0    0  501 -0.00000000000E+00  0.00000000000E+00  0.33461042378E+02  0.33461042378E+02  0.00000000000E+00 0.  1.
          2   -1    0    0  501    0  0.00000000000E+00 -0.00000000000E+00 -0.17950838894E+04  0.17950838894E+04  0.00000000000E+00 0. -1.
         25    2    1    2    0    0  0.55017073263E+02 -0.21186203009E+03 -0.85322183371E+03  0.88968946505E+03  0.12508976200E+03 0.  0.
         23    2    1    2    0    0 -0.55017073263E+02  0.21186203009E+03 -0.90840101332E+03  0.93885546674E+03  0.91349812681E+02 0.  0.
          5    1    3    3  502    0 -0.28267301499E+02 -0.23596932749E+02 -0.23942768338E+03  0.24227864854E+03  0.41800000000E+01 0.  1.
         -5    1    3    3    0  502  0.83284374763E+02 -0.18826509734E+03 -0.61379415033E+03  0.64741081651E+03  0.41800000000E+01 0.  1.
        -11    1    4    4    0    0 -0.26455777129E+02  0.18970401320E+03 -0.83920692792E+03  0.86078788829E+03  0.00000000000E+00 0. -1.
         11    1    4    4    0    0 -0.28561296134E+02  0.22158016889E+02 -0.69194085401E+02  0.78067578443E+02  0.00000000000E+00 0.  1.
</event>
<event>
 8    1  0.6834011E-009  0.8285043E+02  0.7561462E-02  0.1321152E+00
         -1   -1    0    0    0  501 -0.00000000000E+00  0.00000000000E+00  0.77130317305E+02  0.77130317305E+02  0.00000000000E+00 0.  1.
          1   -1    0    0  501    0  0.00000000000E+00 -0.00000000000E+00 -0.17635863913E+03  0.17635863913E+03  0.00000000000E+00 0. -1.
         25    2    1    2    0    0 -0.30207283353E+02  0.13481390681E+02 -0.84647931305E+02  0.15462022568E+03  0.12509162264E+03 0.  0.
         23    2    1    2    0    0  0.30207283353E+02 -0.13481390681E+02 -0.14580390519E+02  0.98868730749E+02  0.92022879057E+02 0.  0.
          5    1    3    3  502    0 -0.24040577202E+02 -0.50717914709E+02 -0.12304552832E+02  0.57611896732E+02  0.41800000000E+01 0.  1.
         -5    1    3    3    0  502 -0.61667061514E+01  0.64199305390E+02 -0.72343378472E+02  0.97008328952E+02  0.41800000000E+01 0.  1.
        -11    1    4    4    0    0  0.10159230142E+02  0.97647483341E+01 -0.50029347974E+02  0.51975916786E+02  0.00000000000E+00 0. -1.
         11    1    4    4    0    0  0.20048053211E+02 -0.23246139015E+02  0.35448957455E+02  0.46892813962E+02  0.00000000000E+00 0.  1.
</event>
<event>
 8    1  0.6834011E-009  0.1202109E+03  0.7561462E-02  0.1242750E+00
          2   -1    0    0  501    0  0.00000000000E+00  0.00000000000E+00  0.19759146391E+03  0.19759146391E+03  0.00000000000E+00 0.  1.
         -2   -1    0    0    0  501 -0.00000000000E+00 -0.00000000000E+00 -0.82451828836E+02  0.82451828836E+02  0.00000000000E+00 0. -1.
         25    2    1    2    0    0  0.40340128445E+02  0.49832956196E+02  0.92108611638E+02  0.16804391194E+03  0.12507641871E+03 0.  0.
         23    2    1    2    0    0 -0.40340128445E+02 -0.49832956196E+02  0.23031023438E+02  0.11199938081E+03  0.88897602749E+02 0.  0.
          5    1    3    3  502    0 -0.11697162672E+02 -0.31818191099E+02 -0.26667362960E+00  0.34157933400E+02  0.41800000000E+01 0.  1.
         -5    1    3    3    0  502  0.52037291117E+02  0.81651147295E+02  0.92375285267E+02  0.13388597854E+03  0.41800000000E+01 0.  1.
        -11    1    4    4    0    0  0.70795696123E+01 -0.60362716836E+02  0.90032840625E+01  0.61439702259E+02  0.00000000000E+00 0.  1.
         11    1    4    4    0    0 -0.47419698058E+02  0.10529760640E+02  0.14027739376E+02  0.50559678549E+02  0.00000000000E+00 0. -1.
</event>
<event>
 8    1  0.6834011E-009  0.2121398E+03  0.7561462E-02  0.1139883E+00
          2   -1    0    0  501    0  0.00000000000E+00  0.00000000000E+00  0.32020517913E+04  0.32020517913E+04  0.00000000000E+00 0. -1.
         -2   -1    0    0    0  501 -0.00000000000E+00 -0.00000000000E+00 -0.21173126911E+02  0.21173126911E+02  0.00000000000E+00 0.  1.
         25    2    1    2    0    0  0.12157642277E+03 -0.17207517767E+03  0.22992085483E+04  0.23122279863E+04  0.12509044305E+03 0.  0.
         23    2    1    2    0    0 -0.12157642277E+03  0.17207517767E+03  0.88167011609E+03  0.91099693186E+03  0.90457298822E+02 0.  0.
          5    1    3    3  502    0  0.84932756793E+02 -0.94421225548E+02  0.75418644614E+03  0.76481606217E+03  0.41800000000E+01 0.  1.
         -5    1    3    3    0  502  0.36643665977E+02 -0.77653952126E+02  0.15450221021E+04  0.15474119242E+04  0.41800000000E+01 0.  1.
        -11    1    4    4    0    0 -0.51796150123E+02  0.86531046472E+02  0.24695883994E+03  0.26675669025E+03  0.00000000000E+00 0.  1.
         11    1    4    4    0    0 -0.69780272647E+02  0.85544131201E+02  0.63471127615E+03  0.64424024161E+03  0.00000000000E+00 0. -1.
</event>
<event>
 8    1  0.6834011E-009  0.9661808E+02  0.7561462E-02  0.1287573E+00
         -2   -1    0    0    0  501 -0.00000000000E+00  0.00000000000E+00  0.25389824211E+03  0.25389824211E+03  0.00000000000E+00 0.  1.
          2   -1    0    0  501    0  0.00000000000E+00 -0.00000000000E+00 -0.71477361551E+02  0.71477361551E+02  0.00000000000E+00 0. -1.
         25    2    1    2    0    0  0.14733819063E+02  0.57435727367E+02  0.16629742621E+03  0.21637526920E+03  0.12508986751E+03 0.  0.
         23    2    1    2    0    0 -0.14733819063E+02 -0.57435727367E+02  0.16123454348E+02  0.10900033446E+03  0.90028656160E+02 0.  0.
          5    1    3    3  502    0  0.55762966546E+02  0.13779167238E+02  0.24884700854E+02  0.62738302689E+02  0.41800000000E+01 0.  1.
         -5    1    3    3    0  502 -0.41029147483E+02  0.43656560129E+02  0.14141272536E+03  0.15363696651E+03  0.41800000000E+01 0.  1.
        -11    1    4    4    0    0 -0.31789181428E+02 -0.33334964935E+02  0.47326829401E+02  0.66042416099E+02  0.00000000000E+00 0.  1.
         11    1    4    4    0    0  0.17055362365E+02 -0.24100762432E+02 -0.31203375053E+02  0.42957918361E+02  0.00000000000E+00 0. -1.
</event>
<event>
 8    1  0.6834011E-009  0.1216531E+03  0.7561462E-02  0.1240395E+00
          1   -1    0    0  501    0  0.00000000000E+00  0.00000000000E+00  0.23523456872E+03  0.23523456872E+03  0.00000000000E+00 0. -1.
         -1   -1    0    0    0  501 -0.00000000000E+00 -0.00000000000E+00 -0.10658675129E+03  0.10658675129E+03  0.00000000000E+00 0.  1.
         25    2    1    2    0    0 -0.75086550448E+02  0.39105711514E+02  0.15071337013E+03  0.21337737283E+03  0.12509251204E+03 0.  0.
         23    2    1    2    0    0  0.75086550448E+02 -0.39105711514E+02 -0.22065552705E+02  0.12844394718E+03  0.94041013501E+02 0.  0.
          5    1    3    3  502    0 -0.41657638482E+02  0.83230503327E+02  0.75635403830E+02  0.12000359261E+03  0.41800000000E+01 0. -1.
         -5    1    3    3    0  502 -0.33428911966E+02 -0.44124791813E+02  0.75077966301E+02  0.93373780216E+02  0.41800000000E+01 0. -1.
        -11    1    4    4    0    0  0.52089253024E+02 -0.47150314757E+02  0.25708888614E+02  0.74815703005E+02  0.00000000000E+00 0. -1.
         11    1    4    4    0    0  0.22997297424E+02  0.80446032434E+01 -0.47774441319E+02  0.53628244177E+02  0.00000000000E+00 0.  1.
</event>
<event>
 8    1  0.6834011E-009  0.1235404E+03  0.7561462E-02  0.1237368E+00
         -1   -1    0    0    0  501 -0.00000000000E+00  0.00000000000E+00  0.16802092539E+03  0.16802092539E+03  0.00000000000E+00 0.  1.
          1   -1    0    0  501    0  0.00000000000E+00 -0.00000000000E+00 -0.12473542124E+03  0.12473542124E+03  0.00000000000E+00 0. -1.
         25    2    1    2    0    0 -0.53774385359E+02  0.41274017606E+02 -0.46464895559E+02  0.14967795865E+03  0.12509706526E+03 0.  0.
         23    2    1    2    0    0  0.53774385359E+02 -0.41274017606E+02  0.89750399708E+02  0.14307838798E+03  0.88436767286E+02 0.  0.
          5    1    3    3  502    0 -0.71580747156E+02  0.74658366889E+02 -0.40462563755E+02  0.11114120107E+03  0.41800000000E+01 0.  1.
         -5    1    3    3    0  502  0.17806361797E+02 -0.33384349283E+02 -0.60023318041E+01  0.38536757578E+02  0.41800000000E+01 0.  1.
        -11    1    4    4    0    0  0.24741421655E+02  0.23745862153E+02  0.52522627179E+02  0.62726631351E+02  0.00000000000E+00 0.  1.
         11    1    4    4    0    0  0.29032963703E+02 -0.65019879758E+02  0.37227772529E+02  0.80351756625E+02  0.00000000000E+00 0. -1.
</event>
<event>
 8    1  0.6834011E-009  0.1047615E+03  0.7561462E-02  0.1270590E+00
         -2   -1    0    0    0  501 -0.00000000000E+00  0.00000000000E+00  0.41107131816E+02  0.41107131816E+02  0.00000000000E+00 0.  1.
          2   -1    0    0  501    0  0.00000000000E+00 -0.00000000000E+00 -0.42703710261E+03  0.42703710261E+03  0.00000000000E+00 0. -1.
         25    2    1    2    0    0  0.30904938996E+02 -0.12474755463E+01 -0.92842665830E+02  0.15881802369E+03  0.12508690020E+03 0.  0.
         23    2    1    2    0    0 -0.30904938996E+02  0.12474755463E+01 -0.29308730496E+03  0.30932621074E+03  0.93946074252E+02 0.  0.
          5    1    3    3  502    0  0.79345881909E+02  0.42081821737E+01 -0.63197647759E+02  0.10161147994E+03  0.41800000000E+01 0. -1.
         -5    1    3    3    0  502 -0.48440942913E+02 -0.54556577199E+01 -0.29645018071E+02  0.57206543751E+02  0.41800000000E+01 0. -1.
        -11    1    4    4    0    0 -0.67503586740E+01 -0.36004607323E+02 -0.48702412099E+02  0.60941152229E+02  0.00000000000E+00 0.  1.
         11    1    4    4    0    0 -0.24154580322E+02  0.37252082870E+02 -0.24438489287E+03  0.24838505851E+03  0.00000000000E+00 0. -1.
</event>
<event>
 8    1  0.6834011E-009  0.1253417E+03  0.7561462E-02  0.1234536E+00
          1   -1    0    0  501    0  0.00000000000E+00  0.00000000000E+00  0.91105030635E+02  0.91105030635E+02  0.00000000000E+00 0. -1.
         -1   -1    0    0    0  501 -0.00000000000E+00 -0.00000000000E+00 -0.30581890139E+03  0.30581890139E+03  0.00000000000E+00 0.  1.
         25    2    1    2    0    0  0.57986999917E+02  0.82900572235E+02 -0.22232842246E+02  0.16240804315E+03  0.12508827351E+03 0.  0.
         23    2    1    2    0    0 -0.57986999917E+02 -0.82900572235E+02 -0.19248102851E+03  0.23451588887E+03  0.87828006712E+02 0.  0.
          5    1    3    3  502    0  0.71332812351E+02  0.99886855537E+02  0.10177476246E+02  0.12323476559E+03  0.41800000000E+01 0. -1.
         -5    1    3    3    0  502 -0.13345812434E+02 -0.16986283303E+02 -0.32410318492E+02  0.39173277559E+02  0.41800000000E+01 0. -1.
        -11    1    4    4    0    0 -0.75260868945E+01 -0.36656864144E+02 -0.14853603670E+03  0.15317741959E+03  0.00000000000E+00 0.  1.
         11    1    4    4    0    0 -0.50460913022E+02 -0.46243708090E+02 -0.43944991807E+02  0.81338469286E+02  0.00000000000E+00 0. -1.
</event>
<event>
 8    1  0.6834011E-009  0.9551018E+02  0.7561462E-02  0.1290031E+00
         -2   -1    0    0    0  501 -0.00000000000E+00  0.00000000000E+00  0.42806974077E+02  0.42806974077E+02  0.00000000000E+00 0.  1.
          2   -1    0    0  501    0  0.00000000000E+00 -0.00000000000E+00 -0.33537805281E+03  0.33537805281E+03  0.00000000000E+00 0. -1.
         25    2    1    2    0    0  0.27826892285E+02  0.27402791970E+02 -0.11154855874E+03  0.17208849899E+03  0.12508445781E+03 0.  0.
         23    2    1    2    0    0 -0.27826892285E+02 -0.27402791970E+02 -0.18102251999E+03  0.20609652789E+03  0.90450965298E+02 0.  0.
          5    1    3    3  502    0 -0.39865180209E+02  0.17546570468E+02 -0.90289728328E+02  0.10033355456E+03  0.41800000000E+01 0. -1.
         -5    1    3    3    0  502  0.67692072494E+02  0.98562215014E+01 -0.21258830415E+02  0.71754944439E+02  0.41800000000E+01 0. -1.
        -11    1    4    4    0    0 -0.49261541887E+02 -0.29124797767E+02 -0.17447140117E+03  0.18361705580E+03  0.00000000000E+00 0. -1.
         11    1    4    4    0    0  0.21434649602E+02  0.17220057973E+01 -0.65511188123E+01  0.22479472085E+02  0.00000000000E+00 0.  1.
</event>
<event>
 8    1  0.6834011E-009  0.1371780E+03  0.7561462E-02  0.1217177E+00
          2   -1    0    0  501    0  0.00000000000E+00  0.00000000000E+00  0.79043131889E+03  0.79043131889E+03  0.00000000000E+00 0. -1.
         -2   -1    0    0    0  501 -0.00000000000E+00 -0.00000000000E+00 -0.32371944624E+02  0.32371944624E+02  0.00000000000E+00 0.  1.
         25    2    1    2    0    0 -0.90540884338E+02 -0.72105214493E+02  0.36394845241E+03  0.40187418947E+03  0.12509026526E+03 0.  0.
         23    2    1    2    0    0  0.90540884338E+02  0.72105214493E+02  0.39411092186E+03  0.42092907404E+03  0.91983982035E+02 0.  0.
          5    1    3    3  502    0 -0.44491151678E+02 -0.77262769656E+02  0.33588123678E+03  0.34753802061E+03  0.41800000000E+01 0.  1.
         -5    1    3    3    0  502 -0.46049732660E+02  0.51575551632E+01  0.28067215633E+02  0.54336168863E+02  0.41800000000E+01 0.  1.
        -11    1    4    4    0    0 -0.49709798202E+01  0.36196179538E+02  0.18097942542E+03  0.18463051340E+03  0.00000000000E+00 0. -1.
         11    1    4    4    0    0  0.95511864159E+02  0.35909034954E+02  0.21313149644E+03  0.23629856064E+03  0.00000000000E+00 0.  1.
</event>
<event>
 8    1  0.6834011E-009  0.1162491E+03  0.7561462E-02  0.1249416E+00
          2   -1    0    0  501    0  0.00000000000E+00  0.00000000000E+00  0.17111571465E+03  0.17111571465E+03  0.00000000000E+00 0. -1.
         -2   -1    0    0    0  501 -0.00000000000E+00 -0.00000000000E+00 -0.96376268924E+02  0.96376268924E+02  0.00000000000E+00 0.  1.
         25    2    1    2    0    0 -0.54104682090E+02 -0.13679961796E+02  0.82339506298E+02  0.15981464456E+03  0.12508584388E+03 0.  0.
         23    2    1    2    0    0  0.54104682090E+02  0.13679961796E+02 -0.76000605670E+01  0.10767733902E+03  0.91772492822E+02 0.  0.
          5    1    3    3  502    0  0.21521644720E+02 -0.47865422051E+02  0.21706563429E+02  0.56946704167E+02  0.41800000000E+01 0. -1.
         -5    1    3    3    0  502 -0.75626326810E+02  0.34185460255E+02  0.60632942869E+02  0.10286794039E+03  0.41800000000E+01 0. -1.
        -11    1    4    4    0    0 -0.16902323946E+02  0.19140366858E+02 -0.23504958545E+02  0.34706271400E+02  0.00000000000E+00 0.  1.
         11    1    4    4    0    0  0.71007006037E+02 -0.54604050620E+01  0.15904897978E+02  0.72971067619E+02  0.00000000000E+00 0. -1.
</event>
<event>
 8    1  0.6834011E-009  0.7991333E+02  0.7561462E-02  0.1329298E+00
          1   -1    0    0  501    0  0.00000000000E+00  0.00000000000E+00  0.47034607195E+02  0.47034607195E+02  0.00000000000E+00 0. -1.
         -1   -1    0    0    0  501 -0.00000000000E+00 -0.00000000000E+00 -0.29821735904E+03  0.29821735904E+03  0.00000000000E+00 0.  1.
         25    2    1    2    0    0 -0.18701479454E+02  0.83480981107E+01 -0.20337684296E+03  0.23964264685E+03  0.12508805643E+03 0.  0.
         23    2    1    2    0    0  0.18701479454E+02 -0.83480981107E+01 -0.47805908886E+02  0.10560931938E+03  0.91915653403E+02 0.  0.
          5    1    3    3  502    0  0.12323332919E+02  0.28064317820E+02 -0.20012695918E+03  0.20250368555E+03  0.41800000000E+01 0.  1.
         -5    1    3    3    0  502 -0.31024812373E+02 -0.19716219710E+02 -0.32498837815E+01  0.37138961308E+02  0.41800000000E+01 0.  1.
        -11    1    4    4    0    0 -0.36016686645E+02  0.25347439607E+01 -0.30306590747E+02  0.47139326327E+02  0.00000000000E+00 0. -1.
         11    1    4    4    0    0  0.54718166099E+02 -0.10882842071E+02 -0.17499318139E+02  0.58469993057E+02  0.00000000000E+00 0.  1.
</event>
<event>
 8    1  0.6834011E-009  0.7367860E+02  0.7561462E-02  0.1348012E+00
          2   -1    0    0  501    0  0.00000000000E+00  0.00000000000E+00  0.96019792308E+03  0.96019792308E+03  0.00000000000E+00 0.  1.
         -2   -1    0    0    0  501 -0.00000000000E+00 -0.00000000000E+00 -0.13478308244E+02  0.13478308244E+02  0.00000000000E+00 0. -1.
         25    2    1    2    0    0  0.16408295395E+02  0.10813836099E+02  0.65006447238E+03  0.66228264317E+03  0.12509320519E+03 0.  0.
         23    2    1    2    0    0 -0.16408295395E+02 -0.10813836099E+02  0.29665514246E+03  0.31139358816E+03  0.92604114321E+02 0.  0.
          5    1    3    3  502    0 -0.35307821913E+01 -0.22812580740E+02  0.19533830171E+02  0.30527416923E+02  0.41800000000E+01 0.  1.
         -5    1    3    3    0  502  0.19939077586E+02  0.33626416839E+02  0.63053064221E+03  0.63175522625E+03  0.41800000000E+01 0.  1.
        -11    1    4    4    0    0 -0.40784045834E+02 -0.32348651823E+02  0.10724446316E+03  0.11921052197E+03  0.00000000000E+00 0. -1.
         11    1    4    4    0    0  0.24375750439E+02  0.21534815724E+02  0.18941067929E+03  0.19218306619E+03  0.00000000000E+00 0.  1.
</event>
<event>
 8    1  0.6834011E-009  0.1234114E+03  0.7561462E-02  0.1237573E+00
          1   -1    0    0  501    0  0.00000000000E+00  0.00000000000E+00  0.27665664791E+03  0.27665664791E+03  0.00000000000E+00 0. -1.
         -1   -1    0    0    0  501 -0.00000000000E+00 -0.00000000000E+00 -0.64048949702E+02  0.64048949702E+02  0.00000000000E+00 0.  1.
         25    2    1    2    0    0 -0.64365082937E+02  0.38935184302E+02  0.97480150619E+02  0.17552344774E+03  0.12508912208E+03 0.  0.
         23    2    1    2    0    0  0.64365082937E+02 -0.38935184302E+02  0.11512754759E+03  0.16518214987E+03  0.91498513350E+02 0.  0.
          5    1    3    3  502    0 -0.36053256016E+02  0.80329266851E+02  0.87532405444E+02  0.12422569293E+03  0.41800000000E+01 0. -1.
         -5    1    3    3    0  502 -0.28311826921E+02 -0.41394082550E+02  0.99477451745E+01  0.51297754803E+02  0.41800000000E+01 0. -1.
        -11    1    4    4    0    0  0.30776607924E+01 -0.46496841851E+02  0.83926442625E+02  0.95995187743E+02  0.00000000000E+00 0.  1.
         11    1    4    4    0    0  0.61287422145E+02  0.75616575494E+01  0.31201104964E+02  0.69186962132E+02  0.00000000000E+00 0. -1.
</event>
<event>
 8    1  0.6834011E-009  0.1034370E+03  0.7561462E-02  0.1273230E+00
          2   -1    0    0  501    0  0.00000000000E+00  0.00000000000E+00  0.14349683983E+04  0.14349683983E+04  0.00000000000E+00 0. -1.
         -2   -1    0    0    0  501 -0.00000000000E+00 -0.00000000000E+00 -0.15109179233E+02  0.15109179233E+02  0.00000000000E+00 0.  1.
         25    2    1    2    0    0 -0.54362565808E+01 -0.33798138752E+02  0.12167221140E+04  0.12236143124E+04  0.12508963149E+03 0.  0.
         23    2    1    2    0    0  0.54362565808E+01  0.33798138752E+02  0.20313710507E+03  0.22646326507E+03  0.94069441909E+02 0.  0.
          5    1    3    3  502    0 -0.53047349214E+02  0.67917390184E+01  0.30061148970E+03  0.30536026119E+03  0.41800000000E+01 0. -1.
         -5    1    3    3    0  502  0.47611092633E+02 -0.40589877770E+02  0.91611062428E+03  0.91825405125E+03  0.41800000000E+01 0. -1.
        -11    1    4    4    0    0  0.40238161828E+02 -0.24029605779E+01  0.14057571718E+03  0.14624095236E+03  0.00000000000E+00 0. -1.
         11    1    4    4    0    0 -0.34801905248E+02  0.36201099330E+02  0.62561387890E+02  0.80222312709E+02  0.00000000000E+00 0.  1.
</event>
<event>
 8    1  0.6834011E-009  0.1313540E+03  0.7561462E-02  0.1225460E+00
         -2   -1    0    0    0  501 -0.00000000000E+00  0.00000000000E+00  0.59433788805E+02  0.59433788805E+02  0.00000000000E+00 0. -1.
          2   -1    0    0  501    0  0.00000000000E+00 -0.00000000000E+00 -0.34619241098E+03  0.34619241098E+03  0.00000000000E+00 0.  1.
         25    2    1    2    0    0 -0.32390026458E+02 -0.69318383314E+02 -0.23135807942E+03  0.27391334292E+03  0.12509119249E+03 0.  0.
         23    2    1    2    0    0  0.32390026458E+02  0.69318383314E+02 -0.55400542761E+02  0.13171285687E+03  0.91787278242E+02 0.  0.
          5    1    3    3  502    0  0.41843241144E+02 -0.52188946574E+02 -0.79630294686E+02  0.10408169486E+03  0.41800000000E+01 0.  1.
         -5    1    3    3    0  502 -0.74233267602E+02 -0.17129436740E+02 -0.15172778473E+03  0.16983164805E+03  0.41800000000E+01 0.  1.
        -11    1    4    4    0    0  0.14981999060E+02 -0.21893347310E+02 -0.14668025307E+02  0.30313856876E+02  0.00000000000E+00 0.  1.
         11    1    4    4    0    0  0.17408027399E+02  0.91211730624E+02 -0.40732517453E+02  0.10139899999E+03  0.00000000000E+00 0. -1.
</event>
<event>
 8    1  0.6834011E-009  0.9519023E+02  0.7561462E-02  0.1290748E+00
          2   -1    0    0  501    0  0.00000000000E+00  0.00000000000E+00  0.12576642719E+03  0.12576642719E+03  0.00000000000E+00 0. -1.
         -2   -1    0    0    0  501 -0.00000000000E+00 -0.00000000000E+00 -0.21655567301E+03  0.21655567301E+03  0.00000000000E+00 0.  1.
         25    2    1    2    0    0  0.81733787339E+01  0.40515244381E+02 -0.16972146128E+03  0.21485145893E+03  0.12508991103E+03 0.  0.
         23    2    1    2    0    0 -0.81733787339E+01 -0.40515244381E+02  0.78932215461E+02  0.12747064127E+03  0.91160191972E+02 0.  0.
          5    1    3    3  502    0 -0.40215921584E+02  0.41502552609E+02 -0.26686641313E+02  0.63792095485E+02  0.41800000000E+01 0. -1.
         -5    1    3    3    0  502  0.48389300317E+02 -0.98730822831E+00 -0.14303481997E+03  0.15105936345E+03  0.41800000000E+01 0. -1.
        -11    1    4    4    0    0 -0.26638398066E+02 -0.54522738816E+02  0.84117131772E+02  0.10372090029E+03  0.00000000000E+00 0. -1.
         11    1    4    4    0    0  0.18465019332E+02  0.14007494436E+02 -0.51849163116E+01  0.23749740976E+02  0.00000000000E+00 0.  1.
</event>
<event>
 8    1  0.6834011E-009  0.1450152E+03  0.7561462E-02  0.1206736E+00
         -1   -1    0    0    0  501 -0.00000000000E+00  0.00000000000E+00  0.24085177892E+03  0.24085177892E+03  0.00000000000E+00 0.  1.
          1   -1    0    0  501    0  0.00000000000E+00 -0.00000000000E+00 -0.96205744148E+02  0.96205744148E+02  0.00000000000E+00 0. -1.
         25    2    1    2    0    0  0.79512714275E+02 -0.54630565372E+02  0.12608787042E+03  0.20212013571E+03  0.12509047841E+03 0.  0.
         23    2    1    2    0    0 -0.79512714275E+02  0.54630565372E+02  0.18558164353E+02  0.13493738736E+03  0.92503635812E+02 0.  0.
          5    1    3    3  502    0 -0.30276429007E+02 -0.34326622977E+02  0.31383015353E+02  0.55653798173E+02  0.41800000000E+01 0.  1.
         -5    1    3    3    0  502  0.10978914328E+03 -0.20303942395E+02  0.94704855069E+02  0.14646633754E+03  0.41800000000E+01 0.  1.
        -11    1    4    4    0    0  0.17307547328E+02  0.26256555036E+02 -0.35617890884E+01  0.31648763300E+02  0.00000000000E+00 0.  1.
         11    1    4    4    0    0 -0.96820261603E+02  0.28374010336E+02  0.22119953442E+02  0.10328862406E+03  0.00000000000E+00 0. -1.
</event>
<event>
 8    1  0.6834011E-009  0.1437151E+03  0.7561462E-02  0.1208416E+00
         -1   -1    0    0    0  501 -0.00000000000E+00  0.00000000000E+00  0.89652479698E+02  0.89652479698E+02  0.00000000000E+00 0.  1.
          1   -1    0    0  501    0  0.00000000000E+00 -0.00000000000E+00 -0.25772852912E+03  0.25772852912E+03  0.00000000000E+00 0. -1.
         25    2    1    2    0    0  0.91867518749E+02  0.41225913180E+02 -0.12922166758E+03  0.20611906345E+03  0.12509041541E+03 0.  0.
         23    2    1    2    0    0 -0.91867518749E+02 -0.41225913180E+02 -0.38854381841E+02  0.14126194537E+03  0.91137573490E+02 0.  0.
          5    1    3    3  502    0  0.34379258700E+02 -0.44845982379E+02 -0.52099200624E+02  0.76973337397E+02  0.41800000000E+01 0. -1.
         -5    1    3    3    0  502  0.57488260048E+02  0.86071895559E+02 -0.77122466952E+02  0.12914572605E+03  0.41800000000E+01 0. -1.
        -11    1    4    4    0    0 -0.93512311213E+02 -0.58187597093E+02 -0.49941146511E+02  0.12093166218E+03  0.00000000000E+00 0. -1.
         11    1    4    4    0    0  0.16447924640E+01  0.16961683912E+02  0.11086764670E+02  0.20330283182E+02  0.00000000000E+00 0.  1.
</event>
<event>
 8    1  0.6834011E-009  0.1023457E+03  0.7561462E-02  0.1275439E+00
          1   -1    0    0  501    0  0.00000000000E+00  0.00000000000E+00  0.16546309980E+02  0.16546309980E+02  0.00000000000E+00 0. -1.
         -1   -1    0    0    0  501 -0.00000000000E+00 -0.00000000000E+00 -0.93398150539E+03  0.93398150539E+03  0.00000000000E+00 0.  1.
         25    2    1    2    0    0 -0.55146491353E+02  0.29402395863E+02 -0.46205340193E+03  0.48274966295E+03  0.12509298323E+03 0.  0.
         23    2    1    2    0    0  0.55146491353E+02 -0.29402395863E+02 -0.45538179348E+03  0.46777815242E+03  0.86822725459E+02 0.  0.
          5    1    3    3  502    0 -0.27202805616E+02 -0.34429272593E+02 -0.58733118074E+02  0.73433092018E+02  0.41800000000E+01 0. -1.
         -5    1    3    3    0  502 -0.27943685738E+02  0.63831668455E+02 -0.40332028386E+03  0.40931657094E+03  0.41800000000E+01 0. -1.
        -11    1    4    4    0    0  0.70501724545E+02 -0.22834106669E+02 -0.43573555140E+03  0.44199248902E+03  0.00000000000E+00 0.  1.
         11    1    4    4    0    0 -0.15355233192E+02 -0.65682891930E+01 -0.19646242076E+02  0.25785663401E+02  0.00000000000E+00 0. -1.
</event>
<event>
 8    1  0.6834011E-009  0.1117593E+03  0.7561462E-02  0.1257346E+00
         -1   -1    0    0    0  501 -0.00000000000E+00  0.00000000000E+00  0.15917189244E+03  0.15917189244E+03  0.00000000000E+00 0.  1.
          1   -1    0    0  501    0  0.00000000000E+00 -0.00000000000E+00 -0.22002925211E+03  0.22002925211E+03  0.00000000000E+00 0. -1.
         25    2    1    2    0    0 -0.37774818770E+02  0.80876824641E+02 -0.15700100221E+03  0.21969262924E+03  0.12509012331E+03 0.  0.
         23    2    1    2    0    0  0.37774818770E+02 -0.80876824641E+02  0.96143642543E+02  0.15950851532E+03  0.90726891054E+02 0.  0.
          5    1    3    3  502    0 -0.16375035838E+02 -0.13836289868E+02  0.11863995174E+02  0.24855814158E+02  0.41800000000E+01 0. -1.
         -5    1    3    3    0  502 -0.21399782932E+02  0.94713114509E+02 -0.16886499738E+03  0.19483681508E+03  0.41800000000E+01 0. -1.
        -11    1    4    4    0    0 -0.48758939056E+01 -0.53683166379E+02  0.94627125215E+02  0.10890339536E+03  0.00000000000E+00 0.  1.
         11    1    4    4    0    0  0.42650712675E+02 -0.27193658262E+02  0.15165173274E+01  0.50605119960E+02  0.00000000000E+00 0. -1.
</event>
<event>
 8    1  0.6834011E-009  0.1169462E+03  0.7561462E-02  0.1248222E+00
         -1   -1    0    0    0  501 -0.00000000000E+00  0.00000000000E+00  0.53302044345E+03  0.53302044345E+03  0.00000000000E+00 0.  1.
          1   -1    0    0  501    0  0.00000000000E+00 -0.00000000000E+00 -0.31736410120E+02  0.31736410120E+02  0.00000000000E+00 0. -1.
         25    2    1    2    0    0  0.24881087523E+01 -0.69875036765E+02  0.22916055497E+03  0.27027927116E+03  0.12509041937E+03 0.  0.
         23    2    1    2    0    0 -0.24881087523E+01  0.69875036765E+02  0.27212347836E+03  0.29447758240E+03  0.88188137623E+02 0.  0.
          5    1    3    3  502    0 -0.39305053808E+02 -0.68913190494E+02  0.70713357182E+02  0.10635678804E+03  0.41800000000E+01 0. -1.
         -5    1    3    3    0  502  0.41793162560E+02 -0.96184627083E+00  0.15844719779E+03  0.16392248312E+03  0.41800000000E+01 0. -1.
        -11    1    4    4    0    0 -0.44839910250E+02  0.43903850308E+02  0.15823253388E+03  0.17022250263E+03  0.00000000000E+00 0.  1.
         11    1    4    4    0    0  0.42351801498E+02  0.25971186457E+02  0.11389094447E+03  0.12425507977E+03  0.00000000000E+00 0. -1.
</event>
<event>
 8    1  0.6834011E-009  0.1816153E+03  0.7561462E-02  0.1166249E+00
          1   -1    0    0  501    0  0.00000000000E+00  0.00000000000E+00  0.13022286166E+03  0.13022286166E+03  0.00000000000E+00 0. -1.
         -1   -1    0    0    0  501 -0.00000000000E+00 -0.00000000000E+00 -0.27426198538E+03  0.27426198538E+03  0.00000000000E+00 0.  1.
         25    2    1    2    0    0  0.12220306396E+03  0.91488882531E+02 -0.10475784275E+03  0.22344233913E+03  0.12509384010E+03 0.  0.
         23    2    1    2    0    0 -0.12220306396E+03 -0.91488882531E+02 -0.39281280965E+02  0.18104250791E+03  0.89048111533E+02 0.  0.
          5    1    3    3  502    0  0.10162268866E+03  0.12211238809E+03 -0.94595704878E+02  0.18494438612E+03  0.41800000000E+01 0. -1.
         -5    1    3    3    0  502  0.20580375296E+02 -0.30623505558E+02 -0.10162137871E+02  0.38497953012E+02  0.41800000000E+01 0. -1.
        -11    1    4    4    0    0 -0.77764810235E+02 -0.15720308945E+02 -0.48071485878E+02  0.92765088146E+02  0.00000000000E+00 0.  1.
         11    1    4    4    0    0 -0.44438253722E+02 -0.75768573586E+02  0.87902049128E+01  0.88277419760E+02  0.00000000000E+00 0. -1.
</event>
<event>
 8    1  0.6834011E-009  0.4937050E+03  0.7561462E-02  0.1015435E+00
         -2   -1    0    0    0  501 -0.00000000000E+00  0.00000000000E+00  0.11588569448E+03  0.11588569448E+03  0.00000000000E+00 0.  1.
          2   -1    0    0  501    0  0.00000000000E+00 -0.00000000000E+00 -0.21938730552E+04  0.21938730552E+04  0.00000000000E+00 0. -1.
         25    2    1    2    0    0 -0.37388739131E+03 -0.31547520022E+03 -0.11498884788E+04  0.12558693095E+04  0.12509126937E+03 0.  0.
         23    2    1    2    0    0  0.37388739131E+03  0.31547520022E+03 -0.92809888192E+03  0.10538894401E+04  0.99995170227E+02 0.  0.
          5    1    3    3  502    0 -0.19498173370E+02  0.48078931517E+01 -0.10471570108E+03  0.10670588107E+03  0.41800000000E+01 0. -1.
         -5    1    3    3    0  502 -0.35438921794E+03 -0.32028309337E+03 -0.10451727777E+04  0.11491634285E+04  0.41800000000E+01 0. -1.
        -11    1    4    4    0    0  0.29763103473E+03  0.25226347398E+03 -0.81483529641E+03  0.90342551071E+03  0.00000000000E+00 0. -1.
         11    1    4    4    0    0  0.76256356577E+02  0.63211726240E+02 -0.11326358551E+03  0.15046392942E+03  0.00000000000E+00 0.  1.
</event>
<event>
 8    1  0.6834011E-009  0.1235137E+03  0.7561462E-02  0.1237411E+00
         -1   -1    0    0    0  501 -0.00000000000E+00  0.00000000000E+00  0.39026477068E+02  0.39026477068E+02  0.00000000000E+00 0.  1.
          1   -1    0    0  501    0  0.00000000000E+00 -0.00000000000E+00 -0.42576363407E+03  0.42576363407E+03  0.00000000000E+00 0. -1.
         25    2    1    2    0    0 -0.44803013304E+02  0.49267725486E+02 -0.18164127332E+03  0.23037602525E+03  0.12507974282E+03 0.  0.
         23    2    1    2    0    0  0.44803013304E+02 -0.49267725486E+02 -0.20509588369E+03  0.23441408588E+03  0.91929447836E+02 0.  0.
          5    1    3    3  502    0 -0.56773187947E+02 -0.23725068434E+02 -0.50314496114E+02  0.79593307891E+02  0.41800000000E+01 0.  1.
         -5    1    3    3    0  502  0.11970174643E+02  0.72992793921E+02 -0.13132677720E+03  0.15078271736E+03  0.41800000000E+01 0.  1.
        -11    1    4    4    0    0  0.21822201156E+02  0.25200117281E+02 -0.41720324184E+02  0.53402620014E+02  0.00000000000E+00 0. -1.
         11    1    4    4    0    0  0.22980812148E+02 -0.74467842768E+02 -0.16337555950E+03  0.18101146587E+03  0.00000000000E+00 0.  1.
</event>
<event>
 8    1  0.6834011E-009  0.1817046E+03  0.7561462E-02  0.1166163E+00
          1   -1    0    0  501    0  0.00000000000E+00  0.00000000000E+00  0.18098277280E+04  0.18098277280E+04  0.00000000000E+00 0. -1.
         -1   -1    0    0    0  501 -0.00000000000E+00 -0.00000000000E+00 -0.23103190648E+02  0.23103190648E+02  0.00000000000E+00 0.  1.
         25    2    1    2    0    0 -0.16576001536E+03 -0.65398505096E+01  0.11566197111E+04  0.11751315135E+04  0.12508303508E+03 0.  0.
         23    2    1    2    0    0  0.16576001536E+03  0.65398505096E+01  0.63010482633E+03  0.65779940519E+03  0.90270775821E+02 0.  0.
          5    1    3    3  502    0 -0.34537108890E+02  0.44644889130E+02  0.18861526434E+03  0.19692427061E+03  0.41800000000E+01 0.  1.
         -5    1    3    3    0  502 -0.13122290647E+03 -0.51184739639E+02  0.96800444673E+03  0.97820724289E+03  0.41800000000E+01 0.  1.
        -11    1    4    4    0    0  0.14449586056E+03  0.62102302744E+01  0.61483949127E+03  0.63162110534E+03  0.00000000000E+00 0. -1.
         11    1    4    4    0    0  0.21264154796E+02  0.32962023514E+00  0.15265335056E+02  0.26178299850E+02  0.00000000000E+00 0.  1.
</event>
<event>
 8    1  0.6834011E-009  0.9114538E+02  0.7561462E-02  0.1300101E+00
          2   -1    0    0  501    0  0.00000000000E+00  0.00000000000E+00  0.52784144165E+02  0.52784144165E+02  0.00000000000E+00 0. -1.
         -2   -1    0    0    0  501 -0.00000000000E+00 -0.00000000000E+00 -0.34236989799E+03  0.34236989799E+03  0.00000000000E+00 0.  1.
         25    2    1    2    0    0  0.21362065973E+02 -0.59285209686E+02 -0.23589063330E+03  0.27434241947E+03  0.12509315845E+03 0.  0.
         23    2    1    2    0    0 -0.21362065973E+02  0.59285209686E+02 -0.53695120530E+02  0.12081162269E+03  0.87984136403E+02 0.  0.
          5    1    3    3  502    0 -0.54405844543E+01  0.43214845788E+01  0.13387163833E+02  0.15651317633E+02  0.41800000000E+01 0. -1.
         -5    1    3    3    0  502  0.26802650427E+02 -0.63606694265E+02 -0.24927779713E+03  0.25869110183E+03  0.41800000000E+01 0. -1.
        -11    1    4    4    0    0  0.31700155262E+02  0.33206356906E+02 -0.38116074632E+02  0.59669063408E+02  0.00000000000E+00 0.  1.
         11    1    4    4    0    0 -0.53062221235E+02  0.26078852780E+02 -0.15579045897E+02  0.61142559284E+02  0.00000000000E+00 0. -1.
</event>
<event>
 8    1  0.6834011E-009  0.2258136E+03  0.7561462E-02  0.1129622E+00
          1   -1    0    0  501    0  0.00000000000E+00  0.00000000000E+00  0.12590791883E+04  0.12590791883E+04  0.00000000000E+00 0. -1.
         -1   -1    0    0    0  501 -0.00000000000E+00 -0.00000000000E+00 -0.63995195283E+02  0.63995195283E+02  0.00000000000E+00 0.  1.
         25    2    1    2    0    0  0.13118749669E+03 -0.16534730722E+03  0.97257245446E+03  0.10030428897E+04  0.12509183845E+03 0.  0.
         23    2    1    2    0    0 -0.13118749669E+03  0.16534730722E+03  0.22251153851E+03  0.32003149387E+03  0.91426916197E+02 0.  0.
          5    1    3    3  502    0  0.14669067645E+03 -0.11628559200E+03  0.84347211835E+03  0.86400415526E+03  0.41800000000E+01 0. -1.
         -5    1    3    3    0  502 -0.15503179764E+02 -0.49061715223E+02  0.12910033610E+03  0.13903873441E+03  0.41800000000E+01 0. -1.
        -11    1    4    4    0    0 -0.10435108013E+03  0.14694337592E+03  0.13071663141E+03  0.22263948747E+03  0.00000000000E+00 0.  1.
         11    1    4    4    0    0 -0.26836416556E+02  0.18403931293E+02  0.91794907104E+02  0.97392006401E+02  0.00000000000E+00 0. -1.
</event>
<event>
 8    1  0.6834011E-009  0.9104337E+02  0.7561462E-02  0.1300345E+00
         -1   -1    0    0    0  501 -0.00000000000E+00  0.00000000000E+00  0.23686006652E+02  0.23686006652E+02  0.00000000000E+00 0.  1.
          1   -1    0    0  501    0  0.00000000000E+00 -0.00000000000E+00 -0.80135121089E+03  0.80135121089E+03  0.00000000000E+00 0. -1.
         25    2    1    2    0    0 -0.44100048510E+01 -0.28126845480E+02 -0.67023467299E+03  0.68240164191E+03  0.12508763500E+03 0.  0.
         23    2    1    2    0    0  0.44100048510E+01  0.28126845480E+02 -0.10743053125E+03  0.14263557563E+03  0.89403695733E+02 0.  0.
          5    1    3    3  502    0  0.18946096987E+02  0.37923212033E+02 -0.43057636104E+03  0.43267840215E+03  0.41800000000E+01 0. -1.
         -5    1    3    3    0  502 -0.23356101838E+02 -0.66050057513E+02 -0.23965831194E+03  0.24972323976E+03  0.41800000000E+01 0. -1.
        -11    1    4    4    0    0 -0.28071080397E+02  0.23273861956E+02 -0.72089617741E+01  0.37170247980E+02  0.00000000000E+00 0.  1.
         11    1    4    4    0    0  0.32481085248E+02  0.48529835244E+01 -0.10022156947E+03  0.10546532765E+03  0.00000000000E+00 0. -1.
</event>
<event>
 8    1  0.6834011E-009  0.6106007E+02  0.7561462E-02  0.1393436E+00
         -2   -1    0    0    0  501 -0.00000000000E+00  0.00000000000E+00  0.81757909390E+02  0.81757909390E+02  0.00000000000E+00 0.  1.
          2   -1    0    0  501    0  0.00000000000E+00 -0.00000000000E+00 -0.18776801369E+03  0.18776801369E+03  0.00000000000E+00 0. -1.
         25    2    1    2    0    0 -0.17528245247E+02  0.38221377539E+02 -0.10612231757E+03  0.16934546173E+03  0.12509127084E+03 0.  0.
         23    2    1    2    0    0  0.17528245247E+02 -0.38221377539E+02  0.11221326333E+00  0.10018046135E+03  0.90928538765E+02 0.  0.
          5    1    3    3  502    0  0.25126417690E+01  0.26460119563E+02 -0.13176783875E+03  0.13448675409E+03  0.41800000000E+01 0.  1.
         -5    1    3    3    0  502 -0.20040887016E+02  0.11761257976E+02  0.25645521187E+02  0.34858707643E+02  0.41800000000E+01 0.  1.
        -11    1    4    4    0    0 -0.89332945479E+01 -0.43681159013E+02  0.34552346622E+02  0.56406666816E+02  0.00000000000E+00 0.  1.
         11    1    4    4    0    0  0.26461539795E+02  0.54597814743E+01 -0.34440133359E+02  0.43773794533E+02  0.00000000000E+00 0. -1.
</event>
<event>
 8    1  0.6834011E-009  0.1136795E+03  0.7561462E-02  0.1253904E+00
          2   -1    0    0  501    0  0.00000000000E+00  0.00000000000E+00  0.16172796554E+03  0.16172796554E+03  0.00000000000E+00 0. -1.
         -2   -1    0    0    0  501 -0.00000000000E+00 -0.00000000000E+00 -0.11737138737E+03  0.11737138737E+03  0.00000000000E+00 0.  1.
         25    2    1    2    0    0 -0.69570159041E+02  0.29484560052E+02 -0.25133930388E+02  0.14828570814E+03  0.12509032925E+03 0.  0.
         23    2    1    2    0    0  0.69570159041E+02 -0.29484560052E+02  0.69490508563E+02  0.13081364477E+03  0.81079791364E+02 0.  0.
          5    1    3    3  502    0 -0.28826792391E+02 -0.48827227250E+02 -0.18107326329E+01  0.56884384792E+02  0.41800000000E+01 0. -1.
         -5    1    3    3    0  502 -0.40743366650E+02  0.78311787302E+02 -0.23323197755E+02  0.91401323349E+02  0.41800000000E+01 0. -1.
        -11    1    4    4    0    0  0.29818020175E+02  0.40865046608E+01 -0.13400749176E+02  0.32945317209E+02  0.00000000000E+00 0.  1.
         11    1    4    4    0    0  0.39752138866E+02 -0.33571064713E+02  0.82891257739E+02  0.97868327563E+02  0.00000000000E+00 0. -1.
</event>
<event>
 8    1  0.6834011E-009  0.6748756E+02  0.7561462E-02  0.1368851E+00
         -2   -1    0    0    0  501 -0.00000000000E+00  0.00000000000E+00  0.43549876276E+02  0.43549876276E+02  0.00000000000E+00 0.  1.
          2   -1    0    0  501    0  0.00000000000E+00 -0.00000000000E+00 -0.32311042978E+03  0.32311042978E+03  0.00000000000E+00 0. -1.
         25    2    1    2    0    0  0.17954732260E+02 -0.41729037907E+02 -0.15347160908E+03  0.20313353198E+03  0.12508401978E+03 0.  0.
         23    2    1    2    0    0 -0.17954732260E+02  0.41729037907E+02 -0.12608894442E+03  0.16352677408E+03  0.93695778565E+02 0.  0.
          5    1    3    3  502    0 -0.25412001207E+02 -0.22288533502E+02 -0.15161039109E+03  0.15538896877E+03  0.41800000000E+01 0. -1.
         -5    1    3    3    0  502  0.43366733467E+02 -0.19440504404E+02 -0.18612179981E+01  0.47744563204E+02  0.41800000000E+01 0. -1.
        -11    1    4    4    0    0 -0.50723376333E+01  0.39870667314E+02 -0.13929924519E+03  0.14498164860E+03  0.00000000000E+00 0. -1.
         11    1    4    4    0    0 -0.12882394627E+02  0.18583705931E+01  0.13210300769E+02  0.18545125478E+02  0.00000000000E+00 0.  1.
</event>
<event>
 8    1  0.6834011E-009  0.8842477E+02  0.7561462E-02  0.1306712E+00
          3   -1    0    0  501    0  0.00000000000E+00  0.00000000000E+00  0.17120873447E+03  0.17120873447E+03  0.00000000000E+00 0. -1.
         -3   -1    0    0    0  501 -0.00000000000E+00 -0.00000000000E+00 -0.78674578087E+02  0.78674578087E+02  0.00000000000E+00 0.  1.
         25    2    1    2    0    0 -0.89067541163E+01 -0.19644252639E+02  0.86799452857E+02  0.15377947997E+03  0.12509498996E+03 0.  0.
         23    2    1    2    0    0  0.89067541163E+01  0.19644252639E+02  0.57347035240E+01  0.96103832586E+02  0.93476376067E+02 0.  0.
          5    1    3    3  502    0  0.28844047179E+02 -0.40706155188E+02  0.97008394415E+02  0.10916533843E+03  0.41800000000E+01 0. -1.
         -5    1    3    3    0  502 -0.37750801295E+02  0.21061902548E+02 -0.10208941558E+02  0.44614141537E+02  0.41800000000E+01 0. -1.
        -11    1    4    4    0    0 -0.30137722068E+02  0.30450040218E+02  0.26706890985E+02  0.50485099453E+02  0.00000000000E+00 0. -1.
         11    1    4    4    0    0  0.39044476184E+02 -0.10805787579E+02 -0.20972187461E+02  0.45618733133E+02  0.00000000000E+00 0.  1.
</event>
<event>
 8    1  0.6834011E-009  0.9682564E+02  0.7561462E-02  0.1287116E+00
          3   -1    0    0  501    0  0.00000000000E+00  0.00000000000E+00  0.94057969690E+03  0.94057969690E+03  0.00000000000E+00 0. -1.
         -3   -1    0    0    0  501 -0.00000000000E+00 -0.00000000000E+00 -0.21227799339E+02  0.21227799339E+02  0.00000000000E+00 0.  1.
         25    2    1    2    0    0 -0.16315426625E+02 -0.22134173787E+02  0.79445107141E+03  0.80470841773E+03  0.12508804062E+03 0.  0.
         23    2    1    2    0    0  0.16315426625E+02  0.22134173787E+02  0.12490082615E+03  0.15709907851E+03  0.91234803118E+02 0.  0.
          5    1    3    3  502    0  0.18552527765E+02  0.38312404415E+02  0.51009828353E+03  0.51188843303E+03  0.41800000000E+01 0. -1.
         -5    1    3    3    0  502 -0.34867954390E+02 -0.60446578202E+02  0.28435278789E+03  0.29281998470E+03  0.41800000000E+01 0. -1.
        -11    1    4    4    0    0  0.35182975206E+02 -0.15827601064E+02  0.18949673243E+02  0.42981912659E+02  0.00000000000E+00 0.  1.
         11    1    4    4    0    0 -0.18867548581E+02  0.37961774851E+02  0.10595115291E+03  0.11411716585E+03  0.00000000000E+00 0. -1.
</event>
<event>
 8    1  0.6834011E-009  0.1118640E+03  0.7561462E-02  0.1257157E+00
          2   -1    0    0  501    0  0.00000000000E+00  0.00000000000E+00  0.95051453806E+03  0.95051453806E+03  0.00000000000E+00 0.  1.
         -2   -1    0    0    0  501 -0.00000000000E+00 -0.00000000000E+00 -0.18592113823E+02  0.18592113823E+02  0.00000000000E+00 0. -1.
         25    2    1    2    0    0 -0.45507728209E+02  0.25259128861E+02  0.72437847937E+03  0.73693935689E+03  0.12508580032E+03 0.  0.
         23    2    1    2    0    0  0.45507728209E+02 -0.25259128861E+02  0.20754394486E+03  0.23216729499E+03  0.90100981654E+02 0.  0.
          5    1    3    3  502    0  0.36441299305E+02  0.28034914425E+02  0.15686293509E+03  0.16351567976E+03  0.41800000000E+01 0. -1.
         -5    1    3    3    0  502 -0.81949027514E+02 -0.27757855640E+01  0.56751554428E+03  0.57342367713E+03  0.41800000000E+01 0. -1.
        -11    1    4    4    0    0  0.62385569275E+02  0.30937578426E+01  0.86423447681E+02  0.10663274779E+03  0.00000000000E+00 0. -1.
         11    1    4    4    0    0 -0.16877841066E+02 -0.28352886703E+02  0.12112049718E+03  0.12553454720E+03  0.00000000000E+00 0.  1.
</event>
<event>
 8    1  0.6834011E-009  0.1690251E+03  0.7561462E-02  0.1178868E+00
         -1   -1    0    0    0  501 -0.00000000000E+00  0.00000000000E+00  0.13452935643E+03  0.13452935643E+03  0.00000000000E+00 0.  1.
          1   -1    0    0  501    0  0.00000000000E+00 -0.00000000000E+00 -0.28373693224E+03  0.28373693224E+03  0.00000000000E+00 0. -1.
         25    2    1    2    0    0 -0.14295361444E+03  0.73472998738E+02 -0.98273796178E+02  0.22613917801E+03  0.12508865411E+03 0.  0.
         23    2    1    2    0    0  0.14295361444E+03 -0.73472998738E+02 -0.50933779636E+02  0.19212711066E+03  0.92111667657E+02 0.  0.
          5    1    3    3  502    0 -0.11093573460E+03  0.52734966347E+02 -0.12810880492E+03  0.17753042608E+03  0.41800000000E+01 0. -1.
         -5    1    3    3    0  502 -0.32017879844E+02  0.20738032392E+02  0.29835008740E+02  0.48608751925E+02  0.41800000000E+01 0. -1.
        -11    1    4    4    0    0  0.64347254500E+02 -0.74130267580E+02  0.54132070850E+00  0.98163938192E+02  0.00000000000E+00 0. -1.
         11    1    4    4    0    0  0.78606359942E+02  0.65726884185E+00 -0.51475100344E+02  0.93963172472E+02  0.00000000000E+00 0.  1.
</event>
<event>
 8    1  0.6834011E-009  0.6300422E+02  0.7561462E-02  0.1385640E+00
          3   -1    0    0  501    0  0.00000000000E+00  0.00000000000E+00  0.41549131533E+03  0.41549131533E+03  0.00000000000E+00 0. -1.
         -3   -1    0    0    0  501 -0.00000000000E+00 -0.00000000000E+00 -0.31906661350E+02  0.31906661350E+02  0.00000000000E+00 0.  1.
         25    2    1    2    0    0  0.11383675404E+02  0.17275165770E+02  0.28146525440E+03  0.30869686616E+03  0.12507216447E+03 0.  0.
         23    2    1    2    0    0 -0.11383675404E+02 -0.17275165770E+02  0.10211939958E+03  0.13870111052E+03  0.91551116164E+02 0.  0.
          5    1    3    3  502    0 -0.43747470647E+01  0.19216258836E+02  0.28965107954E+03  0.29035086240E+03  0.41800000000E+01 0.  1.
         -5    1    3    3    0  502  0.15758422468E+02 -0.19410930663E+01 -0.81858251388E+01  0.18346003766E+02  0.41800000000E+01 0.  1.
        -11    1    4    4    0    0  0.26215251436E+02 -0.38264089494E+02  0.31773254909E+02  0.56222056883E+02  0.00000000000E+00 0.  1.
         11    1    4    4    0    0 -0.37598926840E+02  0.20988923725E+02  0.70346144672E+02  0.82479053637E+02  0.00000000000E+00 0. -1.
</event>
<event>
 8    1  0.6834011E-009  0.8046875E+02  0.7561462E-02  0.1327726E+00
         -2   -1    0    0    0  501 -0.00000000000E+00  0.00000000000E+00  0.10738614430E+03  0.10738614430E+03  0.00000000000E+00 0.  1.
          2   -1    0    0  501    0  0.00000000000E+00 -0.00000000000E+00 -0.12262887064E+03  0.12262887064E+03  0.00000000000E+00 0. -1.
         25    2    1    2    0    0  0.36509854928E+02 -0.88495316529E+01 -0.11098065116E+02  0.13107572087E+03  0.12508554607E+03 0.  0.
         23    2    1    2    0    0 -0.36509854928E+02  0.88495316529E+01 -0.41446612252E+01  0.98939294073E+02  0.91435889987E+02 0.  0.
          5    1    3    3  502    0 -0.18848864874E+01  0.16257045024E+02  0.51018742822E+02  0.53742244363E+02  0.41800000000E+01 0.  1.
         -5    1    3    3    0  502  0.38394741416E+02 -0.25106576677E+02 -0.62116807938E+02  0.77333476511E+02  0.41800000000E+01 0.  1.
        -11    1    4    4    0    0  0.27601827853E+02 -0.12647657713E+02  0.47714800302E+01  0.30734201928E+02  0.00000000000E+00 0.  1.
         11    1    4    4    0    0 -0.64111682781E+02  0.21497189366E+02 -0.89161412553E+01  0.68205092145E+02  0.00000000000E+00 0. -1.
</event>
<event>
 8    1  0.6834011E-009  0.1633964E+03  0.7561462E-02  0.1184915E+00
          2   -1    0    0  501    0  0.00000000000E+00  0.00000000000E+00  0.77998952110E+03  0.77998952110E+03  0.00000000000E+00 0. -1.
         -2   -1    0    0    0  501 -0.00000000000E+00 -0.00000000000E+00 -0.39920383899E+02  0.39920383899E+02  0.00000000000E+00 0.  1.
         25    2    1    2    0    0  0.67051904928E+02  0.11718679123E+03  0.46523369127E+03  0.50031933113E+03  0.12509333962E+03 0.  0.
         23    2    1    2    0    0 -0.67051904928E+02 -0.11718679123E+03  0.27483544593E+03  0.31959057386E+03  0.91514537489E+02 0.  0.
          5    1    3    3  502    0 -0.16269822177E+01  0.94311783451E+02  0.15309210196E+03  0.17986668299E+03  0.41800000000E+01 0.  1.
         -5    1    3    3    0  502  0.68678887146E+02  0.22875007779E+02  0.31214158932E+03  0.32045264814E+03  0.41800000000E+01 0.  1.
        -11    1    4    4    0    0 -0.56061830380E+02 -0.13083646205E+03  0.22008518434E+03  0.26210417203E+03  0.00000000000E+00 0.  1.
         11    1    4    4    0    0 -0.10990074548E+02  0.13649670825E+02  0.54750261588E+02  0.57486401837E+02  0.00000000000E+00 0. -1.
</event>
<event>
 8    1  0.6834011E-009  0.1334846E+03  0.7561462E-02  0.1222375E+00
          1   -1    0    0  501    0  0.00000000000E+00  0.00000000000E+00  0.61469689950E+03  0.61469689950E+03  0.00000000000E+00 0. -1.
         -1   -1    0    0    0  501 -0.00000000000E+00 -0.00000000000E+00 -0.41784891793E+02  0.41784891793E+02  0.00000000000E+00 0.  1.
         25    2    1    2    0    0 -0.10761836428E+03  0.45803429891E+02  0.29743858769E+03  0.34321508182E+03  0.12508881813E+03 0.  0.
         23    2    1    2    0    0  0.10761836428E+03 -0.45803429891E+02  0.27547342002E+03  0.31326670948E+03  0.92578397095E+02 0.  0.
          5    1    3    3  502    0 -0.67894039473E+02  0.34125085602E+01  0.27068054943E+03  0.27911767778E+03  0.41800000000E+01 0.  1.
         -5    1    3    3    0  502 -0.39724324805E+02  0.42390921331E+02  0.26758038254E+02  0.64097404032E+02  0.41800000000E+01 0.  1.
        -11    1    4    4    0    0 -0.12604109180E+02 -0.26233635243E+01  0.71094189556E+02  0.72250462926E+02  0.00000000000E+00 0.  1.
         11    1    4    4    0    0  0.12022247346E+03 -0.43180066367E+02  0.20437923047E+03  0.24101624655E+03  0.00000000000E+00 0. -1.
</event>
<event>
 8    1  0.6834011E-009  0.1263548E+03  0.7561462E-02  0.1232967E+00
          2   -1    0    0  501    0  0.00000000000E+00  0.00000000000E+00  0.68583202147E+03  0.68583202147E+03  0.00000000000E+00 0. -1.
         -2   -1    0    0    0  501 -0.00000000000E+00 -0.00000000000E+00 -0.27280268133E+02  0.27280268133E+02  0.00000000000E+00 0.  1.
         25    2    1    2    0    0  0.67813719357E+02  0.89046710611E+01  0.48249732713E+03  0.50311987159E+03  0.12509172955E+03 0.  0.
         23    2    1    2    0    0 -0.67813719357E+02 -0.89046710611E+01  0.17605442620E+03  0.20999241801E+03  0.91780504116E+02 0.  0.
          5    1    3    3  502    0  0.73841277003E+02 -0.45110984026E+02  0.32963748901E+03  0.34083116294E+03  0.41800000000E+01 0. -1.
         -5    1    3    3    0  502 -0.60275576461E+01  0.54015655087E+02  0.15285983812E+03  0.16228870865E+03  0.41800000000E+01 0. -1.
        -11    1    4    4    0    0  0.63586033151E+01 -0.32978086647E+02  0.76379411465E+02  0.83437404866E+02  0.00000000000E+00 0.  1.
         11    1    4    4    0    0 -0.74172322672E+02  0.24073415586E+02  0.99675014738E+02  0.12655501314E+03  0.00000000000E+00 0. -1.
</event>
<event>
 8    1  0.6834011E-009  0.1686970E+03  0.7561462E-02  0.1179214E+00
         -2   -1    0    0    0  501 -0.00000000000E+00  0.00000000000E+00  0.68887761985E+03  0.68887761985E+03  0.00000000000E+00 0. -1.
          2   -1    0    0  501    0  0.00000000000E+00 -0.00000000000E+00 -0.43420992959E+02  0.43420992959E+02  0.00000000000E+00 0.  1.
         25    2    1    2    0    0 -0.47231994951E+02  0.12529307413E+03  0.35922093791E+03  0.40325557714E+03  0.12508462134E+03 0.  0.
         23    2    1    2    0    0  0.47231994951E+02 -0.12529307413E+03  0.28623568898E+03  0.32904303566E+03  0.91701875112E+02 0.  0.
          5    1    3    3  502    0 -0.26595812739E+02 -0.16854143739E+02  0.28538172402E+02  0.42700106563E+02  0.41800000000E+01 0.  1.
         -5    1    3    3    0  502 -0.20636182212E+02  0.14214721787E+03  0.33068276550E+03  0.36055547058E+03  0.41800000000E+01 0.  1.
        -11    1    4    4    0    0  0.20001184714E+02 -0.13230957007E+03  0.22782772144E+03  0.26421835738E+03  0.00000000000E+00 0. -1.
         11    1    4    4    0    0  0.27230810237E+02  0.70164959415E+01  0.58407967543E+02  0.64824678279E+02  0.00000000000E+00 0.  1.
</event>
<event>
 8    1  0.6834011E-009  0.1165454E+03  0.7561462E-02  0.1248907E+00
          1   -1    0    0  501    0  0.00000000000E+00  0.00000000000E+00  0.85691404673E+03  0.85691404673E+03  0.00000000000E+00 0. -1.
         -1   -1    0    0    0  501 -0.00000000000E+00 -0.00000000000E+00 -0.17704840134E+02  0.17704840134E+02  0.00000000000E+00 0.  1.
         25    2    1    2    0    0  0.92481685760E+01  0.54949083462E+02  0.40828123830E+03  0.43063464140E+03  0.12509074479E+03 0.  0.
         23    2    1    2    0    0 -0.92481685760E+01 -0.54949083462E+02  0.43092796829E+03  0.44398424546E+03  0.91203979975E+02 0.  0.
          5    1    3    3  502    0 -0.22118674553E+02 -0.32658379617E+02  0.17511969770E+03  0.17955552469E+03  0.41800000000E+01 0.  1.
         -5    1    3    3    0  502  0.31366843129E+02  0.87607463079E+02  0.23316154060E+03  0.25107911671E+03  0.41800000000E+01 0.  1.
        -11    1    4    4    0    0  0.34542022202E+02 -0.42473731732E+02  0.15637694023E+03  0.16568318147E+03  0.00000000000E+00 0.  1.
         11    1    4    4    0    0 -0.43790190778E+02 -0.12475351730E+02  0.27455102806E+03  0.27830106399E+03  0.00000000000E+00 0. -1.
</event>
<event>
 8    1  0.6834011E-009  0.8810522E+02  0.7561462E-02  0.1307506E+00
          2   -1    0    0  501    0  0.00000000000E+00  0.00000000000E+00  0.17311013124E+04  0.17311013124E+04  0.00000000000E+00 0.  1.
         -2   -1    0    0    0  501 -0.00000000000E+00 -0.00000000000E+00 -0.21026036519E+02  0.21026036519E+02  0.00000000000E+00 0. -1.
         25    2    1    2    0    0 -0.42121021303E+02  0.13166295465E+02  0.15853230175E+04  0.15908628448E+04  0.12509192374E+03 0.  0.
         23    2    1    2    0    0  0.42121021303E+02 -0.13166295465E+02  0.12475225845E+03  0.16126450418E+03  0.92171484470E+02 0.  0.
          5    1    3    3  502    0  0.21886832559E+02  0.40370906463E+02  0.10516938168E+04  0.10527042321E+04  0.41800000000E+01 0.  1.
         -5    1    3    3    0  502 -0.64007853862E+02 -0.27204610997E+02  0.53362920068E+03  0.53815861271E+03  0.41800000000E+01 0.  1.
        -11    1    4    4    0    0  0.35126661912E+02 -0.27409935015E+02  0.13514204183E+03  0.14229742930E+03  0.00000000000E+00 0.  1.
         11    1    4    4    0    0  0.69943593913E+01  0.14243639550E+02 -0.10389783383E+02  0.18967074884E+02  0.00000000000E+00 0. -1.
</event>
<event>
 8    1  0.6834011E-009  0.1252990E+03  0.7561462E-02  0.1234603E+00
         -1   -1    0    0    0  501 -0.00000000000E+00  0.00000000000E+00  0.28753522308E+02  0.28753522308E+02  0.00000000000E+00 0.  1.
          1   -1    0    0  501    0  0.00000000000E+00 -0.00000000000E+00 -0.67896331830E+03  0.67896331830E+03  0.00000000000E+00 0. -1.
         25    2    1    2    0    0  0.84724164434E+02 -0.12238325853E+02 -0.40380557739E+03  0.43131701522E+03  0.12508981826E+03 0.  0.
         23    2    1    2    0    0 -0.84724164434E+02  0.12238325853E+02 -0.24640421860E+03  0.27639982538E+03  0.91399474117E+02 0.  0.
          5    1    3    3  502    0  0.11674116652E+03 -0.67563749225E+01 -0.34045073987E+03  0.35999767671E+03  0.41800000000E+01 0.  1.
         -5    1    3    3    0  502 -0.32017002082E+02 -0.54819509309E+01 -0.63354837520E+02  0.71319338510E+02  0.41800000000E+01 0.  1.
        -11    1    4    4    0    0 -0.28177499800E+02 -0.21092158492E+02 -0.19596193572E+02  0.40284754527E+02  0.00000000000E+00 0.  1.
         11    1    4    4    0    0 -0.56546664635E+02  0.33330484345E+02 -0.22680802503E+03  0.23611507086E+03  0.00000000000E+00 0. -1.
</event>
<event>
 8    1  0.6834011E-009  0.6753686E+02  0.7561462E-02  0.1368675E+00
          1   -1    0    0  501    0  0.00000000000E+00  0.00000000000E+00  0.10632353132E+04  0.10632353132E+04  0.00000000000E+00 0. -1.
         -1   -1    0    0    0  501 -0.00000000000E+00 -0.00000000000E+00 -0.13400141587E+02  0.13400141587E+02  0.00000000000E+00 0.  1.
         25    2    1    2    0    0 -0.48441784183E+01  0.39291557809E-01  0.81555905262E+03  0.82511103078E+03  0.12509267443E+03 0.  0.
         23    2    1    2    0    0  0.48441784183E+01 -0.39291557809E-01  0.23427611899E+03  0.25152442400E+03  0.91409891875E+02 0.  0.
          5    1    3    3  502    0  0.21381840844E+02  0.21387944565E+01  0.78180203385E+03  0.78210846440E+03  0.41800000000E+01 0. -1.
         -5    1    3    3    0  502 -0.26226019262E+02 -0.20995028987E+01  0.33757018770E+02  0.43002566377E+02  0.41800000000E+01 0. -1.
        -11    1    4    4    0    0 -0.35655726701E+02  0.20503423777E+02  0.15289169601E+03  0.15832748322E+03  0.00000000000E+00 0. -1.
         11    1    4    4    0    0  0.40499905119E+02 -0.20542715335E+02  0.81384422980E+02  0.93196940785E+02  0.00000000000E+00 0.  1.
</event>
<event>
 8    1  0.6834011E-009  0.9197131E+02  0.7561462E-02  0.1298147E+00
         -2   -1    0    0    0  501 -0.00000000000E+00  0.00000000000E+00  0.25244578846E+03  0.25244578846E+03  0.00000000000E+00 0.  1.
          2   -1    0    0  501    0  0.00000000000E+00 -0.00000000000E+00 -0.70805365687E+02  0.70805365687E+02  0.00000000000E+00 0. -1.
         25    2    1    2    0    0  0.25354321796E+02 -0.73004519845E+02  0.10494518099E+03  0.18064609158E+03  0.12508804034E+03 0.  0.
         23    2    1    2    0    0 -0.25354321796E+02  0.73004519845E+02  0.76695241778E+02  0.14260506257E+03  0.92095288733E+02 0.  0.
          5    1    3    3  502    0  0.21020680302E+02 -0.12016281322E+02  0.11582549007E+03  0.11840302600E+03  0.41800000000E+01 0. -1.
         -5    1    3    3    0  502  0.43336414936E+01 -0.60988238523E+02 -0.10880309075E+02  0.62243065576E+02  0.41800000000E+01 0. -1.
        -11    1    4    4    0    0 -0.40486638726E+02  0.72389411150E+02  0.90039977011E+02  0.12241973788E+03  0.00000000000E+00 0.  1.
         11    1    4    4    0    0  0.15132316930E+02  0.61510869496E+00 -0.13344735233E+02  0.20185324689E+02  0.00000000000E+00 0. -1.
</event>
<event>
 8    1  0.6834011E-009  0.1397559E+03  0.7561462E-02  0.1213658E+00
         -2   -1    0    0    0  501 -0.00000000000E+00  0.00000000000E+00  0.55986389185E+02  0.55986389185E+02  0.00000000000E+00 0. -1.
          2   -1    0    0  501    0  0.00000000000E+00 -0.00000000000E+00 -0.40211231792E+03  0.40211231792E+03  0.00000000000E+00 0.  1.
         25    2    1    2    0    0 -0.95640475803E+02  0.25184339200E+01 -0.24567493443E+03  0.29181754432E+03  0.12509141714E+03 0.  0.
         23    2    1    2    0    0  0.95640475803E+02 -0.25184339200E+01 -0.10045099430E+03  0.16628116278E+03  0.91681948711E+02 0.  0.
          5    1    3    3  502    0 -0.43564479088E+02 -0.54373324284E+02 -0.65221422279E+02  0.95528155829E+02  0.41800000000E+01 0.  1.
         -5    1    3    3    0  502 -0.52075996715E+02  0.56891758204E+02 -0.18045351215E+03  0.19628938849E+03  0.41800000000E+01 0.  1.
        -11    1    4    4    0    0  0.56553926930E+02  0.44043123294E+02 -0.56310513894E+02  0.91153811416E+02  0.00000000000E+00 0.  1.
         11    1    4    4    0    0  0.39086548873E+02 -0.46561557214E+02 -0.44140480404E+02  0.75127351366E+02  0.00000000000E+00 0. -1.
</event>
<event>
 8    1  0.6834011E-009  0.1607963E+03  0.7561462E-02  0.1187801E+00
          1   -1    0    0  501    0  0.00000000000E+00  0.00000000000E+00  0.31285644804E+03  0.31285644804E+03  0.00000000000E+00 0. -1.
         -1   -1    0    0    0  501 -0.00000000000E+00 -0.00000000000E+00 -0.11200847358E+03  0.11200847358E+03  0.00000000000E+00 0.  1.
         25    2    1    2    0    0 -0.10961355231E+03  0.81024014168E+02  0.18361192382E+03  0.26065475410E+03  0.12509012969E+03 0.  0.
         23    2    1    2    0    0  0.10961355231E+03 -0.81024014168E+02  0.17236050638E+02  0.16421016751E+03  0.89932618952E+02 0.  0.
          5    1    3    3  502    0 -0.13542315755E+02 -0.32044873338E+02  0.49251175759E+02  0.60443518568E+02  0.41800000000E+01 0.  1.
         -5    1    3    3    0  502 -0.96071236555E+02  0.11306888751E+03  0.13436074806E+03  0.20021123553E+03  0.41800000000E+01 0.  1.
        -11    1    4    4    0    0  0.36084222292E+02 -0.40203681452E+02  0.50328474866E+02  0.73833342625E+02  0.00000000000E+00 0. -1.
         11    1    4    4    0    0  0.73529330018E+02 -0.40820332716E+02 -0.33092424228E+02  0.90376824890E+02  0.00000000000E+00 0.  1.
</event>
<event>
 8    1  0.6834011E-009  0.1000790E+03  0.7561462E-02  0.1280130E+00
          1   -1    0    0  501    0  0.00000000000E+00  0.00000000000E+00  0.56451532757E+03  0.56451532757E+03  0.00000000000E+00 0. -1.
         -1   -1    0    0    0  501 -0.00000000000E+00 -0.00000000000E+00 -0.31059994135E+02  0.31059994135E+02  0.00000000000E+00 0.  1.
         25    2    1    2    0    0  0.50842679967E+02 -0.27922898136E+02  0.40889003338E+03  0.43151216710E+03  0.12508806744E+03 0.  0.
         23    2    1    2    0    0 -0.50842679967E+02  0.27922898136E+02  0.12456530006E+03  0.16406315460E+03  0.89641164500E+02 0.  0.
          5    1    3    3  502    0  0.58050029979E+02  0.12393678499E+02  0.78180508286E+02  0.98250056097E+02  0.41800000000E+01 0.  1.
         -5    1    3    3    0  502 -0.72073500118E+01 -0.40316576635E+02  0.33070952509E+03  0.33326211101E+03  0.41800000000E+01 0.  1.
        -11    1    4    4    0    0 -0.52092474563E+01 -0.27330700180E+02  0.65615697772E+02  0.71270773992E+02  0.00000000000E+00 0. -1.
         11    1    4    4    0    0 -0.45633432511E+02  0.55253598316E+02  0.58949602284E+02  0.92792380609E+02  0.00000000000E+00 0.  1.
</event>
<event>
 8    1  0.6834011E-009  0.9335092E+02  0.7561462E-02  0.1294934E+00
          2   -1    0    0  501    0  0.00000000000E+00  0.00000000000E+00  0.69220169417E+02  0.69220169417E+02  0.00000000000E+00 0. -1.
         -2   -1    0    0    0  501 -0.00000000000E+00 -0.00000000000E+00 -0.29493809202E+03  0.29493809202E+03  0.00000000000E+00 0.  1.
         25    2    1    2    0    0  0.46788634575E+02  0.10422819654E+02 -0.22236400542E+02  0.13579246092E+03  0.12508926188E+03 0.  0.
         23    2    1    2    0    0 -0.46788634575E+02 -0.10422819654E+02 -0.20348152206E+03  0.22836580052E+03  0.91915164862E+02 0.  0.
          5    1    3    3  502    0 -0.19603563114E+02 -0.13611503329E+02 -0.53293225585E+02  0.58542403460E+02  0.41800000000E+01 0.  1.
         -5    1    3    3    0  502  0.66392197689E+02  0.24034322983E+02  0.31056825044E+02  0.77250057456E+02  0.41800000000E+01 0.  1.
        -11    1    4    4    0    0 -0.30552403824E+02  0.33245189017E+02 -0.47331227960E+02  0.65413585075E+02  0.00000000000E+00 0. -1.
         11    1    4    4    0    0 -0.16236230751E+02 -0.43668008670E+02 -0.15615029410E+03  0.16295221544E+03  0.00000000000E+00 0.  1.
</event>
<event>
 8    1  0.6834011E-009  0.1116010E+03  0.7561462E-02  0.1257633E+00
          1   -1    0    0  501    0  0.00000000000E+00  0.00000000000E+00  0.15218532584E+04  0.15218532584E+04  0.00000000000E+00 0. -1.
         -1   -1    0    0    0  501 -0.00000000000E+00 -0.00000000000E+00 -0.15092571426E+02  0.15092571426E+02  0.00000000000E+00 0.  1.
         25    2    1    2    0    0 -0.55059058175E+02 -0.41154514589E+02  0.12068290310E+04  0.12152403301E+04  0.12509019064E+03 0.  0.
         23    2    1    2    0    0  0.55059058175E+02  0.41154514589E+02  0.29993165588E+03  0.32170549967E+03  0.93862859314E+02 0.  0.
          5    1    3    3  502    0 -0.31487953180E+02 -0.86019484522E+02  0.80543386175E+03  0.81063679966E+03  0.41800000000E+01 0.  1.
         -5    1    3    3    0  502 -0.23571104995E+02  0.44864969933E+02  0.40139516930E+03  0.40460353045E+03  0.41800000000E+01 0.  1.
        -11    1    4    4    0    0  0.60469798738E+02  0.28417145104E+02  0.30051634972E+03  0.30785419786E+03  0.00000000000E+00 0. -1.
         11    1    4    4    0    0 -0.54107405629E+01  0.12737369485E+02 -0.58469383390E+00  0.13851301805E+02  0.00000000000E+00 0.  1.
</event>
<event>
 8    1  0.6834011E-009  0.1163318E+03  0.7561462E-02  0.1249274E+00
         -2   -1    0    0    0  501 -0.00000000000E+00  0.00000000000E+00  0.44275890518E+02  0.44275890518E+02  0.00000000000E+00 0. -1.
          2   -1    0    0  501    0  0.00000000000E+00 -0.00000000000E+00 -0.39849305695E+03  0.39849305695E+03  0.00000000000E+00 0.  1.
         25    2    1    2    0    0 -0.50661300654E+02  0.35658059401E+02 -0.27147812950E+03  0.30526542725E+03  0.12509413132E+03 0.  0.
         23    2    1    2    0    0  0.50661300654E+02 -0.35658059401E+02 -0.82739036925E+02  0.13750352022E+03  0.90682993204E+02 0.  0.
          5    1    3    3  502    0 -0.91968607850E+02  0.33671710033E+02 -0.19019240923E+03  0.21396876832E+03  0.41800000000E+01 0. -1.
         -5    1    3    3    0  502  0.41307307195E+02  0.19863493675E+01 -0.81285720275E+02  0.91296658932E+02  0.41800000000E+01 0. -1.
        -11    1    4    4    0    0  0.67877711872E+02 -0.22881951307E+02 -0.89856661821E+02  0.11491382484E+03  0.00000000000E+00 0.  1.
         11    1    4    4    0    0 -0.17216411218E+02 -0.12776108093E+02  0.71176248964E+01  0.22589695381E+02  0.00000000000E+00 0. -1.
</event>
<event>
 8    1  0.6834011E-009  0.1316348E+03  0.7561462E-02  0.1225050E+00
         -1   -1    0    0    0  501 -0.00000000000E+00  0.00000000000E+00  0.14349822215E+03  0.14349822215E+03  0.00000000000E+00 0.  1.
          1   -1    0    0  501    0  0.00000000000E+00 -0.00000000000E+00 -0.15113042114E+03  0.15113042114E+03  0.00000000000E+00 0. -1.
         25    2    1    2    0    0  0.81527668197E+02 -0.45600204610E+02  0.35431943415E+02  0.16009093585E+03  0.12509015063E+03 0.  0.
         23    2    1    2    0    0 -0.81527668197E+02  0.45600204610E+02 -0.43064142411E+02  0.13453770744E+03  0.86716405715E+02 0.  0.
          5    1    3    3  502    0 -0.19284006055E+02 -0.26750954626E+02  0.46165156139E+02  0.56887437139E+02  0.41800000000E+01 0.  1.
         -5    1    3    3    0  502  0.10081167425E+03 -0.18849249984E+02 -0.10733212724E+02  0.10320349871E+03  0.41800000000E+01 0.  1.
        -11    1    4    4    0    0 -0.82355318183E+02  0.66878675465E+02 -0.37564536100E+02  0.11254443583E+03  0.00000000000E+00 0.  1.
         11    1    4    4    0    0  0.82764998645E+00 -0.21278470855E+02 -0.54996063110E+01  0.21993271607E+02  0.00000000000E+00 0. -1.
</event>
<event>
 8    1  0.6834011E-009  0.7050378E+02  0.7561462E-02  0.1358388E+00
         -2   -1    0    0    0  501 -0.00000000000E+00  0.00000000000E+00  0.14379107167E+02  0.14379107167E+02  0.00000000000E+00 0.  1.
          2   -1    0    0  501    0  0.00000000000E+00 -0.00000000000E+00 -0.18661313602E+04  0.18661313602E+04  0.00000000000E+00 0. -1.
         25    2    1    2    0    0  0.88211675327E+01  0.53403728750E+02 -0.16077075886E+04  0.16134747486E+04  0.12508917844E+03 0.  0.
         23    2    1    2    0    0 -0.88211675327E+01 -0.53403728750E+02 -0.24404466447E+03  0.26703571884E+03  0.93917547029E+02 0.  0.
          5    1    3    3  502    0  0.30295883224E+02  0.34050040536E+02 -0.15262898652E+04  0.15269759234E+04  0.41800000000E+01 0.  1.
         -5    1    3    3    0  502 -0.21474715691E+02  0.19353688214E+02 -0.81417723445E+02  0.86498825151E+02  0.41800000000E+01 0.  1.
        -11    1    4    4    0    0 -0.11767916996E+02  0.75397196758E+00  0.45153258399E+01  0.12626975552E+02  0.00000000000E+00 0.  1.
         11    1    4    4    0    0  0.29467494630E+01 -0.54157700718E+02 -0.24855999031E+03  0.25440874329E+03  0.00000000000E+00 0. -1.
</event>
<event>
 8    1  0.6834011E-009  0.8833236E+02  0.7561462E-02  0.1306941E+00
          2   -1    0    0  501    0  0.00000000000E+00  0.00000000000E+00  0.19787625534E+03  0.19787625534E+03  0.00000000000E+00 0. -1.
         -2   -1    0    0    0  501 -0.00000000000E+00 -0.00000000000E+00 -0.68614907838E+02  0.68614907838E+02  0.00000000000E+00 0.  1.
         25    2    1    2    0    0  0.16172650248E+02 -0.19180033027E+02  0.10911097684E+03  0.16786487019E+03  0.12507590133E+03 0.  0.
         23    2    1    2    0    0 -0.16172650248E+02  0.19180033027E+02  0.20150370665E+02  0.98626292993E+02  0.93229179706E+02 0.  0.
          5    1    3    3  502    0  0.66394303029E+02 -0.34031385615E+02  0.69726780513E+02  0.10220388937E+03  0.41800000000E+01 0. -1.
         -5    1    3    3    0  502 -0.50221652781E+02  0.14851352588E+02  0.39384196327E+02  0.65660980819E+02  0.41800000000E+01 0. -1.
        -11    1    4    4    0    0  0.13459765814E+02  0.13814531300E+02  0.51598136937E+02  0.55085155044E+02  0.00000000000E+00 0. -1.
         11    1    4    4    0    0 -0.29632416062E+02  0.53655017269E+01 -0.31447766272E+02  0.43541137949E+02  0.00000000000E+00 0.  1.
</event>
<event>
 8    1  0.6834011E-009  0.2243362E+03  0.7561462E-02  0.1130691E+00
         -1   -1    0    0    0  501 -0.00000000000E+00  0.00000000000E+00  0.19609610639E+03  0.19609610639E+03  0.00000000000E+00 0.  1.
          1   -1    0    0  501    0  0.00000000000E+00 -0.00000000000E+00 -0.44095114680E+03  0.44095114680E+03  0.00000000000E+00 0. -1.
         25    2    1    2    0    0 -0.98359630841E+02  0.18352567807E+03  0.66790021170E+02  0.25191535341E+03  0.12507656401E+03 0.  0.
         23    2    1    2    0    0  0.98359630841E+02 -0.18352567807E+03 -0.31164506158E+03  0.38513189979E+03  0.88586930976E+02 0.  0.
          5    1    3    3  502    0 -0.12299608756E+03  0.11969351247E+03  0.30533042700E+02  0.17436832734E+03  0.41800000000E+01 0. -1.
         -5    1    3    3    0  502  0.24636456716E+02  0.63832165595E+02  0.36256978470E+02  0.77547026067E+02  0.41800000000E+01 0. -1.
        -11    1    4    4    0    0  0.52476485167E+02 -0.87613126837E+02 -0.78243024110E+02  0.12865384686E+03  0.00000000000E+00 0.  1.
         11    1    4    4    0    0  0.45883145674E+02 -0.95912551230E+02 -0.23340203747E+03  0.25647805293E+03  0.00000000000E+00 0. -1.
</event>
<event>
 8    1  0.6834011E-009  0.9599997E+02  0.7561462E-02  0.1288940E+00
          2   -1    0    0  501    0  0.00000000000E+00  0.00000000000E+00  0.18497020021E+03  0.18497020021E+03  0.00000000000E+00 0. -1.
         -2   -1    0    0    0  501 -0.00000000000E+00 -0.00000000000E+00 -0.13623927043E+03  0.13623927043E+03  0.00000000000E+00 0.  1.
         25    2    1    2    0    0  0.35483067829E+02  0.45884975095E+02 -0.74691164571E+02  0.15681140056E+03  0.12508623520E+03 0.  0.
         23    2    1    2    0    0 -0.35483067829E+02 -0.45884975095E+02  0.12342209434E+03  0.16439807008E+03  0.91810854653E+02 0.  0.
          5    1    3    3  502    0 -0.20838812072E+02  0.29423181427E+02 -0.89130922150E+02  0.96238107718E+02  0.41800000000E+01 0. -1.
         -5    1    3    3    0  502  0.56321879901E+02  0.16461793668E+02  0.14439757579E+02  0.60573292839E+02  0.41800000000E+01 0. -1.
        -11    1    4    4    0    0 -0.39094749074E+02  0.10416773861E+02  0.16876828211E+02  0.43837608435E+02  0.00000000000E+00 0.  1.
         11    1    4    4    0    0  0.36116812452E+01 -0.56301748956E+02  0.10654526613E+03  0.12056046165E+03  0.00000000000E+00 0. -1.
</event>
<event>
 8    1  0.6834011E-009  0.1271670E+03  0.7561462E-02  0.1231721E+00
          2   -1    0    0  501    0  0.00000000000E+00  0.00000000000E+00  0.10476913645E+04  0.10476913645E+04  0.00000000000E+00 0. -1.
         -2   -1    0    0    0  501 -0.00000000000E+00 -0.00000000000E+00 -0.25455541507E+02  0.25455541507E+02  0.00000000000E+00 0.  1.
         25    2    1    2    0    0 -0.28606974956E+02 -0.11839965447E+03  0.54562463332E+03  0.57288016599E+03  0.12509439199E+03 0.  0.
         23    2    1    2    0    0  0.28606974956E+02  0.11839965447E+03  0.47661118964E+03  0.50026673999E+03  0.90949149798E+02 0.  0.
          5    1    3    3  502    0 -0.30098089965E+02 -0.10471827206E+03  0.54761045370E+03  0.55836054027E+03  0.41800000000E+01 0.  1.
         -5    1    3    3    0  502  0.14911150091E+01 -0.13681382409E+02 -0.19858203830E+01  0.14519625724E+02  0.41800000000E+01 0.  1.
        -11    1    4    4    0    0  0.42077272576E+02  0.83470300191E+02  0.43214734768E+03  0.44214151353E+03  0.00000000000E+00 0. -1.
         11    1    4    4    0    0 -0.13470297620E+02  0.34929354278E+02  0.44463841964E+02  0.58125226455E+02  0.00000000000E+00 0.  1.
</event>
<event>
 8    1  0.6834011E-009  0.2022769E+03  0.7561462E-02  0.1147832E+00
          3   -1    0    0  501    0  0.00000000000E+00  0.00000000000E+00  0.42684558424E+03  0.42684558424E+03  0.00000000000E+00 0. -1.
         -3   -1    0    0    0  501 -0.00000000000E+00 -0.00000000000E+00 -0.10651736204E+03  0.10651736204E+03  0.00000000000E+00 0.  1.
         25    2    1    2    0    0  0.12571206667E+03  0.13160694572E+03  0.19596958615E+03  0.29525509479E+03  0.12509028914E+03 0.  0.
         23    2    1    2    0    0 -0.12571206667E+03 -0.13160694572E+03  0.12435863605E+03  0.23810785149E+03  0.90035363689E+02 0.  0.
          5    1    3    3  502    0  0.11782440460E+03  0.62759572847E+02  0.68493253420E+02  0.15010047457E+03  0.41800000000E+01 0.  1.
         -5    1    3    3    0  502  0.78876620674E+01  0.68847372871E+02  0.12747633273E+03  0.14515462022E+03  0.41800000000E+01 0.  1.
        -11    1    4    4    0    0 -0.11079126809E+03 -0.14433632839E+03  0.10289816007E+03  0.20903519350E+03  0.00000000000E+00 0.  1.
         11    1    4    4    0    0 -0.14920798577E+02  0.12729382667E+02  0.21460475979E+02  0.29072657989E+02  0.00000000000E+00 0. -1.
</event>
<event>
 8    1  0.6834011E-009  0.1142078E+03  0.7561462E-02  0.1252970E+00
          2   -1    0    0  501    0  0.00000000000E+00  0.00000000000E+00  0.70460215615E+02  0.70460215615E+02  0.00000000000E+00 0. -1.
         -2   -1    0    0    0  501 -0.00000000000E+00 -0.00000000000E+00 -0.24015601991E+03  0.24015601991E+03  0.00000000000E+00 0.  1.
         25    2    1    2    0    0  0.43516837994E+02  0.50672760513E+02 -0.64821770627E+02  0.15591578581E+03  0.12508567651E+03 0.  0.
         23    2    1    2    0    0 -0.43516837994E+02 -0.50672760513E+02 -0.10487403367E+03  0.15470044972E+03  0.92044675885E+02 0.  0.
          5    1    3    3  502    0  0.22216007446E+02 -0.38144012146E+02 -0.88682353121E+00  0.44348342759E+02  0.41800000000E+01 0.  1.
         -5    1    3    3    0  502  0.21300830548E+02  0.88816772660E+02 -0.63934947096E+02  0.11156744305E+03  0.41800000000E+01 0.  1.
        -11    1    4    4    0    0 -0.59522540159E+02 -0.47896920712E+02 -0.11310388577E+03  0.13649006109E+03  0.00000000000E+00 0.  1.
         11    1    4    4    0    0  0.16005702165E+02 -0.27758398011E+01  0.82298521017E+01  0.18210388628E+02  0.00000000000E+00 0. -1.
</event>
<event>
 8    1  0.6834011E-009  0.1769501E+03  0.7561462E-02  0.1170788E+00
          2   -1    0    0  501    0  0.00000000000E+00  0.00000000000E+00  0.10447873012E+04  0.10447873012E+04  0.00000000000E+00 0.  1.
         -2   -1    0    0    0  501 -0.00000000000E+00 -0.00000000000E+00 -0.41743343398E+02  0.41743343398E+02  0.00000000000E+00 0. -1.
         25    2    1    2    0    0  0.13694737685E+03 -0.81273094999E+02  0.31510267706E+03  0.37456278538E+03  0.12509069951E+03 0.  0.
         23    2    1    2    0    0 -0.13694737685E+03  0.81273094999E+02  0.68794128079E+03  0.71196785927E+03  0.90967724021E+02 0.  0.
          5    1    3    3  502    0  0.42122261693E+01 -0.45122907520E+02  0.16389193244E+03  0.17009367287E+03  0.41800000000E+01 0. -1.
         -5    1    3    3    0  502  0.13273515068E+03 -0.36150187478E+02  0.15121074462E+03  0.20446911251E+03  0.41800000000E+01 0. -1.
        -11    1    4    4    0    0 -0.10114815502E+03  0.25218353270E+02  0.53696765016E+03  0.54699284449E+03  0.00000000000E+00 0.  1.
         11    1    4    4    0    0 -0.35799221836E+02  0.56054741729E+02  0.15097363063E+03  0.16497501478E+03  0.00000000000E+00 0. -1.
</event>
<event>
 8    1  0.6834011E-009  0.2305761E+03  0.7561462E-02  0.1126235E+00
          2   -1    0    0  501    0  0.00000000000E+00  0.00000000000E+00  0.19235529158E+04  0.19235529158E+04  0.00000000000E+00 0. -1.
         -2   -1    0    0    0  501 -0.00000000000E+00 -0.00000000000E+00 -0.30733988087E+02  0.30733988087E+02  0.00000000000E+00 0.  1.
         25    2    1    2    0    0  0.13657670781E+03 -0.16227178127E+03  0.77632082241E+03  0.81443592619E+03  0.12508609218E+03 0.  0.
         23    2    1    2    0    0 -0.13657670781E+03  0.16227178127E+03  0.11164981053E+04  0.11398509777E+04  0.87788974738E+02 0.  0.
          5    1    3    3  502    0  0.15488786455E+03 -0.11670071329E+03  0.56247435497E+03  0.59498250350E+03  0.41800000000E+01 0. -1.
         -5    1    3    3    0  502 -0.18311156738E+02 -0.45571067981E+02  0.21384646744E+03  0.21945342270E+03  0.41800000000E+01 0. -1.
        -11    1    4    4    0    0 -0.95360963101E+02  0.14420646246E+03  0.10023922722E+04  0.10171919604E+04  0.00000000000E+00 0. -1.
         11    1    4    4    0    0 -0.41215744709E+02  0.18065318816E+02  0.11410583314E+03  0.12265901725E+03  0.00000000000E+00 0.  1.
</event>
<event>
 8    1  0.6834011E-009  0.3092046E+03  0.7561462E-02  0.1080728E+00
          1   -1    0    0  501    0  0.00000000000E+00  0.00000000000E+00  0.88752708746E+03  0.88752708746E+03  0.00000000000E+00 0. -1.
         -1   -1    0    0    0  501 -0.00000000000E+00 -0.00000000000E+00 -0.13174230922E+03  0.13174230922E+03  0.00000000000E+00 0.  1.
         25    2    1    2    0    0 -0.23718819542E+03  0.18487134561E+03  0.56478863840E+03  0.65197326477E+03  0.12508907797E+03 0.  0.
         23    2    1    2    0    0  0.23718819542E+03 -0.18487134561E+03  0.19099613983E+03  0.36729613191E+03  0.89393895838E+02 0.  0.
          5    1    3    3  502    0 -0.12801188661E+03  0.15148565540E+03  0.44077768330E+03  0.48336051287E+03  0.41800000000E+01 0.  1.
         -5    1    3    3    0  502 -0.10917630882E+03  0.33385690208E+02  0.12401095510E+03  0.16861275190E+03  0.41800000000E+01 0.  1.
        -11    1    4    4    0    0  0.23597973712E+03 -0.16991842911E+03  0.19689268716E+03  0.35117721900E+03  0.00000000000E+00 0. -1.
         11    1    4    4    0    0  0.12084582978E+01 -0.14952916495E+02 -0.58965473288E+01  0.16118912916E+02  0.00000000000E+00 0.  1.
</event>
<event>
 8    1  0.6834011E-009  0.1107815E+03  0.7561462E-02  0.1259129E+00
          1   -1    0    0  501    0  0.00000000000E+00  0.00000000000E+00  0.70740090238E+03  0.70740090238E+03  0.00000000000E+00 0. -1.
         -1   -1    0    0    0  501 -0.00000000000E+00 -0.00000000000E+00 -0.53958308098E+02  0.53958308098E+02  0.00000000000E+00 0.  1.
         25    2    1    2    0    0  0.34620087457E+02  0.35391513892E+02  0.43658656110E+02  0.14143757721E+03  0.12508956904E+03 0.  0.
         23    2    1    2    0    0 -0.34620087457E+02 -0.35391513892E+02  0.60978393817E+03  0.61992163327E+03  0.10007632305E+03 0.  0.
          5    1    3    3  502    0 -0.33655016879E+02  0.24703398167E+01 -0.22473313501E+02  0.40758863571E+02  0.41800000000E+01 0. -1.
         -5    1    3    3    0  502  0.68275104336E+02  0.32921174075E+02  0.66131969611E+02  0.10067871363E+03  0.41800000000E+01 0. -1.
        -11    1    4    4    0    0 -0.68534576104E+02 -0.36630474292E+02  0.42743164043E+03  0.43443824303E+03  0.00000000000E+00 0.  1.
         11    1    4    4    0    0  0.33914488647E+02  0.12389604005E+01  0.18235229774E+03  0.18548339024E+03  0.00000000000E+00 0. -1.
</event>
<event>
 8    1  0.6834011E-009  0.1717883E+03  0.7561462E-02  0.1175996E+00
          2   -1    0    0  501    0  0.00000000000E+00  0.00000000000E+00  0.48142044930E+03  0.48142044930E+03  0.00000000000E+00 0. -1.
         -2   -1    0    0    0  501 -0.00000000000E+00 -0.00000000000E+00 -0.81609533309E+02  0.81609533309E+02  0.00000000000E+00 0.  1.
         25    2    1    2    0    0  0.41756751891E+02 -0.14657536295E+03  0.11888457877E+03  0.23023677120E+03  0.12508982529E+03 0.  0.
         23    2    1    2    0    0 -0.41756751891E+02  0.14657536295E+03  0.28092633722E+03  0.33279321141E+03  0.92756408198E+02 0.  0.
          5    1    3    3  502    0 -0.15732041790E+02  0.13314895537E+02 -0.27847204911E+01  0.21213454463E+02  0.41800000000E+01 0. -1.
         -5    1    3    3    0  502  0.57488793681E+02 -0.15989025849E+03  0.12166929926E+03  0.20902331674E+03  0.41800000000E+01 0. -1.
        -11    1    4    4    0    0 -0.31012464969E+02  0.11939767968E+03  0.13058812986E+03  0.17964085993E+03  0.00000000000E+00 0.  1.
         11    1    4    4    0    0 -0.10744286922E+02  0.27177683265E+02  0.15033820736E+03  0.15315235147E+03  0.00000000000E+00 0. -1.
</event>
<event>
 8    1  0.6834011E-009  0.1443980E+03  0.7561462E-02  0.1207531E+00
          2   -1    0    0  501    0  0.00000000000E+00  0.00000000000E+00  0.31464212412E+03  0.31464212412E+03  0.00000000000E+00 0. -1.
         -2   -1    0    0    0  501 -0.00000000000E+00 -0.00000000000E+00 -0.86868380562E+02  0.86868380562E+02  0.00000000000E+00 0.  1.
         25    2    1    2    0    0 -0.11964564524E+03  0.34702888635E+02  0.12427142804E+03  0.21589607448E+03  0.12509339010E+03 0.  0.
         23    2    1    2    0    0  0.11964564524E+03 -0.34702888635E+02  0.10350231552E+03  0.18561443020E+03  0.90667615365E+02 0.  0.
          5    1    3    3  502    0 -0.99556093699E+02  0.50747403650E+01  0.14370908474E+03  0.17494839873E+03  0.41800000000E+01 0. -1.
         -5    1    3    3    0  502 -0.20089551540E+02  0.29628148270E+02 -0.19437656705E+02  0.40947675748E+02  0.41800000000E+01 0. -1.
        -11    1    4    4    0    0 -0.24774209454E+01  0.19295846018E+02  0.21132712797E+02  0.28723837457E+02  0.00000000000E+00 0.  1.
         11    1    4    4    0    0  0.12212306618E+03 -0.53998734653E+02  0.82369602726E+02  0.15689059274E+03  0.00000000000E+00 0. -1.
</event>
<event>
 8    1  0.6834011E-009  0.7813745E+02  0.7561462E-02  0.1334422E+00
          1   -1    0    0  501    0  0.00000000000E+00  0.00000000000E+00  0.85986014047E+02  0.85986014047E+02  0.00000000000E+00 0. -1.
         -1   -1    0    0    0  501 -0.00000000000E+00 -0.00000000000E+00 -0.19733861225E+03  0.19733861225E+03  0.00000000000E+00 0.  1.
         25    2    1    2    0    0 -0.63536092762E+02 -0.15389037707E+02 -0.55978055538E+02  0.15183719401E+03  0.12508930098E+03 0.  0.
         23    2    1    2    0    0  0.63536092762E+02  0.15389037707E+02 -0.55374542662E+02  0.13148743228E+03  0.99744409907E+02 0.  0.
          5    1    3    3  502    0 -0.30300691036E+01 -0.22654095489E+02 -0.82157414701E+02  0.85379754928E+02  0.41800000000E+01 0.  1.
         -5    1    3    3    0  502 -0.60506023659E+02  0.72650577812E+01  0.26179359163E+02  0.66457439085E+02  0.41800000000E+01 0.  1.
        -11    1    4    4    0    0  0.51705997442E+02 -0.10335122068E+01  0.18472927473E+02  0.54916549131E+02  0.00000000000E+00 0. -1.
         11    1    4    4    0    0  0.11830095320E+02  0.16422549914E+02 -0.73847470136E+02  0.76570883150E+02  0.00000000000E+00 0.  1.
</event>
<event>
 8    1  0.6834011E-009  0.1431832E+03  0.7561462E-02  0.1209109E+00
         -1   -1    0    0    0  501 -0.00000000000E+00  0.00000000000E+00  0.37093314869E+03  0.37093314869E+03  0.00000000000E+00 0.  1.
          1   -1    0    0  501    0  0.00000000000E+00 -0.00000000000E+00 -0.59991036387E+02  0.59991036387E+02  0.00000000000E+00 0. -1.
         25    2    1    2    0    0 -0.82710994379E+02 -0.54893447787E+02  0.20211308087E+03  0.25758832614E+03  0.12509056361E+03 0.  0.
         23    2    1    2    0    0  0.82710994379E+02  0.54893447787E+02  0.10882903143E+03  0.17333585893E+03  0.91362808132E+02 0.  0.
          5    1    3    3  502    0 -0.11369006972E+03 -0.45679986543E+02  0.18150843666E+03  0.21903168287E+03  0.41800000000E+01 0. -1.
         -5    1    3    3    0  502  0.30979075341E+02 -0.92134612438E+01  0.20604644219E+02  0.38556643273E+02  0.41800000000E+01 0. -1.
        -11    1    4    4    0    0  0.35332551261E+02  0.72489131122E+02  0.46487875183E+02  0.93081608540E+02  0.00000000000E+00 0. -1.
         11    1    4    4    0    0  0.47378443118E+02 -0.17595683335E+02  0.62341156246E+02  0.80254250395E+02  0.00000000000E+00 0.  1.
</event>
<event>
 8    1  0.6834011E-009  0.1190973E+03  0.7561462E-02  0.1244594E+00
          1   -1    0    0  501    0  0.00000000000E+00  0.00000000000E+00  0.86789177082E+03  0.86789177082E+03  0.00000000000E+00 0. -1.
         -1   -1    0    0    0  501 -0.00000000000E+00 -0.00000000000E+00 -0.29755070310E+02  0.29755070310E+02  0.00000000000E+00 0.  1.
         25    2    1    2    0    0  0.95828190878E+02 -0.32226425345E+02  0.61919457672E+03  0.63974317470E+03  0.12509125103E+03 0.  0.
         23    2    1    2    0    0 -0.95828190878E+02  0.32226425345E+02  0.21894212379E+03  0.25790366643E+03  0.91416972868E+02 0.  0.
          5    1    3    3  502    0  0.10313513124E+02 -0.11008732523E+02  0.43739579146E+03  0.43767580643E+03  0.41800000000E+01 0. -1.
         -5    1    3    3    0  502  0.85514677755E+02 -0.21217692823E+02  0.18179878525E+03  0.20206736827E+03  0.41800000000E+01 0. -1.
        -11    1    4    4    0    0  0.48284077646E+01  0.33323844705E+02  0.37425225702E+02  0.50343218673E+02  0.00000000000E+00 0.  1.
         11    1    4    4    0    0 -0.10065659864E+03 -0.10974193603E+01  0.18151689809E+03  0.20756044775E+03  0.00000000000E+00 0. -1.
</event>
<event>
 8    1  0.6834011E-009  0.1101366E+03  0.7561462E-02  0.1260317E+00
         -1   -1    0    0    0  501 -0.00000000000E+00  0.00000000000E+00  0.16258766861E+02  0.16258766861E+02  0.00000000000E+00 0.  1.
          1   -1    0    0  501    0  0.00000000000E+00 -0.00000000000E+00 -0.92955581254E+03  0.92955581254E+03  0.00000000000E+00 0. -1.
         25    2    1    2    0    0 -0.18672515946E+02 -0.44820145320E+02 -0.39090013221E+03  0.41328989881E+03  0.12509244109E+03 0.  0.
         23    2    1    2    0    0  0.18672515946E+02  0.44820145320E+02 -0.52239691347E+03  0.53252468059E+03  0.91249613476E+02 0.  0.
          5    1    3    3  502    0  0.43365901041E+02 -0.32654847213E+02 -0.28277717999E+03  0.28797108594E+03  0.41800000000E+01 0.  1.
         -5    1    3    3    0  502 -0.62038416986E+02 -0.12165298106E+02 -0.10812295223E+03  0.12531881287E+03  0.41800000000E+01 0.  1.
        -11    1    4    4    0    0 -0.23231954069E+02  0.54688075803E+02 -0.26768500525E+03  0.27420023953E+03  0.00000000000E+00 0.  1.
         11    1    4    4    0    0  0.41904470015E+02 -0.98679304837E+01 -0.25471190822E+03  0.25832444106E+03  0.00000000000E+00 0. -1.
</event>
<event>
 8    1  0.6834011E-009  0.2332791E+03  0.7561462E-02  0.1124353E+00
          1   -1    0    0  501    0  0.00000000000E+00  0.00000000000E+00  0.21503852717E+03  0.21503852717E+03  0.00000000000E+00 0. -1.
         -1   -1    0    0    0  501 -0.00000000000E+00 -0.00000000000E+00 -0.26209180179E+03  0.26209180179E+03  0.00000000000E+00 0.  1.
         25    2    1    2    0    0 -0.20991365051E+03  0.80106657742E+01 -0.37957293976E+02  0.24741872347E+03  0.12508939650E+03 0.  0.
         23    2    1    2    0    0  0.20991365051E+03 -0.80106657742E+01 -0.90959806437E+01  0.22971160549E+03  0.92502829120E+02 0.  0.
          5    1    3    3  502    0 -0.19132246200E+03  0.50396010540E+02 -0.27616404774E+02  0.19981036148E+03  0.41800000000E+01 0. -1.
         -5    1    3    3    0  502 -0.18591188516E+02 -0.42385344765E+02 -0.10340889203E+02  0.47608361984E+02  0.41800000000E+01 0. -1.
        -11    1    4    4    0    0  0.17907598233E+03  0.20437357949E+02 -0.30194208510E+02  0.18275005684E+03  0.00000000000E+00 0.  1.
         11    1    4    4    0    0  0.30837668187E+02 -0.28448023723E+02  0.21098227866E+02  0.46961548654E+02  0.00000000000E+00 0. -1.
</event>
<event>
 8    1  0.6834011E-009  0.1720529E+03  0.7561462E-02  0.1175724E+00
          2   -1    0    0  501    0  0.00000000000E+00  0.00000000000E+00  0.20957846673E+03  0.20957846673E+03  0.00000000000E+00 0. -1.
         -2   -1    0    0    0  501 -0.00000000000E+00 -0.00000000000E+00 -0.18882334769E+03  0.18882334769E+03  0.00000000000E+00 0.  1.
         25    2    1    2    0    0 -0.87295172639E+02 -0.12380008126E+03  0.80405295780E+02  0.21227129438E+03  0.12508870270E+03 0.  0.
         23    2    1    2    0    0  0.87295172639E+02  0.12380008126E+03 -0.59650176738E+02  0.18613052003E+03  0.90219286288E+02 0.  0.
          5    1    3    3  502    0 -0.13132627543E+02  0.22885757682E+02  0.30277793295E+02  0.40378719367E+02  0.41800000000E+01 0.  1.
         -5    1    3    3    0  502 -0.74162545096E+02 -0.14668583894E+03  0.50127502485E+02  0.17189257502E+03  0.41800000000E+01 0.  1.
        -11    1    4    4    0    0  0.64612420581E+02  0.10598497481E+03 -0.82746988748E+02  0.14917990457E+03  0.00000000000E+00 0.  1.
         11    1    4    4    0    0  0.22682752058E+02  0.17815106444E+02  0.23096812010E+02  0.36950615469E+02  0.00000000000E+00 0. -1.
</event>
<event>
 8    1  0.6834011E-009  0.7920339E+02  0.7561462E-02  0.1331327E+00
         -2   -1    0    0    0  501 -0.00000000000E+00  0.00000000000E+00  0.15554899131E+02  0.15554899131E+02  0.00000000000E+00 0.  1.
          2   -1    0    0  501    0  0.00000000000E+00 -0.00000000000E+00 -0.10886404368E+04  0.10886404368E+04  0.00000000000E+00 0. -1.
         25    2    1    2    0    0 -0.38508536225E+02 -0.23424722158E+02 -0.82441158566E+03  0.83506475691E+03  0.12508821167E+03 0.  0.
         23    2    1    2    0    0  0.38508536225E+02  0.23424722158E+02 -0.24867395204E+03  0.26913057905E+03  0.92525181359E+02 0.  0.
          5    1    3    3  502    0  0.47109277191E+01 -0.60083522309E+01  0.60258592114E+00  0.87251731385E+01  0.41800000000E+01 0.  1.
         -5    1    3    3    0  502 -0.43219463944E+02 -0.17416369927E+02 -0.82501417158E+03  0.82633958377E+03  0.41800000000E+01 0.  1.
        -11    1    4    4    0    0  0.65422657502E+02 -0.26076816323E+01 -0.15887374166E+03  0.17183652088E+03  0.00000000000E+00 0. -1.
         11    1    4    4    0    0 -0.26914121277E+02  0.26032403790E+02 -0.89800210377E+02  0.97294058169E+02  0.00000000000E+00 0.  1.
</event>
<event>
 8    1  0.6834011E-009  0.1075549E+03  0.7561462E-02  0.1265166E+00
          2   -1    0    0  501    0  0.00000000000E+00  0.00000000000E+00  0.47940172622E+03  0.47940172622E+03  0.00000000000E+00 0. -1.
         -2   -1    0    0    0  501 -0.00000000000E+00 -0.00000000000E+00 -0.26329547489E+02  0.26329547489E+02  0.00000000000E+00 0.  1.
         25    2    1    2    0    0  0.19628992170E+02  0.85037432429E+01  0.21754335902E+03  0.25185327522E+03  0.12508936087E+03 0.  0.
         23    2    1    2    0    0 -0.19628992170E+02 -0.85037432429E+01  0.23552881972E+03  0.25387799849E+03  0.92317940942E+02 0.  0.
          5    1    3    3  502    0  0.73836444217E+00 -0.56499384300E+02  0.74980137674E+02  0.93979886433E+02  0.41800000000E+01 0. -1.
         -5    1    3    3    0  502  0.18890627727E+02  0.65003127543E+02  0.14256322134E+03  0.15787338878E+03  0.41800000000E+01 0. -1.
        -11    1    4    4    0    0  0.34251316232E+02 -0.12831447822E+02  0.60543344854E+02  0.70733975733E+02  0.00000000000E+00 0.  1.
         11    1    4    4    0    0 -0.53880308402E+02  0.43277045795E+01  0.17498547486E+03  0.18314402276E+03  0.00000000000E+00 0. -1.
</event>
<event>
 8    1  0.6834011E-009  0.9781200E+02  0.7561462E-02  0.1284965E+00
         -2   -1    0    0    0  501 -0.00000000000E+00  0.00000000000E+00  0.10936745345E+02  0.10936745345E+02  0.00000000000E+00 0. -1.
          2   -1    0    0  501    0  0.00000000000E+00 -0.00000000000E+00 -0.17925335845E+04  0.17925335845E+04  0.00000000000E+00 0.  1.
         25    2    1    2    0    0  0.29239592621E+01  0.42520946758E+02 -0.14787924216E+04  0.14846854089E+04  0.12508859642E+03 0.  0.
         23    2    1    2    0    0 -0.29239592621E+01 -0.42520946758E+02 -0.30280441761E+03  0.31878492094E+03  0.90092896732E+02 0.  0.
          5    1    3    3  502    0 -0.41650376530E+02  0.23485312791E+02 -0.12430161850E+04  0.12439425318E+04  0.41800000000E+01 0.  1.
         -5    1    3    3    0  502  0.44574335793E+02  0.19035633967E+02 -0.23577623655E+03  0.24074287714E+03  0.41800000000E+01 0.  1.
        -11    1    4    4    0    0 -0.19384682601E+02  0.23770754067E+02 -0.77311915666E+02  0.83174196555E+02  0.00000000000E+00 0.  1.
         11    1    4    4    0    0  0.16460723339E+02 -0.66291700825E+02 -0.22549250195E+03  0.23561072438E+03  0.00000000000E+00 0. -1.
</event>
<event>
 8    1  0.6834011E-009  0.1185802E+03  0.7561462E-02  0.1245458E+00
          2   -1    0    0  501    0  0.00000000000E+00  0.00000000000E+00  0.73038676196E+02  0.73038676196E+02  0.00000000000E+00 0. -1.
         -2   -1    0    0    0  501 -0.00000000000E+00 -0.00000000000E+00 -0.22233307653E+03  0.22233307653E+03  0.00000000000E+00 0.  1.
         25    2    1    2    0    0  0.22059263703E+02  0.51373831111E+02 -0.11982324085E+03  0.18201669396E+03  0.12508631497E+03 0.  0.
         23    2    1    2    0    0 -0.22059263703E+02 -0.51373831111E+02 -0.29471159485E+02  0.11335505877E+03  0.94100682616E+02 0.  0.
          5    1    3    3  502    0 -0.51938913598E+02  0.25440621386E+02 -0.58680885196E+02  0.82497240255E+02  0.41800000000E+01 0.  1.
         -5    1    3    3    0  502  0.73998177300E+02  0.25933209725E+02 -0.61142355650E+02  0.99519453701E+02  0.41800000000E+01 0.  1.
        -11    1    4    4    0    0 -0.44566893019E+02 -0.25939498043E-02 -0.35456996031E+02  0.56950913317E+02  0.00000000000E+00 0.  1.
         11    1    4    4    0    0  0.22507629317E+02 -0.51371237161E+02  0.59858365458E+01  0.56404145451E+02  0.00000000000E+00 0. -1.
</event>
<event>
 8    1  0.6834011E-009  0.8507301E+02  0.7561462E-02  0.1315242E+00
         -2   -1    0    0    0  501 -0.00000000000E+00  0.00000000000E+00  0.51167776556E+02  0.51167776556E+02  0.00000000000E+00 0.  1.
          2   -1    0    0  501    0  0.00000000000E+00 -0.00000000000E+00 -0.36300136713E+03  0.36300136713E+03  0.00000000000E+00 0. -1.
         25    2    1    2    0    0  0.36020942165E+02  0.43660154191E+02 -0.27361426224E+03  0.30613100330E+03  0.12509080437E+03 0.  0.
         23    2    1    2    0    0 -0.36020942165E+02 -0.43660154191E+02 -0.38219328335E+02  0.10803814039E+03  0.83712635742E+02 0.  0.
          5    1    3    3  502    0  0.51468916783E+01  0.36672003269E+02 -0.73817765453E+01  0.37990648095E+02  0.41800000000E+01 0.  1.
         -5    1    3    3    0  502  0.30874050486E+02  0.69881509225E+01 -0.26623248570E+03  0.26814035520E+03  0.41800000000E+01 0.  1.
        -11    1    4    4    0    0 -0.25454097609E+02 -0.68972867149E+02 -0.25652341912E+02  0.77866617580E+02  0.00000000000E+00 0.  1.
         11    1    4    4    0    0 -0.10566844555E+02  0.25312712958E+02 -0.12566986423E+02  0.30171522814E+02  0.00000000000E+00 0. -1.
</event>
<event>
 8    1  0.6834011E-009  0.9553832E+02  0.7561462E-02  0.1289968E+00
         -1   -1    0    0    0  501 -0.00000000000E+00  0.00000000000E+00  0.12679408170E+03  0.12679408170E+03  0.00000000000E+00 0.  1.
          1   -1    0    0  501    0  0.00000000000E+00 -0.00000000000E+00 -0.25284930348E+03  0.25284930348E+03  0.00000000000E+00 0. -1.
         25    2    1    2    0    0  0.27024539543E+02  0.33514425751E+02 -0.21004923203E+03  0.24823715753E+03  0.12508982386E+03 0.  0.
         23    2    1    2    0    0 -0.27024539543E+02 -0.33514425751E+02  0.83994010252E+02  0.13140622765E+03  0.91427897478E+02 0.  0.
          5    1    3    3  502    0  0.67765862606E+02  0.53706125502E+02 -0.14107235560E+03  0.16551568496E+03  0.41800000000E+01 0.  1.
         -5    1    3    3    0  502 -0.40741323062E+02 -0.20191699750E+02 -0.68976876428E+02  0.82721472578E+02  0.41800000000E+01 0.  1.
        -11    1    4    4    0    0 -0.13509564525E+02 -0.41158855380E+02 -0.26324695287E+01  0.43399188997E+02  0.00000000000E+00 0. -1.
         11    1    4    4    0    0 -0.13514975018E+02  0.76444296282E+01  0.86626479781E+02  0.88007038657E+02  0.00000000000E+00 0.  1.
</event>
<event>
 8    1  0.6834011E-009  0.6084751E+02  0.7561462E-02  0.1394309E+00
         -2   -1    0    0    0  501 -0.00000000000E+00  0.00000000000E+00  0.19689233244E+03  0.19689233244E+03  0.00000000000E+00 0.  1.
          2   -1    0    0  501    0  0.00000000000E+00 -0.00000000000E+00 -0.20194961117E+03  0.20194961117E+03  0.00000000000E+00 0. -1.
         25    2    1    2    0    0  0.60572687309E+01 -0.16816000119E+02  0.16371327620E+03  0.20680568664E+03  0.12508831623E+03 0.  0.
         23    2    1    2    0    0 -0.60572687309E+01  0.16816000119E+02 -0.16877055492E+03  0.19203625697E+03  0.89860755712E+02 0.  0.
          5    1    3    3  502    0  0.53843375835E+01  0.11269679050E+02 -0.18323772515E+02  0.22566120541E+02  0.41800000000E+01 0. -1.
         -5    1    3    3    0  502  0.67293114741E+00 -0.28085679169E+02  0.18203704871E+03  0.18423956609E+03  0.41800000000E+01 0. -1.
        -11    1    4    4    0    0  0.33994087695E+02 -0.52444472661E+01 -0.12147735562E+03  0.12625311938E+03  0.00000000000E+00 0.  1.
         11    1    4    4    0    0 -0.40051356426E+02  0.22060447385E+02 -0.47293199303E+02  0.65783137586E+02  0.00000000000E+00 0. -1.
</event>
<event>
 8    1  0.6834011E-009  0.9998995E+02  0.7561462E-02  0.1280317E+00
         -2   -1    0    0    0  501 -0.00000000000E+00  0.00000000000E+00  0.17931378955E+03  0.17931378955E+03  0.00000000000E+00 0.  1.
          2   -1    0    0  501    0  0.00000000000E+00 -0.00000000000E+00 -0.10721715745E+03  0.10721715745E+03  0.00000000000E+00 0. -1.
         25    2    1    2    0    0 -0.26758865124E+02  0.33124068526E+02 -0.38531158624E+02  0.13764318091E+03  0.12509098404E+03 0.  0.
         23    2    1    2    0    0  0.26758865124E+02 -0.33124068526E+02  0.11062779072E+03  0.14888776609E+03  0.90087835104E+02 0.  0.
          5    1    3    3  502    0 -0.54644297288E+02  0.51564087682E+02  0.12713843918E+02  0.76314930333E+02  0.41800000000E+01 0.  1.
         -5    1    3    3    0  502  0.27885432164E+02 -0.18440019156E+02 -0.51245002542E+02  0.61328250578E+02  0.41800000000E+01 0.  1.
        -11    1    4    4    0    0 -0.24935601257E+02  0.66593494723E+01  0.75274504988E+01  0.26884822046E+02  0.00000000000E+00 0. -1.
         11    1    4    4    0    0  0.51694466381E+02 -0.39783417999E+02  0.10310034022E+03  0.12200294405E+03  0.00000000000E+00 0.  1.
</event>
<event>
 8    1  0.6834011E-009  0.2949702E+03  0.7561462E-02  0.1087782E+00
          2   -1    0    0  501    0  0.00000000000E+00  0.00000000000E+00  0.72523593058E+03  0.72523593058E+03  0.00000000000E+00 0. -1.
         -2   -1    0    0    0  501 -0.00000000000E+00 -0.00000000000E+00 -0.23794445403E+03  0.23794445403E+03  0.00000000000E+00 0.  1.
         25    2    1    2    0    0  0.24561411136E+03  0.13424939600E+03  0.57871551311E+03  0.65491078026E+03  0.12508914003E+03 0.  0.
         23    2    1    2    0    0 -0.24561411136E+03 -0.13424939600E+03 -0.91424036571E+02  0.30826960435E+03  0.91228298652E+02 0.  0.
          5    1    3    3  502    0 -0.12120599339E+02 -0.98002247086E+00  0.11007864784E+02  0.16926749820E+02  0.41800000000E+01 0. -1.
         -5    1    3    3    0  502  0.25773471070E+03  0.13522941847E+03  0.56770764833E+03  0.63798403044E+03  0.41800000000E+01 0. -1.
        -11    1    4    4    0    0 -0.71514563899E+02 -0.10237753462E+02  0.77005939739E+01  0.72652898037E+02  0.00000000000E+00 0. -1.
         11    1    4    4    0    0 -0.17409954747E+03 -0.12401164254E+03 -0.99124630545E+02  0.23561670631E+03  0.00000000000E+00 0.  1.
</event>
<event>
 8    1  0.6834011E-009  0.1975015E+03  0.7561462E-02  0.1151864E+00
         -2   -1    0    0    0  501 -0.00000000000E+00  0.00000000000E+00  0.96677516260E+02  0.96677516260E+02  0.00000000000E+00 0.  1.
          2   -1    0    0  501    0  0.00000000000E+00 -0.00000000000E+00 -0.49983499973E+03  0.49983499973E+03  0.00000000000E+00 0. -1.
         25    2    1    2    0    0 -0.26137452623E+02  0.18486272363E+03 -0.25845789145E+03  0.34249772760E+03  0.12508724450E+03 0.  0.
         23    2    1    2    0    0  0.26137452623E+02 -0.18486272363E+03 -0.14469959202E+03  0.25401478840E+03  0.93424556599E+02 0.  0.
          5    1    3    3  502    0 -0.10305419949E+02  0.16298554731E+03 -0.12347885260E+03  0.20478034513E+03  0.41800000000E+01 0. -1.
         -5    1    3    3    0  502 -0.15832032673E+02  0.21877176318E+02 -0.13497903886E+03  0.13771738246E+03  0.41800000000E+01 0. -1.
        -11    1    4    4    0    0 -0.29270927636E+02 -0.87762483113E+02 -0.91809671185E+02  0.13033823833E+03  0.00000000000E+00 0. -1.
         11    1    4    4    0    0  0.55408380259E+02 -0.97100240519E+02 -0.52889920837E+02  0.12367655007E+03  0.00000000000E+00 0.  1.
</event>
<event>
 8    1  0.6834011E-009  0.9742640E+02  0.7561462E-02  0.1285803E+00
         -2   -1    0    0    0  501 -0.00000000000E+00  0.00000000000E+00  0.54190635573E+02  0.54190635573E+02  0.00000000000E+00 0.  1.
          2   -1    0    0  501    0  0.00000000000E+00 -0.00000000000E+00 -0.24562705141E+03  0.24562705141E+03  0.00000000000E+00 0. -1.
         25    2    1    2    0    0  0.17839073173E+02  0.37357246258E+02 -0.12807907249E+03  0.18375267425E+03  0.12508796946E+03 0.  0.
         23    2    1    2    0    0 -0.17839073173E+02 -0.37357246258E+02 -0.63357343341E+02  0.11606501273E+03  0.87995101260E+02 0.  0.
          5    1    3    3  502    0  0.35478352209E+02 -0.23992909534E+02 -0.28469648464E+01  0.43127146813E+02  0.41800000000E+01 0.  1.
         -5    1    3    3    0  502 -0.17639279036E+02  0.61350155791E+02 -0.12523210765E+03  0.14062552743E+03  0.41800000000E+01 0.  1.
        -11    1    4    4    0    0 -0.48204661503E+02 -0.29376440115E+02 -0.15000472831E+02  0.58409578064E+02  0.00000000000E+00 0.  1.
         11    1    4    4    0    0  0.30365588330E+02 -0.79808061424E+01 -0.48356870509E+02  0.57655434668E+02  0.00000000000E+00 0. -1.
</event>
<event>
 8    1  0.6834011E-009  0.1453774E+03  0.7561462E-02  0.1206271E+00
         -1   -1    0    0    0  501 -0.00000000000E+00  0.00000000000E+00  0.52779747263E+02  0.52779747263E+02  0.00000000000E+00 0.  1.
          1   -1    0    0  501    0  0.00000000000E+00 -0.00000000000E+00 -0.62944322525E+03  0.62944322525E+03  0.00000000000E+00 0. -1.
         25    2    1    2    0    0  0.13061739923E+03  0.40519586660E+02 -0.21591003971E+03  0.28454845228E+03  0.12509170461E+03 0.  0.
         23    2    1    2    0    0 -0.13061739923E+03 -0.40519586660E+02 -0.36075343828E+03  0.39767452024E+03  0.96432561573E+02 0.  0.
          5    1    3    3  502    0  0.11340193019E+03  0.20252366716E+02 -0.22765807920E+03  0.25517803501E+03  0.41800000000E+01 0. -1.
         -5    1    3    3    0  502  0.17215469036E+02  0.20267219944E+02  0.11748039490E+02  0.29370417263E+02  0.41800000000E+01 0. -1.
        -11    1    4    4    0    0 -0.10137594232E+03 -0.35630574726E+01 -0.31890594958E+03  0.33465023792E+03  0.00000000000E+00 0. -1.
         11    1    4    4    0    0 -0.29241456905E+02 -0.36956529187E+02 -0.41847488697E+02  0.63024282318E+02  0.00000000000E+00 0.  1.
</event>
<event>
 8    1  0.6834011E-009  0.3384258E+03  0.7561462E-02  0.1067468E+00
          2   -1    0    0  501    0  0.00000000000E+00  0.00000000000E+00  0.19961471110E+04  0.19961471110E+04  0.00000000000E+00 0. -1.
         -2   -1    0    0    0  501 -0.00000000000E+00 -0.00000000000E+00 -0.61786828728E+02  0.61786828728E+02  0.00000000000E+00 0.  1.
         25    2    1    2    0    0 -0.32123654037E+03  0.73199632948E+02  0.83024025297E+03  0.90194127871E+03  0.12509233168E+03 0.  0.
         23    2    1    2    0    0  0.32123654037E+03 -0.73199632948E+02  0.11041200293E+04  0.11559926610E+04  0.93203498350E+02 0.  0.
          5    1    3    3  502    0 -0.42882008358E+02 -0.25265293034E+02  0.66979196114E+02  0.83551701269E+02  0.41800000000E+01 0.  1.
         -5    1    3    3    0  502 -0.27835453201E+03  0.98464925981E+02  0.76326105686E+03  0.81838957744E+03  0.41800000000E+01 0.  1.
        -11    1    4    4    0    0  0.23051067085E+03 -0.34891318276E+02  0.89463941596E+03  0.92451731085E+03  0.00000000000E+00 0.  1.
         11    1    4    4    0    0  0.90725869513E+02 -0.38308314672E+02  0.20948061330E+03  0.23147535014E+03  0.00000000000E+00 0. -1.
</event>
<event>
 8    1  0.6834011E-009  0.6575226E+02  0.7561462E-02  0.1375164E+00
         -1   -1    0    0    0  501 -0.00000000000E+00  0.00000000000E+00  0.10937707758E+03  0.10937707758E+03  0.00000000000E+00 0.  1.
          1   -1    0    0  501    0  0.00000000000E+00 -0.00000000000E+00 -0.13589218533E+03  0.13589218533E+03  0.00000000000E+00 0. -1.
         25    2    1    2    0    0 -0.38091862022E+02 -0.21525149935E+02  0.17992359870E+02  0.13375503351E+03  0.12510939990E+03 0.  0.
         23    2    1    2    0    0  0.38091862022E+02  0.21525149935E+02 -0.44507467622E+02  0.11151422940E+03  0.92413130302E+02 0.  0.
          5    1    3    3  502    0 -0.97499199532E+01  0.51102567825E+01 -0.52138918984E+02  0.53451987207E+02  0.41800000000E+01 0.  1.
         -5    1    3    3    0  502 -0.28341942068E+02 -0.26635406717E+02  0.70131278855E+02  0.80303046300E+02  0.41800000000E+01 0.  1.
        -11    1    4    4    0    0  0.44590899249E+02 -0.12229454294E+02 -0.58357183977E+02  0.74454474479E+02  0.00000000000E+00 0. -1.
         11    1    4    4    0    0 -0.64990372276E+01  0.33754604229E+02  0.13849716356E+02  0.37059754919E+02  0.00000000000E+00 0.  1.
</event>
<event>
 8    1  0.6834011E-009  0.1555613E+03  0.7561462E-02  0.1193801E+00
         -1   -1    0    0    0  501 -0.00000000000E+00  0.00000000000E+00  0.48963700517E+02  0.48963700517E+02  0.00000000000E+00 0.  1.
          1   -1    0    0  501    0  0.00000000000E+00 -0.00000000000E+00 -0.81342803113E+03  0.81342803113E+03  0.00000000000E+00 0. -1.
         25    2    1    2    0    0  0.92775716688E+02  0.76284287311E+02 -0.65580087120E+03  0.67834265232E+03  0.12508934884E+03 0.  0.
         23    2    1    2    0    0 -0.92775716688E+02 -0.76284287311E+02 -0.10866345941E+03  0.18404907932E+03  0.87405320726E+02 0.  0.
          5    1    3    3  502    0  0.92608893176E+02 -0.40622073770E+01 -0.36622507332E+03  0.37779781015E+03  0.41800000000E+01 0.  1.
         -5    1    3    3    0  502  0.16682351239E+00  0.80346494688E+02 -0.28957579788E+03  0.30054484217E+03  0.41800000000E+01 0.  1.
        -11    1    4    4    0    0 -0.89957107622E+02 -0.87989753937E+02 -0.11497806546E+03  0.17045361113E+03  0.00000000000E+00 0. -1.
         11    1    4    4    0    0 -0.28186090662E+01  0.11705466626E+02  0.63146060464E+01  0.13595468198E+02  0.00000000000E+00 0.  1.
</event>
<event>
 8    1  0.6834011E-009  0.1198716E+03  0.7561462E-02  0.1243309E+00
         -2   -1    0    0    0  501 -0.00000000000E+00  0.00000000000E+00  0.26026952578E+02  0.26026952578E+02  0.00000000000E+00 0.  1.
          2   -1    0    0  501    0  0.00000000000E+00 -0.00000000000E+00 -0.73240031692E+03  0.73240031692E+03  0.00000000000E+00 0. -1.
         25    2    1    2    0    0  0.55498606639E+02  0.64359451923E+02 -0.41205648625E+03  0.43893222048E+03  0.12509481174E+03 0.  0.
         23    2    1    2    0    0 -0.55498606639E+02 -0.64359451923E+02 -0.29431687810E+03  0.31949504902E+03  0.90732724120E+02 0.  0.
          5    1    3    3  502    0 -0.28379716756E+01 -0.32109387627E+02 -0.49403852359E+02  0.59137804194E+02  0.41800000000E+01 0.  1.
         -5    1    3    3    0  502  0.58336578315E+02  0.96468839550E+02 -0.36265263389E+03  0.37979441628E+03  0.41800000000E+01 0.  1.
        -11    1    4    4    0    0 -0.40374926833E+02 -0.15448501933E+02 -0.36302542160E+02  0.56450557978E+02  0.00000000000E+00 0.  1.
         11    1    4    4    0    0 -0.15123679806E+02 -0.48910949990E+02 -0.25801433594E+03  0.26304449104E+03  0.00000000000E+00 0. -1.
</event>
<event>
 8    1  0.6834011E-009  0.9295584E+02  0.7561462E-02  0.1295848E+00
         -2   -1    0    0    0  501 -0.00000000000E+00  0.00000000000E+00  0.32155451401E+02  0.32155451401E+02  0.00000000000E+00 0.  1.
          2   -1    0    0  501    0  0.00000000000E+00 -0.00000000000E+00 -0.52173010221E+03  0.52173010221E+03  0.00000000000E+00 0. -1.
         25    2    1    2    0    0 -0.62080070007E+02  0.19396136741E+02 -0.31797659836E+03  0.34783031875E+03  0.12508664328E+03 0.  0.
         23    2    1    2    0    0  0.62080070007E+02 -0.19396136741E+02 -0.17159805245E+03  0.20605523486E+03  0.93716183209E+02 0.  0.
          5    1    3    3  502    0 -0.62863411005E+02  0.69402791833E+01 -0.53267404150E+02  0.82794110075E+02  0.41800000000E+01 0.  1.
         -5    1    3    3    0  502  0.78334099803E+00  0.12455857558E+02 -0.26470919421E+03  0.26503620867E+03  0.41800000000E+01 0.  1.
        -11    1    4    4    0    0 -0.31479785802E+01 -0.40643412697E+02 -0.94132466861E+02  0.10258030065E+03  0.00000000000E+00 0. -1.
         11    1    4    4    0    0  0.65228048587E+02  0.21247275956E+02 -0.77465585590E+02  0.10347493421E+03  0.00000000000E+00 0.  1.
</event>
<event>
 8    1  0.6834011E-009  0.1054534E+03  0.7561462E-02  0.1269229E+00
         -2   -1    0    0    0  501 -0.00000000000E+00  0.00000000000E+00  0.50271120523E+03  0.50271120523E+03  0.00000000000E+00 0.  1.
          2   -1    0    0  501    0  0.00000000000E+00 -0.00000000000E+00 -0.26216930445E+02  0.26216930445E+02  0.00000000000E+00 0. -1.
         25    2    1    2    0    0 -0.30032543052E+02  0.18946325733E+02  0.31131634213E+03  0.33738160041E+03  0.12509021752E+03 0.  0.
         23    2    1    2    0    0  0.30032543052E+02 -0.18946325733E+02  0.16517793266E+03  0.19154653527E+03  0.90251918727E+02 0.  0.
          5    1    3    3  502    0 -0.24455718552E+02 -0.47893435336E+02  0.20185627427E+03  0.20893848659E+03  0.41800000000E+01 0. -1.
         -5    1    3    3    0  502 -0.55768245005E+01  0.66839761069E+02  0.10946006786E+03  0.12844311382E+03  0.41800000000E+01 0. -1.
        -11    1    4    4    0    0  0.21964572041E+02  0.31653290500E+02  0.36622882890E+02  0.53156455635E+02  0.00000000000E+00 0. -1.
         11    1    4    4    0    0  0.80679710110E+01 -0.50599616233E+02  0.12855504977E+03  0.13839007963E+03  0.00000000000E+00 0.  1.
</event>
<event>
 8    1  0.6834011E-009  0.8911694E+02  0.7561462E-02  0.1305004E+00
          2   -1    0    0  501    0  0.00000000000E+00  0.00000000000E+00  0.69792617408E+03  0.69792617408E+03  0.00000000000E+00 0. -1.
         -2   -1    0    0    0  501 -0.00000000000E+00 -0.00000000000E+00 -0.23211012503E+02  0.23211012503E+02  0.00000000000E+00 0.  1.
         25    2    1    2    0    0 -0.63336755078E+01  0.63596860510E+02  0.31707416151E+03  0.34679668447E+03  0.12508892978E+03 0.  0.
         23    2    1    2    0    0  0.63336755078E+01 -0.63596860510E+02  0.35764100007E+03  0.37434050211E+03  0.90216686242E+02 0.  0.
          5    1    3    3  502    0 -0.11232296496E+02  0.16265361685E+02 -0.53122639090E+01  0.20890644393E+02  0.41800000000E+01 0.  1.
         -5    1    3    3    0  502  0.48986209882E+01  0.47331498826E+02  0.32238642542E+03  0.32590604008E+03  0.41800000000E+01 0.  1.
        -11    1    4    4    0    0  0.45502499354E+02 -0.15141246844E+02  0.16930122905E+03  0.17596204410E+03  0.00000000000E+00 0. -1.
         11    1    4    4    0    0 -0.39168823847E+02 -0.48455613666E+02  0.18833977102E+03  0.19837845802E+03  0.00000000000E+00 0.  1.
</event>
<event>
 8    1  0.6834011E-009  0.1454715E+03  0.7561462E-02  0.1206151E+00
         -2   -1    0    0    0  501 -0.00000000000E+00  0.00000000000E+00  0.34068542830E+02  0.34068542830E+02  0.00000000000E+00 0.  1.
          2   -1    0    0  501    0  0.00000000000E+00 -0.00000000000E+00 -0.10032538856E+04  0.10032538856E+04  0.00000000000E+00 0. -1.
         25    2    1    2    0    0  0.14218855140E+03  0.28076021522E+02 -0.61551721910E+03  0.64460310789E+03  0.12508346236E+03 0.  0.
         23    2    1    2    0    0 -0.14218855140E+03 -0.28076021522E+02 -0.35366812371E+03  0.39271932058E+03  0.90230127433E+02 0.  0.
          5    1    3    3  502    0  0.10949864455E+03  0.25253472198E+02 -0.59532023598E+03  0.60584762670E+03  0.41800000000E+01 0. -1.
         -5    1    3    3    0  502  0.32689906853E+02  0.28225493233E+01 -0.20196983124E+02  0.38755481187E+02  0.41800000000E+01 0. -1.
        -11    1    4    4    0    0 -0.11440888554E+03 -0.17743957936E+02 -0.34165462232E+03  0.36073830138E+03  0.00000000000E+00 0. -1.
         11    1    4    4    0    0 -0.27779665860E+02 -0.10332063586E+02 -0.12013501390E+02  0.31981019197E+02  0.00000000000E+00 0.  1.
</event>
<event>
 8    1  0.6834011E-009  0.1285536E+03  0.7561462E-02  0.1229618E+00
          2   -1    0    0  501    0  0.00000000000E+00  0.00000000000E+00  0.44630408330E+02  0.44630408330E+02  0.00000000000E+00 0. -1.
         -2   -1    0    0    0  501 -0.00000000000E+00 -0.00000000000E+00 -0.48082901829E+03  0.48082901829E+03  0.00000000000E+00 0.  1.
         25    2    1    2    0    0  0.77984369950E+02  0.72445006921E+01 -0.13680314079E+03  0.20123554525E+03  0.12508637254E+03 0.  0.
         23    2    1    2    0    0 -0.77984369950E+02 -0.72445006921E+01 -0.29939546918E+03  0.32422388138E+03  0.96692468919E+02 0.  0.
          5    1    3    3  502    0 -0.77004818425E+01 -0.45519226354E+02 -0.51091392406E+02  0.68986231717E+02  0.41800000000E+01 0. -1.
         -5    1    3    3    0  502  0.85684851792E+02  0.52763727046E+02 -0.85711748381E+02  0.13224931353E+03  0.41800000000E+01 0. -1.
        -11    1    4    4    0    0 -0.54491612498E+02  0.32806728571E+02 -0.24293026369E+03  0.25111895645E+03  0.00000000000E+00 0.  1.
         11    1    4    4    0    0 -0.23492757452E+02 -0.40051229263E+02 -0.56465205490E+02  0.73104924931E+02  0.00000000000E+00 0. -1.
</event>
<event>
 8    1  0.6834011E-009  0.1146305E+03  0.7561462E-02  0.1252228E+00
          2   -1    0    0  501    0  0.00000000000E+00  0.00000000000E+00  0.64410107207E+02  0.64410107207E+02  0.00000000000E+00 0. -1.
         -2   -1    0    0    0  501 -0.00000000000E+00 -0.00000000000E+00 -0.31734220622E+03  0.31734220622E+03  0.00000000000E+00 0.  1.
         25    2    1    2    0    0  0.72046930966E+02 -0.45073816747E+02 -0.19030791810E+03  0.24307693406E+03  0.12508750122E+03 0.  0.
         23    2    1    2    0    0 -0.72046930966E+02  0.45073816747E+02 -0.62624180912E+02  0.13867537937E+03  0.89925878309E+02 0.  0.
          5    1    3    3  502    0  0.73223494945E+02  0.71435549422E+01 -0.39889549665E+02  0.83793550835E+02  0.41800000000E+01 0. -1.
         -5    1    3    3    0  502 -0.11765639781E+01 -0.52217371689E+02 -0.15041836843E+03  0.15928338322E+03  0.41800000000E+01 0. -1.
        -11    1    4    4    0    0 -0.66726514107E+01  0.36657360785E+02 -0.62497510240E+02  0.72761426338E+02  0.00000000000E+00 0.  1.
         11    1    4    4    0    0 -0.65374279556E+02  0.84164559622E+01 -0.12667067212E+00  0.65913953029E+02  0.00000000000E+00 0. -1.
</event>
<event>
 8    1  0.6834011E-009  0.1992838E+03  0.7561462E-02  0.1150345E+00
          2   -1    0    0  501    0  0.00000000000E+00  0.00000000000E+00  0.19635805825E+04  0.19635805825E+04  0.00000000000E+00 0. -1.
         -2   -1    0    0    0  501 -0.00000000000E+00 -0.00000000000E+00 -0.54438263471E+02  0.54438263471E+02  0.00000000000E+00 0.  1.
         25    2    1    2    0    0  0.15024007295E+03  0.10858156326E+03  0.17300389751E+04  0.17444324229E+04  0.12509031614E+03 0.  0.
         23    2    1    2    0    0 -0.15024007295E+03 -0.10858156326E+03  0.17910334390E+03  0.27358642307E+03  0.91703258905E+02 0.  0.
          5    1    3    3  502    0  0.12203369980E+03  0.57876770960E+02  0.15341170944E+04  0.15400567120E+04  0.41800000000E+01 0. -1.
         -5    1    3    3    0  502  0.28206373149E+02  0.50704792300E+02  0.19592188069E+03  0.20437571084E+03  0.41800000000E+01 0. -1.
        -11    1    4    4    0    0 -0.47997483716E+02  0.96516395210E+01  0.29149691027E+02  0.56979093319E+02  0.00000000000E+00 0. -1.
         11    1    4    4    0    0 -0.10224258923E+03 -0.11823320278E+03  0.14995365287E+03  0.21660732975E+03  0.00000000000E+00 0.  1.
</event>
<event>
 8    1  0.6834011E-009  0.1321796E+03  0.7561462E-02  0.1224257E+00
         -1   -1    0    0    0  501 -0.00000000000E+00  0.00000000000E+00  0.57191547709E+02  0.57191547709E+02  0.00000000000E+00 0.  1.
          1   -1    0    0  501    0  0.00000000000E+00 -0.00000000000E+00 -0.37198165830E+03  0.37198165830E+03  0.00000000000E+00 0. -1.
         25    2    1    2    0    0 -0.81135365183E+02 -0.26215237399E+02 -0.25818112268E+03  0.29929270811E+03  0.12509375231E+03 0.  0.
         23    2    1    2    0    0  0.81135365183E+02  0.26215237399E+02 -0.56608987916E+02  0.12988049790E+03  0.79963617139E+02 0.  0.
          5    1    3    3  502    0 -0.50830799999E+02  0.48661523154E+02 -0.11837763137E+03  0.13777681254E+03  0.41800000000E+01 0.  1.
         -5    1    3    3    0  502 -0.30304565184E+02 -0.74876760553E+02 -0.13980349131E+03  0.16151589558E+03  0.41800000000E+01 0.  1.
        -11    1    4    4    0    0  0.73339348958E+02  0.49463805985E+02 -0.29320379862E+02  0.93193416523E+02  0.00000000000E+00 0.  1.
         11    1    4    4    0    0  0.77960162253E+01 -0.23248568586E+02 -0.27288608053E+02  0.36687081374E+02  0.00000000000E+00 0. -1.
</event>
<event>
 8    1  0.6834011E-009  0.1055761E+03  0.7561462E-02  0.1268989E+00
          3   -1    0    0  501    0  0.00000000000E+00  0.00000000000E+00  0.61072034429E+03  0.61072034429E+03  0.00000000000E+00 0. -1.
         -3   -1    0    0    0  501 -0.00000000000E+00 -0.00000000000E+00 -0.24445275522E+02  0.24445275522E+02  0.00000000000E+00 0.  1.
         25    2    1    2    0    0 -0.44202505155E+02  0.32630708014E+02  0.29572156001E+03  0.32575656042E+03  0.12508985186E+03 0.  0.
         23    2    1    2    0    0  0.44202505155E+02 -0.32630708014E+02  0.29055350876E+03  0.30940905939E+03  0.91071400613E+02 0.  0.
          5    1    3    3  502    0  0.36074514052E+02  0.31250744798E+02  0.16919305463E+03  0.17584578969E+03  0.41800000000E+01 0. -1.
         -5    1    3    3    0  502 -0.80277019206E+02  0.13799632161E+01  0.12652850537E+03  0.14991077074E+03  0.41800000000E+01 0. -1.
        -11    1    4    4    0    0  0.38689446188E+02  0.99170134475E+01  0.23911076347E+03  0.24242355003E+03  0.00000000000E+00 0. -1.
         11    1    4    4    0    0  0.55130589663E+01 -0.42547721462E+02  0.51442745295E+02  0.66985509360E+02  0.00000000000E+00 0.  1.
</event>
<event>
 8    1  0.6834011E-009  0.1287345E+03  0.7561462E-02  0.1229346E+00
         -2   -1    0    0    0  501 -0.00000000000E+00  0.00000000000E+00  0.18893980158E+02  0.18893980158E+02  0.00000000000E+00 0.  1.
          2   -1    0    0  501    0  0.00000000000E+00 -0.00000000000E+00 -0.99322686567E+03  0.99322686567E+03  0.00000000000E+00 0. -1.
         25    2    1    2    0    0  0.61685889676E+02 -0.45955508537E+02 -0.65423631412E+03  0.67051444747E+03  0.12508961510E+03 0.  0.
         23    2    1    2    0    0 -0.61685889676E+02  0.45955508537E+02 -0.32009657140E+03  0.34160639836E+03  0.91192426384E+02 0.  0.
          5    1    3    3  502    0 -0.35244329929E+02 -0.33695113667E+02 -0.23104472354E+03  0.23617082832E+03  0.41800000000E+01 0. -1.
         -5    1    3    3    0  502  0.96930219605E+02 -0.12260394870E+02 -0.42319159058E+03  0.43434361915E+03  0.41800000000E+01 0. -1.
        -11    1    4    4    0    0  0.18259700902E+02  0.19047287805E+02 -0.14340785195E+03  0.14581504672E+03  0.00000000000E+00 0. -1.
         11    1    4    4    0    0 -0.79945590579E+02  0.26908220732E+02 -0.17668871945E+03  0.19579135164E+03  0.00000000000E+00 0.  1.
</event>
<event>
 8    1  0.6834011E-009  0.1440059E+03  0.7561462E-02  0.1208038E+00
          2   -1    0    0  501    0  0.00000000000E+00  0.00000000000E+00  0.12638825729E+03  0.12638825729E+03  0.00000000000E+00 0. -1.
         -2   -1    0    0    0  501 -0.00000000000E+00 -0.00000000000E+00 -0.24864273460E+03  0.24864273460E+03  0.00000000000E+00 0.  1.
         25    2    1    2    0    0 -0.11276021432E+03  0.82799916366E+01  0.23752574785E+02  0.17027984526E+03  0.12509043407E+03 0.  0.
         23    2    1    2    0    0  0.11276021432E+03 -0.82799916366E+01 -0.14600705210E+03  0.20475114663E+03  0.88439519384E+02 0.  0.
          5    1    3    3  502    0 -0.87909171211E+02 -0.49192037971E+02 -0.56449074827E+01  0.10098126739E+03  0.41800000000E+01 0. -1.
         -5    1    3    3    0  502 -0.24851043112E+02  0.57472029607E+02  0.29397482268E+02  0.69298577869E+02  0.41800000000E+01 0. -1.
        -11    1    4    4    0    0  0.97180004853E+02 -0.26237994697E+02 -0.14999917965E+03  0.18064368133E+03  0.00000000000E+00 0.  1.
         11    1    4    4    0    0  0.15580209470E+02  0.17958003060E+02  0.39921275481E+01  0.24107465304E+02  0.00000000000E+00 0. -1.
</event>
<event>
 8    1  0.6834011E-009  0.8835248E+02  0.7561462E-02  0.1306891E+00
          2   -1    0    0  501    0  0.00000000000E+00  0.00000000000E+00  0.93442871216E+03  0.93442871216E+03  0.00000000000E+00 0. -1.
         -2   -1    0    0    0  501 -0.00000000000E+00 -0.00000000000E+00 -0.18623028809E+02  0.18623028809E+02  0.00000000000E+00 0.  1.
         25    2    1    2    0    0  0.42884389007E+02  0.17836018795E+02  0.71887487351E+03  0.73115399957E+03  0.12509153824E+03 0.  0.
         23    2    1    2    0    0 -0.42884389007E+02 -0.17836018795E+02  0.19693080984E+03  0.22189774140E+03  0.91102521291E+02 0.  0.
          5    1    3    3  502    0  0.73840253787E+02 -0.17079965903E+01  0.24694651061E+03  0.25778935555E+03  0.41800000000E+01 0. -1.
         -5    1    3    3    0  502 -0.30955864780E+02  0.19544015385E+02  0.47192836290E+03  0.47336464402E+03  0.41800000000E+01 0.  1.
        -11    1    4    4    0    0 -0.20712025319E+02  0.15481680034E+02  0.56417341150E+01  0.26466952475E+02  0.00000000000E+00 0.  1.
         11    1    4    4    0    0 -0.22172363687E+02 -0.33317698828E+02  0.19128907572E+03  0.19543078892E+03  0.00000000000E+00 0. -1.
</event>
<event>
 8    1  0.6834011E-009  0.1204953E+03  0.7561462E-02  0.1242282E+00
          3   -1    0    0  501    0  0.00000000000E+00  0.00000000000E+00  0.14281142817E+04  0.14281142817E+04  0.00000000000E+00 0. -1.
         -3   -1    0    0    0  501 -0.00000000000E+00 -0.00000000000E+00 -0.12159772364E+02  0.12159772364E+02  0.00000000000E+00 0.  1.
         25    2    1    2    0    0 -0.49849552892E+01 -0.60836709241E+02  0.10364962744E+04  0.10458001700E+04  0.12509002230E+03 0.  0.
         23    2    1    2    0    0  0.49849552892E+01  0.60836709241E+02  0.37945823493E+03  0.39447388409E+03  0.88854590235E+02 0.  0.
          5    1    3    3  502    0  0.49308512506E+01  0.37907429541E+02  0.22722975115E+03  0.23046066631E+03  0.41800000000E+01 0. -1.
         -5    1    3    3    0  502 -0.99158065397E+01 -0.98744138782E+02  0.80926652327E+03  0.81533950367E+03  0.41800000000E+01 0. -1.
        -11    1    4    4    0    0 -0.53497631741E+00 -0.21089009742E+02  0.39956387940E+02  0.45183464551E+02  0.00000000000E+00 0.  1.
         11    1    4    4    0    0  0.55199316066E+01  0.81925718983E+02  0.33950184699E+03  0.34929041954E+03  0.00000000000E+00 0. -1.
</event>
<event>
 8    1  0.6834011E-009  0.1268988E+03  0.7561462E-02  0.1232131E+00
          2   -1    0    0  501    0  0.00000000000E+00  0.00000000000E+00  0.52604130704E+03  0.52604130704E+03  0.00000000000E+00 0. -1.
         -2   -1    0    0    0  501 -0.00000000000E+00 -0.00000000000E+00 -0.35018538067E+02  0.35018538067E+02  0.00000000000E+00 0.  1.
         25    2    1    2    0    0 -0.28910109991E+02  0.65698855738E+02  0.18080323593E+03  0.23127808409E+03  0.12509039913E+03 0.  0.
         23    2    1    2    0    0  0.28910109991E+02 -0.65698855738E+02  0.31021953305E+03  0.32978176102E+03  0.85835407098E+02 0.  0.
          5    1    3    3  502    0 -0.32571955901E+02 -0.31949157534E+02  0.67766070527E+02  0.81800939439E+02  0.41800000000E+01 0.  1.
         -5    1    3    3    0  502  0.36618459101E+01  0.97648013272E+02  0.11303716540E+03  0.14947714465E+03  0.41800000000E+01 0.  1.
        -11    1    4    4    0    0  0.52225178397E+02 -0.69097426695E+02  0.26494619420E+03  0.27874434426E+03  0.00000000000E+00 0. -1.
         11    1    4    4    0    0 -0.23315068406E+02  0.33985709564E+01  0.45273338849E+02  0.51037416763E+02  0.00000000000E+00 0.  1.
</event>
<event>
 8    1  0.6834011E-009  0.1073997E+03  0.7561462E-02  0.1265462E+00
         -1   -1    0    0    0  501 -0.00000000000E+00  0.00000000000E+00  0.19310139402E+02  0.19310139402E+02  0.00000000000E+00 0.  1.
          1   -1    0    0  501    0  0.00000000000E+00 -0.00000000000E+00 -0.92011519348E+03  0.92011519348E+03  0.00000000000E+00 0. -1.
         25    2    1    2    0    0 -0.33279241085E+02  0.49229769275E+02 -0.67666469006E+03  0.69068832013E+03  0.12507667541E+03 0.  0.
         23    2    1    2    0    0  0.33279241085E+02 -0.49229769275E+02 -0.22414036402E+03  0.24873701275E+03  0.90000670312E+02 0.  0.
          5    1    3    3  502    0 -0.18962033455E+02  0.75249665962E+02 -0.22526989389E+03  0.23829827619E+03  0.41800000000E+01 0. -1.
         -5    1    3    3    0  502 -0.14317207630E+02 -0.26019896687E+02 -0.45139479616E+03  0.45239004394E+03  0.41800000000E+01 0. -1.
        -11    1    4    4    0    0 -0.30884650382E+02 -0.17771545848E+02 -0.88953216549E+02  0.95824653433E+02  0.00000000000E+00 0.  1.
         11    1    4    4    0    0  0.64163891467E+02 -0.31458223427E+02 -0.13518714747E+03  0.15291235931E+03  0.00000000000E+00 0. -1.
</event>
<event>
 8    1  0.6834011E-009  0.6720631E+02  0.7561462E-02  0.1369859E+00
         -1   -1    0    0    0  501 -0.00000000000E+00  0.00000000000E+00  0.49935845276E+03  0.49935845276E+03  0.00000000000E+00 0.  1.
          1   -1    0    0  501    0  0.00000000000E+00 -0.00000000000E+00 -0.47747553568E+02  0.47747553568E+02  0.00000000000E+00 0. -1.
         25    2    1    2    0    0 -0.11861874221E+02  0.65348582169E+02  0.40362529256E+03  0.42775201330E+03  0.12508903565E+03 0.  0.
         23    2    1    2    0    0  0.11861874221E+02 -0.65348582169E+02  0.47985606635E+02  0.11935399303E+03  0.86784883221E+02 0.  0.
          5    1    3    3  502    0 -0.56279931050E+01  0.47788887218E+02  0.37551287459E+02  0.61180255293E+02  0.41800000000E+01 0.  1.
         -5    1    3    3    0  502 -0.62338811158E+01  0.17559694951E+02  0.36607400510E+03  0.36657175801E+03  0.41800000000E+01 0.  1.
        -11    1    4    4    0    0  0.48107523842E-02 -0.24017926534E+02 -0.24985185969E+02  0.34657183037E+02  0.00000000000E+00 0. -1.
         11    1    4    4    0    0  0.11857063468E+02 -0.41330655635E+02  0.72970792604E+02  0.84696809990E+02  0.00000000000E+00 0.  1.
</event>
<event>
 8    1  0.6834011E-009  0.6538404E+02  0.7561462E-02  0.1376533E+00
         -2   -1    0    0    0  501 -0.00000000000E+00  0.00000000000E+00  0.12157317943E+03  0.12157317943E+03  0.00000000000E+00 0.  1.
          2   -1    0    0  501    0  0.00000000000E+00 -0.00000000000E+00 -0.14298291484E+03  0.14298291484E+03  0.00000000000E+00 0. -1.
         25    2    1    2    0    0 -0.63545464802E+01  0.18308911119E+02  0.63186821112E+02  0.14147893820E+03  0.12509244223E+03 0.  0.
         23    2    1    2    0    0  0.63545464802E+01 -0.18308911119E+02 -0.84596556519E+02  0.12307715608E+03  0.87268622574E+02 0.  0.
          5    1    3    3  502    0  0.36746893652E+01 -0.26771678213E+02 -0.28025953048E+02  0.39155491831E+02  0.41800000000E+01 0. -1.
         -5    1    3    3    0  502 -0.10029235845E+02  0.45080589332E+02  0.91212774160E+02  0.10232344637E+03  0.41800000000E+01 0. -1.
        -11    1    4    4    0    0 -0.22849766278E+02 -0.51751751529E+00 -0.85866954287E+02  0.88856701953E+02  0.00000000000E+00 0. -1.
         11    1    4    4    0    0  0.29204312758E+02 -0.17791393604E+02  0.12703977689E+01  0.34220454125E+02  0.00000000000E+00 0.  1.
</event>
<event>
 8    1  0.6834011E-009  0.1838755E+03  0.7561462E-02  0.1164104E+00
          1   -1    0    0  501    0  0.00000000000E+00  0.00000000000E+00  0.58276346747E+03  0.58276346747E+03  0.00000000000E+00 0. -1.
         -1   -1    0    0    0  501 -0.00000000000E+00 -0.00000000000E+00 -0.68400846933E+02  0.68400846933E+02  0.00000000000E+00 0.  1.
         25    2    1    2    0    0 -0.12659528685E+03 -0.11003441282E+03  0.24767949405E+03  0.32423006134E+03  0.12508422061E+03 0.  0.
         23    2    1    2    0    0  0.12659528685E+03  0.11003441282E+03  0.26668312649E+03  0.32693425307E+03  0.87362332933E+02 0.  0.
          5    1    3    3  502    0 -0.11919479214E+03 -0.11744886581E+03  0.14656026631E+03  0.22248374910E+03  0.41800000000E+01 0.  1.
         -5    1    3    3    0  502 -0.74004947089E+01  0.74144529896E+01  0.10111922774E+03  0.10174631224E+03  0.41800000000E+01 0.  1.
        -11    1    4    4    0    0  0.50969671950E+02  0.10072465617E+03  0.15606292333E+03  0.19261100658E+03  0.00000000000E+00 0.  1.
         11    1    4    4    0    0  0.75625614901E+02  0.93097566514E+01  0.11062020316E+03  0.13432324648E+03  0.00000000000E+00 0. -1.
</event>
<event>
 8    1  0.6834011E-009  0.1088739E+03  0.7561462E-02  0.1262670E+00
         -2   -1    0    0    0  501 -0.00000000000E+00  0.00000000000E+00  0.27077011729E+02  0.27077011729E+02  0.00000000000E+00 0.  1.
          2   -1    0    0  501    0  0.00000000000E+00 -0.00000000000E+00 -0.79239970646E+03  0.79239970646E+03  0.00000000000E+00 0. -1.
         25    2    1    2    0    0 -0.38992593525E+02 -0.33858156302E+02 -0.64896908255E+03  0.66292925447E+03  0.12509008448E+03 0.  0.
         23    2    1    2    0    0  0.38992593525E+02  0.33858156302E+02 -0.11635361218E+03  0.15654746371E+03  0.91116124972E+02 0.  0.
          5    1    3    3  502    0 -0.35490872676E+02  0.31796827853E+02 -0.11002451616E+03  0.11997294221E+03  0.41800000000E+01 0.  1.
         -5    1    3    3    0  502 -0.35017208489E+01 -0.65654984155E+02 -0.53894456638E+03  0.54295631227E+03  0.41800000000E+01 0.  1.
        -11    1    4    4    0    0  0.50817968583E+02 -0.15617273561E+02 -0.50409472314E+02  0.73263088000E+02  0.00000000000E+00 0. -1.
         11    1    4    4    0    0 -0.11825375057E+02  0.49475429863E+02 -0.65944139867E+02  0.83284375714E+02  0.00000000000E+00 0.  1.
</event>
<event>
 8    1  0.6834011E-009  0.1935107E+03  0.7561462E-02  0.1155332E+00
          2   -1    0    0  501    0  0.00000000000E+00  0.00000000000E+00  0.73025980626E+03  0.73025980626E+03  0.00000000000E+00 0. -1.
         -2   -1    0    0    0  501 -0.00000000000E+00 -0.00000000000E+00 -0.58143010457E+02  0.58143010457E+02  0.00000000000E+00 0.  1.
         25    2    1    2    0    0  0.84955873021E+02 -0.15150840750E+03  0.31182830932E+03  0.37822825869E+03  0.12508966094E+03 0.  0.
         23    2    1    2    0    0 -0.84955873021E+02  0.15150840750E+03  0.36028848648E+03  0.41017455802E+03  0.90901466724E+02 0.  0.
          5    1    3    3  502    0  0.98421374044E+02 -0.64616244577E+02  0.12538923813E+03  0.17205219955E+03  0.41800000000E+01 0. -1.
         -5    1    3    3    0  502 -0.13465501023E+02 -0.86892162927E+02  0.18643907119E+03  0.20617605914E+03  0.41800000000E+01 0. -1.
        -11    1    4    4    0    0 -0.91425384347E+01  0.67119265626E+02  0.65148836372E+02  0.93983789601E+02  0.00000000000E+00 0.  1.
         11    1    4    4    0    0 -0.75813334587E+02  0.84389141878E+02  0.29513965011E+03  0.31619076842E+03  0.00000000000E+00 0. -1.
</event>
<event>
 8    1  0.6834011E-009  0.8581189E+02  0.7561462E-02  0.1313323E+00
         -1   -1    0    0    0  501 -0.00000000000E+00  0.00000000000E+00  0.13901743857E+03  0.13901743857E+03  0.00000000000E+00 0.  1.
          1   -1    0    0  501    0  0.00000000000E+00 -0.00000000000E+00 -0.11744309692E+03  0.11744309692E+03  0.00000000000E+00 0. -1.
         25    2    1    2    0    0  0.57450365840E+01 -0.67495202395E+02  0.82821274231E+01  0.14249612085E+03  0.12509173846E+03 0.  0.
         23    2    1    2    0    0 -0.57450365840E+01  0.67495202395E+02  0.13292214229E+02  0.11396441465E+03  0.90678536907E+02 0.  0.
          5    1    3    3  502    0  0.22394083647E+02 -0.35863957891E+01 -0.49523552828E+02  0.54629771205E+02  0.41800000000E+01 0.  1.
         -5    1    3    3    0  502 -0.16649047063E+02 -0.63908806606E+02  0.57805680251E+02  0.87866349641E+02  0.41800000000E+01 0.  1.
        -11    1    4    4    0    0  0.19542304398E+02  0.42764212593E+02  0.46008342116E+02  0.65783334395E+02  0.00000000000E+00 0.  1.
         11    1    4    4    0    0 -0.25287340982E+02  0.24730989802E+02 -0.32716127887E+02  0.48181080254E+02  0.00000000000E+00 0. -1.
</event>
<event>
 8    1  0.6834011E-009  0.1078426E+03  0.7561462E-02  0.1264618E+00
         -1   -1    0    0    0  501 -0.00000000000E+00  0.00000000000E+00  0.29438061028E+02  0.29438061028E+02  0.00000000000E+00 0.  1.
          1   -1    0    0  501    0  0.00000000000E+00 -0.00000000000E+00 -0.54110550157E+03  0.54110550157E+03  0.00000000000E+00 0. -1.
         25    2    1    2    0    0 -0.15002388975E+02 -0.32151731549E+02 -0.40982534546E+03  0.42995326885E+03  0.12507675281E+03 0.  0.
         23    2    1    2    0    0  0.15002388975E+02  0.32151731549E+02 -0.10184209507E+03  0.14059029374E+03  0.90194306081E+02 0.  0.
          5    1    3    3  502    0  0.28100555655E+01  0.43051584435E+02 -0.78134402063E+02  0.89352070600E+02  0.41800000000E+01 0.  1.
         -5    1    3    3    0  502 -0.17812444540E+02 -0.75203315984E+02 -0.33169094340E+03  0.34060119825E+03  0.41800000000E+01 0.  1.
        -11    1    4    4    0    0 -0.18414646602E+02  0.52624480735E+02 -0.45521997452E+02  0.71976992394E+02  0.00000000000E+00 0.  1.
         11    1    4    4    0    0  0.33417035577E+02 -0.20472749186E+02 -0.56320097622E+02  0.68613301350E+02  0.00000000000E+00 0. -1.
</event>
<event>
 8    1  0.6834011E-009  0.1473460E+03  0.7561462E-02  0.1203773E+00
          1   -1    0    0  501    0  0.00000000000E+00  0.00000000000E+00  0.15903956988E+03  0.15903956988E+03  0.00000000000E+00 0. -1.
         -1   -1    0    0    0  501 -0.00000000000E+00 -0.00000000000E+00 -0.16116035808E+03  0.16116035808E+03  0.00000000000E+00 0.  1.
         25    2    1    2    0    0 -0.10672107358E+03 -0.30499186198E+02 -0.39630405617E+02  0.17186622101E+03  0.12509133052E+03 0.  0.
         23    2    1    2    0    0  0.10672107358E+03  0.30499186198E+02  0.37509617415E+02  0.14833370695E+03  0.90974333270E+02 0.  0.
          5    1    3    3  502    0 -0.13465090464E+03 -0.33512206960E+02 -0.32124692805E+02  0.14249000815E+03  0.41800000000E+01 0.  1.
         -5    1    3    3    0  502  0.27929831061E+02  0.30130207616E+01 -0.75057128116E+01  0.29376212860E+02  0.41800000000E+01 0.  1.
        -11    1    4    4    0    0  0.14506874846E+02 -0.18129116269E+02 -0.18774653921E+02  0.29859703688E+02  0.00000000000E+00 0. -1.
         11    1    4    4    0    0  0.92214198730E+02  0.48628302467E+02  0.56284271336E+02  0.11847400326E+03  0.00000000000E+00 0.  1.
</event>
<event>
 8    1  0.6834011E-009  0.1124951E+03  0.7561462E-02  0.1256018E+00
         -1   -1    0    0    0  501 -0.00000000000E+00  0.00000000000E+00  0.13021708067E+02  0.13021708067E+02  0.00000000000E+00 0.  1.
          1   -1    0    0  501    0  0.00000000000E+00 -0.00000000000E+00 -0.10103786244E+04  0.10103786244E+04  0.00000000000E+00 0. -1.
         25    2    1    2    0    0  0.38079638599E+02  0.12606570279E+02 -0.55529727675E+03  0.57062393050E+03  0.12509044727E+03 0.  0.
         23    2    1    2    0    0 -0.38079638599E+02 -0.12606570279E+02 -0.44205963961E+03  0.45277640200E+03  0.89335103655E+02 0.  0.
          5    1    3    3  502    0 -0.38092048349E+02 -0.23132303859E+02 -0.14434991453E+03  0.15113066483E+03  0.41800000000E+01 0. -1.
         -5    1    3    3    0  502  0.76171686948E+02  0.35738874139E+02 -0.41094736223E+03  0.41949326566E+03  0.41800000000E+01 0. -1.
        -11    1    4    4    0    0  0.38812477459E-01 -0.45582920445E+02 -0.25516671592E+03  0.25920620566E+03  0.00000000000E+00 0. -1.
         11    1    4    4    0    0 -0.38118451077E+02  0.32976350166E+02 -0.18689292369E+03  0.19357019633E+03  0.00000000000E+00 0.  1.
</event>
<event>
 8    1  0.6834011E-009  0.1072640E+03  0.7561462E-02  0.1265722E+00
          1   -1    0    0  501    0  0.00000000000E+00  0.00000000000E+00  0.16734228498E+03  0.16734228498E+03  0.00000000000E+00 0. -1.
         -1   -1    0    0    0  501 -0.00000000000E+00 -0.00000000000E+00 -0.84590053980E+02  0.84590053980E+02  0.00000000000E+00 0.  1.
         25    2    1    2    0    0  0.79124163448E+01 -0.20565565348E+02  0.14691225706E+00  0.12701645146E+03  0.12509040151E+03 0.  0.
         23    2    1    2    0    0 -0.79124163448E+01  0.20565565348E+02  0.82605318742E+02  0.12491588749E+03  0.91075745692E+02 0.  0.
          5    1    3    3  502    0 -0.22116626894E+02 -0.64063859796E+02 -0.19216311891E+02  0.70569556891E+02  0.41800000000E+01 0. -1.
         -5    1    3    3    0  502  0.30029043239E+02  0.43498294447E+02  0.19363224148E+02  0.56446894574E+02  0.41800000000E+01 0. -1.
        -11    1    4    4    0    0 -0.17731861038E+02 -0.33901181264E+02  0.30940012349E+02  0.49203590835E+02  0.00000000000E+00 0.  1.
         11    1    4    4    0    0  0.98194446931E+01  0.54466746612E+02  0.51665306394E+02  0.75712296659E+02  0.00000000000E+00 0. -1.
</event>
<event>
 8    1  0.6834011E-009  0.1836956E+03  0.7561462E-02  0.1164274E+00
         -2   -1    0    0    0  501 -0.00000000000E+00  0.00000000000E+00  0.75064799819E+02  0.75064799819E+02  0.00000000000E+00 0.  1.
          2   -1    0    0  501    0  0.00000000000E+00 -0.00000000000E+00 -0.53266399279E+03  0.53266399279E+03  0.00000000000E+00 0. -1.
         25    2    1    2    0    0  0.70444763422E+02  0.15220842663E+03 -0.25569594648E+03  0.33039046959E+03  0.12509026949E+03 0.  0.
         23    2    1    2    0    0 -0.70444763422E+02 -0.15220842663E+03 -0.20190324650E+03  0.27733832302E+03  0.89564248659E+02 0.  0.
          5    1    3    3  502    0  0.52698415538E+02  0.15029905906E+03 -0.13652474156E+03  0.20981755792E+03  0.41800000000E+01 0. -1.
         -5    1    3    3    0  502  0.17746347884E+02  0.19093675777E+01 -0.11917120492E+03  0.12057291168E+03  0.41800000000E+01 0. -1.
        -11    1    4    4    0    0 -0.84706721480E+02 -0.15359629093E+03 -0.19107696052E+03  0.25937897773E+03  0.00000000000E+00 0.  1.
         11    1    4    4    0    0  0.14261958058E+02  0.13878642936E+01 -0.10826285982E+02  0.17959345286E+02  0.00000000000E+00 0. -1.
</event>
<event>
 8    1  0.6834011E-009  0.1204264E+03  0.7561462E-02  0.1242395E+00
         -2   -1    0    0    0  501 -0.00000000000E+00  0.00000000000E+00  0.48510980737E+02  0.48510980737E+02  0.00000000000E+00 0.  1.
          2   -1    0    0  501    0  0.00000000000E+00 -0.00000000000E+00 -0.58804426823E+03  0.58804426823E+03  0.00000000000E+00 0. -1.
         25    2    1    2    0    0 -0.60288274005E+02 -0.63170470062E+02 -0.10844125575E+03  0.18716298747E+03  0.12508114830E+03 0.  0.
         23    2    1    2    0    0  0.60288274005E+02  0.63170470062E+02 -0.43109203174E+03  0.44939226149E+03  0.92129694416E+02 0.  0.
          5    1    3    3  502    0 -0.57210885875E+02 -0.63455294943E+01 -0.11603800775E+03  0.12959800480E+03  0.41800000000E+01 0.  1.
         -5    1    3    3    0  502 -0.30773881292E+01 -0.56824940568E+02  0.75967519966E+01  0.57564982664E+02  0.41800000000E+01 0.  1.
        -11    1    4    4    0    0 -0.14803027665E+02  0.46985447117E+02 -0.14359654989E+03  0.15181149827E+03  0.00000000000E+00 0.  1.
         11    1    4    4    0    0  0.75091301670E+02  0.16185022945E+02 -0.28749548185E+03  0.29758076322E+03  0.00000000000E+00 0. -1.
</event>
<event>
 8    1  0.6834011E-009  0.1211175E+03  0.7561462E-02  0.1241265E+00
         -2   -1    0    0    0  501 -0.00000000000E+00  0.00000000000E+00  0.23017619945E+02  0.23017619945E+02  0.00000000000E+00 0.  1.
          2   -1    0    0  501    0  0.00000000000E+00 -0.00000000000E+00 -0.10452315958E+04  0.10452315958E+04  0.00000000000E+00 0. -1.
         25    2    1    2    0    0  0.66624561066E+02  0.68219472317E+02 -0.74049400779E+03  0.75701557137E+03  0.12509384945E+03 0.  0.
         23    2    1    2    0    0 -0.66624561066E+02 -0.68219472317E+02 -0.28171996808E+03  0.31123364440E+03  0.91692488515E+02 0.  0.
          5    1    3    3  502    0  0.76850680460E+02  0.51825461976E+02 -0.72742150401E+03  0.73331536360E+03  0.41800000000E+01 0.  1.
         -5    1    3    3    0  502 -0.10226119395E+02  0.16394010342E+02 -0.13072503786E+02  0.23700207767E+02  0.41800000000E+01 0.  1.
        -11    1    4    4    0    0 -0.15149173471E+02 -0.76109805683E+02 -0.19767993013E+03  0.21236655752E+03  0.00000000000E+00 0. -1.
         11    1    4    4    0    0 -0.51475387595E+02  0.78903333652E+01 -0.84040037952E+02  0.98867086877E+02  0.00000000000E+00 0.  1.
</event>
<event>
 8    1  0.6834011E-009  0.1633978E+03  0.7561462E-02  0.1184913E+00
          1   -1    0    0  501    0  0.00000000000E+00  0.00000000000E+00  0.12173093220E+04  0.12173093220E+04  0.00000000000E+00 0. -1.
         -1   -1    0    0    0  501 -0.00000000000E+00 -0.00000000000E+00 -0.28150456769E+02  0.28150456769E+02  0.00000000000E+00 0.  1.
         25    2    1    2    0    0  0.10726166389E+03 -0.98313357764E+02  0.74837943684E+03  0.77258713659E+03  0.12509404973E+03 0.  0.
         23    2    1    2    0    0 -0.10726166389E+03  0.98313357764E+02  0.44077942839E+03  0.47287264218E+03  0.90285382961E+02 0.  0.
          5    1    3    3  502    0  0.63672442156E+02 -0.11790331941E+02  0.11687273126E+03  0.13367834353E+03  0.41800000000E+01 0.  1.
         -5    1    3    3    0  502  0.43589221736E+02 -0.86523025823E+02  0.63150670558E+03  0.63890879306E+03  0.41800000000E+01 0.  1.
        -11    1    4    4    0    0 -0.55164554116E+02  0.98431710033E+02  0.35511387934E+03  0.37260944281E+03  0.00000000000E+00 0. -1.
         11    1    4    4    0    0 -0.52097109776E+02 -0.11835226925E+00  0.85665549047E+02  0.10026319937E+03  0.00000000000E+00 0.  1.
</event>
<event>
 8    1  0.6834011E-009  0.9128831E+02  0.7561462E-02  0.1299762E+00
          2   -1    0    0  501    0  0.00000000000E+00  0.00000000000E+00  0.73079295876E+02  0.73079295876E+02  0.00000000000E+00 0. -1.
         -2   -1    0    0    0  501 -0.00000000000E+00 -0.00000000000E+00 -0.29039549642E+03  0.29039549642E+03  0.00000000000E+00 0.  1.
         25    2    1    2    0    0 -0.15957874159E+02 -0.16184168740E+02 -0.70026077854E-01  0.12714198338E+03  0.12509395656E+03 0.  0.
         23    2    1    2    0    0  0.15957874159E+02  0.16184168740E+02 -0.21724617446E+03  0.23633280892E+03  0.90225911939E+02 0.  0.
          5    1    3    3  502    0 -0.32480820362E+02  0.29551528506E+02  0.43327378138E+02  0.61830660879E+02  0.41800000000E+01 0. -1.
         -5    1    3    3    0  502  0.16522946204E+02 -0.45735697246E+02 -0.43397404216E+02  0.65311322499E+02  0.41800000000E+01 0. -1.
        -11    1    4    4    0    0  0.14598143669E+02 -0.35277167480E+02 -0.12492815865E+03  0.13063165454E+03  0.00000000000E+00 0. -1.
         11    1    4    4    0    0  0.13597304897E+01  0.51461336220E+02 -0.92318015811E+02  0.10570115437E+03  0.00000000000E+00 0.  1.
</event>
<event>
 8    1  0.6834011E-009  0.1216876E+03  0.7561462E-02  0.1240339E+00
         -1   -1    0    0    0  501 -0.00000000000E+00  0.00000000000E+00  0.10718260885E+03  0.10718260885E+03  0.00000000000E+00 0. -1.
          1   -1    0    0  501    0  0.00000000000E+00 -0.00000000000E+00 -0.17350734313E+03  0.17350734313E+03  0.00000000000E+00 0.  1.
         25    2    1    2    0    0 -0.82755196518E+02  0.18283326244E+01 -0.37285557536E+02  0.15456577993E+03  0.12509437306E+03 0.  0.
         23    2    1    2    0    0  0.82755196518E+02 -0.18283326244E+01 -0.29039176739E+02  0.12612417205E+03  0.90621562768E+02 0.  0.
          5    1    3    3  502    0  0.30020701184E+02  0.11560721563E+02 -0.24340133575E+02  0.40556223753E+02  0.41800000000E+01 0. -1.
         -5    1    3    3    0  502 -0.11277589770E+03 -0.97323889381E+01 -0.12945423962E+02  0.11400955617E+03  0.41800000000E+01 0. -1.
        -11    1    4    4    0    0  0.34126405973E+02 -0.26430788169E+02  0.24578771682E+02  0.49672066247E+02  0.00000000000E+00 0. -1.
         11    1    4    4    0    0  0.48628790545E+02  0.24602455545E+02 -0.53617948421E+02  0.76452105802E+02  0.00000000000E+00 0.  1.
</event>
<event>
 8    1  0.6834011E-009  0.1056767E+03  0.7561462E-02  0.1268792E+00
         -2   -1    0    0    0  501 -0.00000000000E+00  0.00000000000E+00  0.19588408168E+03  0.19588408168E+03  0.00000000000E+00 0.  1.
          2   -1    0    0  501    0  0.00000000000E+00 -0.00000000000E+00 -0.75696219286E+02  0.75696219286E+02  0.00000000000E+00 0. -1.
         25    2    1    2    0    0 -0.37236331229E+02 -0.24361388722E+02  0.31183975171E+02  0.13638142732E+03  0.12508969496E+03 0.  0.
         23    2    1    2    0    0  0.37236331229E+02  0.24361388722E+02  0.89003887220E+02  0.13519887365E+03  0.91526072082E+02 0.  0.
          5    1    3    3  502    0 -0.76476038949E+02 -0.15256161156E+02  0.48938820061E+02  0.92161898285E+02  0.41800000000E+01 0.  1.
         -5    1    3    3    0  502  0.39239707720E+02 -0.91052275656E+01 -0.17754844890E+02  0.44219529034E+02  0.41800000000E+01 0.  1.
        -11    1    4    4    0    0  0.54314740091E+02  0.41659554147E+02  0.87151989186E+02  0.11082002825E+03  0.00000000000E+00 0.  1.
         11    1    4    4    0    0 -0.17078408862E+02 -0.17298165425E+02  0.18518980337E+01  0.24378845392E+02  0.00000000000E+00 0. -1.
</event>
<event>
 8    1  0.6834011E-009  0.9112694E+02  0.7561462E-02  0.1300145E+00
         -2   -1    0    0    0  501 -0.00000000000E+00  0.00000000000E+00  0.56381819747E+03  0.56381819747E+03  0.00000000000E+00 0.  1.
          2   -1    0    0  501    0  0.00000000000E+00 -0.00000000000E+00 -0.32072813636E+02  0.32072813636E+02  0.00000000000E+00 0. -1.
         25    2    1    2    0    0 -0.48680132201E+02  0.42106764408E+02  0.39649433294E+03  0.42071004308E+03  0.12508576824E+03 0.  0.
         23    2    1    2    0    0  0.48680132201E+02 -0.42106764408E+02  0.13525105089E+03  0.17518096802E+03  0.90844867274E+02 0.  0.
          5    1    3    3  502    0  0.13590916716E+02  0.29403895854E+02  0.31778697489E+03  0.31946100845E+03  0.41800000000E+01 0. -1.
         -5    1    3    3    0  502 -0.62271048917E+02  0.12702868554E+02  0.78707358046E+02  0.10124903463E+03  0.41800000000E+01 0. -1.
        -11    1    4    4    0    0  0.99110794229E+01  0.14334859457E+02  0.93222185168E+02  0.94837194699E+02  0.00000000000E+00 0.  1.
         11    1    4    4    0    0  0.38769052778E+02 -0.56441623865E+02  0.42028865724E+02  0.80343773324E+02  0.00000000000E+00 0. -1.
</event>
<event>
 8    1  0.6834011E-009  0.1186288E+03  0.7561462E-02  0.1245376E+00
         -1   -1    0    0    0  501 -0.00000000000E+00  0.00000000000E+00  0.58945534583E+02  0.58945534583E+02  0.00000000000E+00 0.  1.
          1   -1    0    0  501    0  0.00000000000E+00 -0.00000000000E+00 -0.25149626993E+03  0.25149626993E+03  0.00000000000E+00 0. -1.
         25    2    1    2    0    0 -0.14604723693E+02 -0.51025281763E+02 -0.91539728005E+02  0.16384039283E+03  0.12508906902E+03 0.  0.
         23    2    1    2    0    0  0.14604723693E+02  0.51025281763E+02 -0.10101100734E+03  0.14660141168E+03  0.92042777930E+02 0.  0.
          5    1    3    3  502    0 -0.58849033542E+02 -0.62735076489E+02 -0.40524563245E+02  0.95176736638E+02  0.41800000000E+01 0.  1.
         -5    1    3    3    0  502  0.44244309849E+02  0.11709794726E+02 -0.51015164760E+02  0.68663656194E+02  0.41800000000E+01 0.  1.
        -11    1    4    4    0    0  0.37609168781E+02 -0.10870378367E+02 -0.27827260860E+02  0.48030939499E+02  0.00000000000E+00 0. -1.
         11    1    4    4    0    0 -0.23004445087E+02  0.61895660130E+02 -0.73183746483E+02  0.98570472181E+02  0.00000000000E+00 0.  1.
</event>
<event>
 8    1  0.6834011E-009  0.1706654E+03  0.7561462E-02  0.1177156E+00
          2   -1    0    0  501    0  0.00000000000E+00  0.00000000000E+00  0.10286879865E+04  0.10286879865E+04  0.00000000000E+00 0. -1.
         -2   -1    0    0    0  501 -0.00000000000E+00 -0.00000000000E+00 -0.37263629945E+02  0.37263629945E+02  0.00000000000E+00 0.  1.
         25    2    1    2    0    0 -0.10004556645E+03  0.12644113611E+03  0.57344023859E+03  0.60866904947E+03  0.12509127978E+03 0.  0.
         23    2    1    2    0    0  0.10004556645E+03 -0.12644113611E+03  0.41798411794E+03  0.45728256695E+03  0.91652315411E+02 0.  0.
          5    1    3    3  502    0 -0.10085594482E+03  0.97721345366E+02  0.55872639672E+03  0.57611981543E+03  0.41800000000E+01 0.  1.
         -5    1    3    3    0  502  0.81037836878E+00  0.28719790745E+02  0.14713841872E+02  0.32549234034E+02  0.41800000000E+01 0.  1.
        -11    1    4    4    0    0  0.10447224324E+03 -0.98741754630E+02  0.26245469826E+03  0.29924380086E+03  0.00000000000E+00 0.  1.
         11    1    4    4    0    0 -0.44266767834E+01 -0.27699381480E+02  0.15552941968E+03  0.15803876609E+03  0.00000000000E+00 0. -1.
</event>
<event>
 8    1  0.6834011E-009  0.1208875E+03  0.7561462E-02  0.1241640E+00
         -2   -1    0    0    0  501 -0.00000000000E+00  0.00000000000E+00  0.58615739678E+02  0.58615739678E+02  0.00000000000E+00 0.  1.
          2   -1    0    0  501    0  0.00000000000E+00 -0.00000000000E+00 -0.40597502920E+03  0.40597502920E+03  0.00000000000E+00 0. -1.
         25    2    1    2    0    0  0.58803404306E+02  0.54102997065E+02 -0.29762173605E+03  0.33258546210E+03  0.12509763059E+03 0.  0.
         23    2    1    2    0    0 -0.58803404306E+02 -0.54102997065E+02 -0.49737553468E+02  0.13200530678E+03  0.92555940618E+02 0.  0.
          5    1    3    3  502    0 -0.23326992484E+02  0.12458515534E+01 -0.52526000746E+01  0.24305615236E+02  0.41800000000E+01 0.  1.
         -5    1    3    3    0  502  0.82130396790E+02  0.52857145512E+02 -0.29236913598E+03  0.30827984686E+03  0.41800000000E+01 0.  1.
        -11    1    4    4    0    0 -0.54674692226E+02  0.10395775919E+02 -0.11240831523E+02  0.56778080456E+02  0.00000000000E+00 0.  1.
         11    1    4    4    0    0 -0.41287120798E+01 -0.64498772984E+02 -0.38496721945E+02  0.75227226324E+02  0.00000000000E+00 0. -1.
</event>
<event>
 8    1  0.6834011E-009  0.1059448E+03  0.7561462E-02  0.1268269E+00
          2   -1    0    0  501    0  0.00000000000E+00  0.00000000000E+00  0.31811168796E+02  0.31811168796E+02  0.00000000000E+00 0. -1.
         -2   -1    0    0    0  501 -0.00000000000E+00 -0.00000000000E+00 -0.47918449285E+03  0.47918449285E+03  0.00000000000E+00 0.  1.
         25    2    1    2    0    0  0.23101329673E+01  0.19365248741E+02 -0.36429995279E+03  0.38567186561E+03  0.12509189721E+03 0.  0.
         23    2    1    2    0    0 -0.23101329673E+01 -0.19365248741E+02 -0.83073371257E+02  0.12532379603E+03  0.91785179990E+02 0.  0.
          5    1    3    3  502    0  0.10516171641E+02 -0.48439216613E+02 -0.22550154807E+03  0.23092286192E+03  0.41800000000E+01 0. -1.
         -5    1    3    3    0  502 -0.82060386737E+01  0.67804465354E+02 -0.13879840472E+03  0.15474900370E+03  0.41800000000E+01 0. -1.
        -11    1    4    4    0    0 -0.46516115668E+02 -0.16734618051E+02 -0.40713019921E+02  0.64041755514E+02  0.00000000000E+00 0.  1.
         11    1    4    4    0    0  0.44205982701E+02 -0.26306306900E+01 -0.42360351336E+02  0.61282040515E+02  0.00000000000E+00 0. -1.
</event>
<event>
 8    1  0.6834011E-009  0.6683134E+02  0.7561462E-02  0.1371212E+00
          2   -1    0    0  501    0  0.00000000000E+00  0.00000000000E+00  0.49248780926E+02  0.49248780926E+02  0.00000000000E+00 0.  1.
         -2   -1    0    0    0  501 -0.00000000000E+00 -0.00000000000E+00 -0.23786322949E+03  0.23786322949E+03  0.00000000000E+00 0. -1.
         25    2    1    2    0    0  0.87042202031E+01 -0.69181895502E+01 -0.10862569434E+03  0.16604278227E+03  0.12508812605E+03 0.  0.
         23    2    1    2    0    0 -0.87042202031E+01  0.69181895502E+01 -0.79988754225E+02  0.12106922815E+03  0.90199403575E+02 0.  0.
          5    1    3    3  502    0 -0.49553381667E+01  0.37702329007E+02  0.91119027928E+01  0.39325820543E+02  0.41800000000E+01 0. -1.
         -5    1    3    3    0  502  0.13659558370E+02 -0.44620518557E+02 -0.11773759713E+03  0.12671696173E+03  0.41800000000E+01 0. -1.
        -11    1    4    4    0    0  0.48856494705E+01  0.25259903455E+02  0.10468325346E+02  0.27776215164E+02  0.00000000000E+00 0.  1.
         11    1    4    4    0    0 -0.13589869674E+02 -0.18341713905E+02 -0.90457079571E+02  0.93293012982E+02  0.00000000000E+00 0. -1.
</event>
<event>
 8    1  0.6834011E-009  0.8795722E+02  0.7561462E-02  0.1307875E+00
         -1   -1    0    0    0  501 -0.00000000000E+00  0.00000000000E+00  0.58213363011E+03  0.58213363011E+03  0.00000000000E+00 0.  1.
          1   -1    0    0  501    0  0.00000000000E+00 -0.00000000000E+00 -0.22608434013E+02  0.22608434013E+02  0.00000000000E+00 0. -1.
         25    2    1    2    0    0  0.10675566224E+02 -0.25621173771E+02  0.24355896202E+03  0.27520798870E+03  0.12509219322E+03 0.  0.
         23    2    1    2    0    0 -0.10675566224E+02  0.25621173771E+02  0.31596623408E+03  0.32953407543E+03  0.89373561679E+02 0.  0.
          5    1    3    3  502    0  0.25477486919E+02 -0.49974305655E+02  0.23962328760E+03  0.24613680327E+03  0.41800000000E+01 0.  1.
         -5    1    3    3    0  502 -0.14801920695E+02  0.24353131885E+02  0.39356744163E+01  0.29071185424E+02  0.41800000000E+01 0.  1.
        -11    1    4    4    0    0  0.38072258893E+02  0.71879916634E+01  0.17511929042E+03  0.17935420262E+03  0.00000000000E+00 0.  1.
         11    1    4    4    0    0 -0.48747825117E+02  0.18433182107E+02  0.14084694367E+03  0.15017987281E+03  0.00000000000E+00 0. -1.
</event>
<event>
 8    1  0.6834011E-009  0.1125849E+03  0.7561462E-02  0.1255857E+00
         -1   -1    0    0    0  501 -0.00000000000E+00  0.00000000000E+00  0.41277463198E+02  0.41277463198E+02  0.00000000000E+00 0.  1.
          1   -1    0    0  501    0  0.00000000000E+00 -0.00000000000E+00 -0.49758542779E+03  0.49758542779E+03  0.00000000000E+00 0. -1.
         25    2    1    2    0    0 -0.78193642739E+02 -0.39172307467E+02 -0.31207184672E+03  0.34739642564E+03  0.12508686422E+03 0.  0.
         23    2    1    2    0    0  0.78193642739E+02  0.39172307467E+02 -0.14423611787E+03  0.19146646534E+03  0.90590475291E+02 0.  0.
          5    1    3    3  502    0  0.22294649535E+02  0.11109116727E+02 -0.14127211617E+02  0.28939840712E+02  0.41800000000E+01 0. -1.
         -5    1    3    3    0  502 -0.10048829227E+03 -0.50281424195E+02 -0.29794463510E+03  0.31845658493E+03  0.41800000000E+01 0. -1.
        -11    1    4    4    0    0  0.17180911943E+02  0.92748417400E+01  0.10716462322E+02  0.22272157264E+02  0.00000000000E+00 0.  1.
         11    1    4    4    0    0  0.61012730795E+02  0.29897465727E+02 -0.15495258020E+03  0.16919430808E+03  0.00000000000E+00 0. -1.
</event>
<event>
 8    1  0.6834011E-009  0.6520326E+02  0.7561462E-02  0.1377209E+00
         -1   -1    0    0    0  501 -0.00000000000E+00  0.00000000000E+00  0.30482661607E+02  0.30482661607E+02  0.00000000000E+00 0.  1.
          1   -1    0    0  501    0  0.00000000000E+00 -0.00000000000E+00 -0.44651346808E+03  0.44651346808E+03  0.00000000000E+00 0. -1.
         25    2    1    2    0    0  0.12307645197E+02  0.12175167173E+02 -0.15345225867E+03  0.19873002364E+03  0.12508522607E+03 0.  0.
         23    2    1    2    0    0 -0.12307645197E+02 -0.12175167173E+02 -0.26257854781E+03  0.27826610605E+03  0.90469990498E+02 0.  0.
          5    1    3    3  502    0  0.13821361664E+02  0.26096114520E+02  0.12353248368E+02  0.32281765387E+02  0.41800000000E+01 0.  1.
         -5    1    3    3    0  502 -0.15137164676E+01 -0.13920947346E+02 -0.16580550703E+03  0.16644825825E+03  0.41800000000E+01 0.  1.
        -11    1    4    4    0    0  0.21382633400E+02  0.26907461942E+02 -0.15744642796E+03  0.16115398288E+03  0.00000000000E+00 0. -1.
         11    1    4    4    0    0 -0.33690278596E+02 -0.39082629115E+02 -0.10513211984E+03  0.11711212317E+03  0.00000000000E+00 0.  1.
</event>
<event>
 8    1  0.6834011E-009  0.1320973E+03  0.7561462E-02  0.1224376E+00
         -1   -1    0    0    0  501 -0.00000000000E+00  0.00000000000E+00  0.95908873428E+02  0.95908873428E+02  0.00000000000E+00 0.  1.
          1   -1    0    0  501    0  0.00000000000E+00 -0.00000000000E+00 -0.27288368919E+03  0.27288368919E+03  0.00000000000E+00 0. -1.
         25    2    1    2    0    0  0.60609676314E+02 -0.10236643165E+03 -0.86028008598E+02  0.19287545464E+03  0.12509078122E+03 0.  0.
         23    2    1    2    0    0 -0.60609676314E+02  0.10236643165E+03 -0.90946807168E+02  0.17591710798E+03  0.92320571682E+02 0.  0.
          5    1    3    3  502    0  0.61476691727E+02 -0.10512343111E+03 -0.16270395372E+02  0.12293297995E+03  0.41800000000E+01 0. -1.
         -5    1    3    3    0  502 -0.86701541283E+00  0.27569994638E+01 -0.69757613227E+02  0.69942474683E+02  0.41800000000E+01 0. -1.
        -11    1    4    4    0    0 -0.10896780914E+02  0.83312242078E+02 -0.89354981270E+02  0.12265391226E+03  0.00000000000E+00 0. -1.
         11    1    4    4    0    0 -0.49712895400E+02  0.19054189573E+02 -0.15918258977E+01  0.53263195727E+02  0.00000000000E+00 0.  1.
</event>
<event>
 8    1  0.6834011E-009  0.1788089E+03  0.7561462E-02  0.1168961E+00
         -1   -1    0    0    0  501 -0.00000000000E+00  0.00000000000E+00  0.30155307798E+02  0.30155307798E+02  0.00000000000E+00 0. -1.
          1   -1    0    0  501    0  0.00000000000E+00 -0.00000000000E+00 -0.14461630665E+04  0.14461630665E+04  0.00000000000E+00 0.  1.
         25    2    1    2    0    0  0.85761905697E+02  0.15422219600E+03 -0.64817389870E+03  0.68331300046E+03  0.12509062092E+03 0.  0.
         23    2    1    2    0    0 -0.85761905697E+02 -0.15422219600E+03 -0.76783385998E+03  0.79300537381E+03  0.90272344330E+02 0.  0.
          5    1    3    3  502    0  0.41415983185E+01  0.38043802377E+00 -0.23298018440E+03  0.23305479247E+03  0.41800000000E+01 0. -1.
         -5    1    3    3    0  502  0.81620307378E+02  0.15384175798E+03 -0.41519371430E+03  0.45025820799E+03  0.41800000000E+01 0. -1.
        -11    1    4    4    0    0 -0.41439289756E+02 -0.94137985781E+02 -0.60742235345E+03  0.61606906315E+03  0.00000000000E+00 0.  1.
         11    1    4    4    0    0 -0.44322615940E+02 -0.60084210222E+02 -0.16041150652E+03  0.17693631065E+03  0.00000000000E+00 0. -1.
</event>
<event>
 8    1  0.6834011E-009  0.7588900E+02  0.7561462E-02  0.1341140E+00
         -2   -1    0    0    0  501 -0.00000000000E+00  0.00000000000E+00  0.28460929048E+02  0.28460929048E+02  0.00000000000E+00 0. -1.
          2   -1    0    0  501    0  0.00000000000E+00 -0.00000000000E+00 -0.65326182846E+03  0.65326182846E+03  0.00000000000E+00 0.  1.
         25    2    1    2    0    0  0.16006578038E+01 -0.51426940258E+02 -0.50381596488E+03  0.52165487887E+03  0.12508394738E+03 0.  0.
         23    2    1    2    0    0 -0.16006578038E+01  0.51426940258E+02 -0.12098493453E+03  0.16006787864E+03  0.91307607012E+02 0.  0.
          5    1    3    3  502    0  0.15179313674E+02 -0.44805614664E+01 -0.94417128923E+00  0.16396672043E+02  0.41800000000E+01 0. -1.
         -5    1    3    3    0  502 -0.13578655871E+02 -0.46946378791E+02 -0.50287179359E+03  0.50525820683E+03  0.41800000000E+01 0. -1.
        -11    1    4    4    0    0 -0.35073367617E+02  0.19636989308E+02 -0.12380816702E+02  0.42059922578E+02  0.00000000000E+00 0. -1.
         11    1    4    4    0    0  0.33472709814E+02  0.31789950950E+02 -0.10860411783E+03  0.11800795606E+03  0.00000000000E+00 0.  1.
</event>
<event>
 8    1  0.6834011E-009  0.8580070E+02  0.7561462E-02  0.1313352E+00
          1   -1    0    0  501    0  0.00000000000E+00  0.00000000000E+00  0.52183227956E+03  0.52183227956E+03  0.00000000000E+00 0. -1.
         -1   -1    0    0    0  501 -0.00000000000E+00 -0.00000000000E+00 -0.33166567275E+02  0.33166567275E+02  0.00000000000E+00 0.  1.
         25    2    1    2    0    0  0.53815950262E+02 -0.42149449336E+02  0.18913495953E+03  0.23683460794E+03  0.12508343624E+03 0.  0.
         23    2    1    2    0    0 -0.53815950262E+02  0.42149449336E+02  0.29953075275E+03  0.31816423889E+03  0.82686628181E+02 0.  0.
          5    1    3    3  502    0  0.42795609487E+02  0.77991124724E+01  0.17934030346E+03  0.18458793891E+03  0.41800000000E+01 0. -1.
         -5    1    3    3    0  502  0.11020340775E+02 -0.49948561808E+02  0.97946560685E+01  0.52246669033E+02  0.41800000000E+01 0. -1.
        -11    1    4    4    0    0  0.32438460288E+01  0.11214407594E+02 -0.78654067589E-02  0.11674139652E+02  0.00000000000E+00 0.  1.
         11    1    4    4    0    0 -0.57059796291E+02  0.30935041742E+02  0.29953861816E+03  0.30649009924E+03  0.00000000000E+00 0. -1.
</event>
<event>
 8    1  0.6834011E-009  0.1392389E+03  0.7561462E-02  0.1214357E+00
         -2   -1    0    0    0  501 -0.00000000000E+00  0.00000000000E+00  0.57644024375E+02  0.57644024375E+02  0.00000000000E+00 0.  1.
          2   -1    0    0  501    0  0.00000000000E+00 -0.00000000000E+00 -0.42066531529E+03  0.42066531529E+03  0.00000000000E+00 0. -1.
         25    2    1    2    0    0 -0.17939837956E+02  0.11006737563E+03 -0.20452392864E+03  0.26441219147E+03  0.12508838736E+03 0.  0.
         23    2    1    2    0    0  0.17939837956E+02 -0.11006737563E+03 -0.15849736228E+03  0.21389714819E+03  0.90520225313E+02 0.  0.
          5    1    3    3  502    0 -0.26778561101E+02  0.11873108940E+03 -0.21537966857E+03  0.24742683152E+03  0.41800000000E+01 0.  1.
         -5    1    3    3    0  502  0.88387231446E+01 -0.86637137741E+01  0.10855739932E+02  0.16985359951E+02  0.41800000000E+01 0.  1.
        -11    1    4    4    0    0  0.52007979652E+02 -0.90396302678E+02 -0.11583521867E+03  0.15586570941E+03  0.00000000000E+00 0.  1.
         11    1    4    4    0    0 -0.34068141696E+02 -0.19671072950E+02 -0.42662143609E+02  0.58031438780E+02  0.00000000000E+00 0. -1.
</event>
<event>
 8    1  0.6834011E-009  0.2172046E+03  0.7561462E-02  0.1135984E+00
          2   -1    0    0  501    0  0.00000000000E+00  0.00000000000E+00  0.17965410518E+03  0.17965410518E+03  0.00000000000E+00 0. -1.
         -2   -1    0    0    0  501 -0.00000000000E+00 -0.00000000000E+00 -0.41798246062E+03  0.41798246062E+03  0.00000000000E+00 0.  1.
         25    2    1    2    0    0  0.10550485603E+03  0.18879982388E+03 -0.26158101171E+03  0.36173104770E+03  0.12509227410E+03 0.  0.
         23    2    1    2    0    0 -0.10550485603E+03 -0.18879982388E+03  0.23252656279E+02  0.23590551810E+03  0.91291178683E+02 0.  0.
          5    1    3    3  502    0  0.47852367777E+02  0.10844003481E+03 -0.51115952392E+02  0.12914876399E+03  0.41800000000E+01 0.  1.
         -5    1    3    3    0  502  0.57652488249E+02  0.80359789068E+02 -0.21046505932E+03  0.23258228371E+03  0.41800000000E+01 0.  1.
        -11    1    4    4    0    0 -0.56811953062E+02 -0.86041077416E+02  0.56318496485E+02  0.11748377786E+03  0.00000000000E+00 0. -1.
         11    1    4    4    0    0 -0.48692902964E+02 -0.10275874646E+03 -0.33065840206E+02  0.11842174024E+03  0.00000000000E+00 0.  1.
</event>
<event>
 8    1  0.6834011E-009  0.1060404E+03  0.7561462E-02  0.1268083E+00
          1   -1    0    0  501    0  0.00000000000E+00  0.00000000000E+00  0.16015310514E+03  0.16015310514E+03  0.00000000000E+00 0. -1.
         -1   -1    0    0    0  501 -0.00000000000E+00 -0.00000000000E+00 -0.82077815812E+02  0.82077815812E+02  0.00000000000E+00 0.  1.
         25    2    1    2    0    0  0.36611287102E+01 -0.30274873019E+02  0.34430607237E+02  0.13327824280E+03  0.12509057314E+03 0.  0.
         23    2    1    2    0    0 -0.36611287102E+01  0.30274873019E+02  0.43644682094E+02  0.10895267816E+03  0.95057119686E+02 0.  0.
          5    1    3    3  502    0  0.61755568993E+02 -0.30842731498E+02  0.28252622645E+02  0.74704132913E+02  0.41800000000E+01 0.  1.
         -5    1    3    3    0  502 -0.58094440283E+02  0.56785847892E+00  0.61779845919E+01  0.58574109884E+02  0.41800000000E+01 0.  1.
        -11    1    4    4    0    0 -0.40696978583E+01 -0.27048555595E+02  0.43786119361E+02  0.51627619053E+02  0.00000000000E+00 0. -1.
         11    1    4    4    0    0  0.40856914806E+00  0.57323428614E+02 -0.14143726722E+00  0.57325059105E+02  0.00000000000E+00 0.  1.
</event>
<event>
 8    1  0.6834011E-009  0.1032978E+03  0.7561462E-02  0.1273510E+00
         -1   -1    0    0    0  501 -0.00000000000E+00  0.00000000000E+00  0.52617963360E+03  0.52617963360E+03  0.00000000000E+00 0.  1.
          1   -1    0    0  501    0  0.00000000000E+00 -0.00000000000E+00 -0.26831881851E+02  0.26831881851E+02  0.00000000000E+00 0. -1.
         25    2    1    2    0    0  0.12320448882E+02 -0.40700774762E+02  0.34267591239E+03  0.36726490977E+03  0.12509351096E+03 0.  0.
         23    2    1    2    0    0 -0.12320448882E+02  0.40700774762E+02  0.15667183935E+03  0.18574660568E+03  0.90262892425E+02 0.  0.
          5    1    3    3  502    0 -0.42771563361E+02 -0.77601662174E+01  0.25393505045E+03  0.25766278168E+03  0.41800000000E+01 0. -1.
         -5    1    3    3    0  502  0.55092012243E+02 -0.32940608545E+02  0.88740861937E+02  0.10960212809E+03  0.41800000000E+01 0. -1.
        -11    1    4    4    0    0 -0.33035834323E+02  0.61143003005E+02  0.12268512041E+03  0.14100167352E+03  0.00000000000E+00 0.  1.
         11    1    4    4    0    0  0.20715385441E+02 -0.20442228243E+02  0.33986718949E+02  0.44744932165E+02  0.00000000000E+00 0. -1.
</event>
<event>
 8    1  0.6834011E-009  0.9861949E+02  0.7561462E-02  0.1283226E+00
         -2   -1    0    0    0  501 -0.00000000000E+00  0.00000000000E+00  0.13766525951E+03  0.13766525951E+03  0.00000000000E+00 0. -1.
          2   -1    0    0  501    0  0.00000000000E+00 -0.00000000000E+00 -0.11950826330E+03  0.11950826330E+03  0.00000000000E+00 0.  1.
         25    2    1    2    0    0  0.62216254761E+02  0.11848087166E+02  0.38063533723E+02  0.14529401736E+03  0.12510107655E+03 0.  0.
         23    2    1    2    0    0 -0.62216254761E+02 -0.11848087166E+02 -0.19906537504E+02  0.11187950545E+03  0.90052839929E+02 0.  0.
          5    1    3    3  502    0  0.18478998570E+02  0.38327143943E+02 -0.35526806365E+02  0.55588395565E+02  0.41800000000E+01 0.  1.
         -5    1    3    3    0  502  0.43737256191E+02 -0.26479056778E+02  0.73590340088E+02  0.89705621793E+02  0.41800000000E+01 0.  1.
        -11    1    4    4    0    0 -0.31734841095E+02  0.35031344065E+02 -0.28663613164E+02  0.55280176609E+02  0.00000000000E+00 0.  1.
         11    1    4    4    0    0 -0.30481413665E+02 -0.46879431230E+02  0.87570756600E+01  0.56599328844E+02  0.00000000000E+00 0. -1.
</event>
<event>
 8    1  0.6834011E-009  0.4332557E+02  0.7561462E-02  0.1485074E+00
          2   -1    0    0  501    0  0.00000000000E+00  0.00000000000E+00  0.35776032841E+03  0.35776032841E+03  0.00000000000E+00 0. -1.
         -2   -1    0    0    0  501 -0.00000000000E+00 -0.00000000000E+00 -0.37346543981E+02  0.37346543981E+02  0.00000000000E+00 0.  1.
         25    2    1    2    0    0 -0.15038983556E+02 -0.45495620937E+01  0.12276273138E+03  0.17596726703E+03  0.12508765450E+03 0.  0.
         23    2    1    2    0    0  0.15038983556E+02  0.45495620937E+01  0.19765105304E+03  0.21913960536E+03  0.93323942941E+02 0.  0.
          5    1    3    3  502    0  0.64973554435E+01 -0.46978570956E+01  0.14467654541E+03  0.14495882408E+03  0.41800000000E+01 0.  1.
         -5    1    3    3    0  502 -0.21536338999E+02  0.14829500187E+00 -0.21913814023E+02  0.31008442946E+02  0.41800000000E+01 0.  1.
        -11    1    4    4    0    0  0.35201460757E+02  0.46530203304E+01  0.19568594426E+03  0.19888132697E+03  0.00000000000E+00 0. -1.
         11    1    4    4    0    0 -0.20162477202E+02 -0.10345823669E+00  0.19651087804E+01  0.20258278383E+02  0.00000000000E+00 0.  1.
</event>
<event>
 8    1  0.6834011E-009  0.6712803E+02  0.7561462E-02  0.1370141E+00
         -1   -1    0    0    0  501 -0.00000000000E+00  0.00000000000E+00  0.76643518305E+02  0.76643518305E+02  0.00000000000E+00 0.  1.
          1   -1    0    0  501    0  0.00000000000E+00 -0.00000000000E+00 -0.15217359563E+03  0.15217359563E+03  0.00000000000E+00 0. -1.
         25    2    1    2    0    0  0.14047988330E+02 -0.23037801369E+02 -0.64506337952E+02  0.14330853109E+03  0.12509269035E+03 0.  0.
         23    2    1    2    0    0 -0.14047988330E+02  0.23037801369E+02 -0.11023739372E+02  0.85508582843E+02  0.80387241786E+02 0.  0.
          5    1    3    3  502    0  0.35796370239E+02 -0.33270273145E+02  0.21760141152E+02  0.53658804872E+02  0.41800000000E+01 0.  1.
         -5    1    3    3    0  502 -0.21748381909E+02  0.10232471776E+02 -0.86266479104E+02  0.89649726220E+02  0.41800000000E+01 0.  1.
        -11    1    4    4    0    0  0.77612278901E+01  0.35059529731E+02 -0.35568813696E+02  0.50542534474E+02  0.00000000000E+00 0. -1.
         11    1    4    4    0    0 -0.21809216220E+02 -0.12021728362E+02  0.24545074324E+02  0.34966048369E+02  0.00000000000E+00 0.  1.
</event>
<event>
 8    1  0.6834011E-009  0.8772963E+02  0.7561462E-02  0.1308445E+00
         -2   -1    0    0    0  501 -0.00000000000E+00  0.00000000000E+00  0.13514395485E+03  0.13514395485E+03  0.00000000000E+00 0.  1.
          2   -1    0    0  501    0  0.00000000000E+00 -0.00000000000E+00 -0.12913164708E+03  0.12913164708E+03  0.00000000000E+00 0. -1.
         25    2    1    2    0    0 -0.12222081818E+00 -0.17364343958E+02 -0.70402902420E+02  0.14458943411E+03  0.12509196780E+03 0.  0.
         23    2    1    2    0    0  0.12222081818E+00  0.17364343958E+02  0.76415210183E+02  0.11968616782E+03  0.90465236646E+02 0.  0.
          5    1    3    3  502    0  0.46659976600E+02  0.10580107127E-01  0.11821079560E+02  0.48315254840E+02  0.41800000000E+01 0.  1.
         -5    1    3    3    0  502 -0.46782197418E+02 -0.17374924065E+02 -0.82223981981E+02  0.96274179271E+02  0.41800000000E+01 0.  1.
        -11    1    4    4    0    0 -0.22770363800E+02  0.40198348968E+02  0.12189344240E+02  0.47780506908E+02  0.00000000000E+00 0. -1.
         11    1    4    4    0    0  0.22892584619E+02 -0.22834005010E+02  0.64225865943E+02  0.71905660914E+02  0.00000000000E+00 0.  1.
</event>
<event>
 8    1  0.6834011E-009  0.7923256E+02  0.7561462E-02  0.1331244E+00
          1   -1    0    0  501    0  0.00000000000E+00  0.00000000000E+00  0.24926862311E+03  0.24926862311E+03  0.00000000000E+00 0. -1.
         -1   -1    0    0    0  501 -0.00000000000E+00 -0.00000000000E+00 -0.71185519503E+02  0.71185519503E+02  0.00000000000E+00 0.  1.
         25    2    1    2    0    0 -0.55342570689E+02 -0.14700046084E+02  0.16293101053E+03  0.21324359758E+03  0.12508967277E+03 0.  0.
         23    2    1    2    0    0  0.55342570689E+02  0.14700046084E+02  0.15152093082E+02  0.10721054503E+03  0.89362316195E+02 0.  0.
          5    1    3    3  502    0 -0.19036620090E+02  0.54372321015E+01 -0.18293226637E+02  0.27277663722E+02  0.41800000000E+01 0. -1.
         -5    1    3    3    0  502 -0.36305950600E+02 -0.20137278185E+02  0.18122423716E+03  0.18596593386E+03  0.41800000000E+01 0. -1.
        -11    1    4    4    0    0  0.44656823226E+02  0.45590406163E+02 -0.11733538166E+02  0.64887540504E+02  0.00000000000E+00 0.  1.
         11    1    4    4    0    0  0.10685747463E+02 -0.30890360079E+02  0.26885631248E+02  0.42323004528E+02  0.00000000000E+00 0. -1.
</event>
<event>
 8    1  0.6834011E-009  0.1065076E+03  0.7561462E-02  0.1267177E+00
         -2   -1    0    0    0  501 -0.00000000000E+00  0.00000000000E+00  0.11081485556E+03  0.11081485556E+03  0.00000000000E+00 0.  1.
          2   -1    0    0  501    0  0.00000000000E+00 -0.00000000000E+00 -0.13638507834E+03  0.13638507834E+03  0.00000000000E+00 0. -1.
         25    2    1    2    0    0  0.41146533306E+02 -0.81275098899E+01 -0.53615001094E+02  0.14241297997E+03  0.12509114637E+03 0.  0.
         23    2    1    2    0    0 -0.41146533306E+02  0.81275098899E+01  0.28044778310E+02  0.10478695393E+03  0.91840636450E+02 0.  0.
          5    1    3    3  502    0  0.12074154376E+01 -0.52791401438E+02  0.11099942387E+02  0.54120892812E+02  0.41800000000E+01 0.  1.
         -5    1    3    3    0  502  0.39939117869E+02  0.44663891548E+02 -0.64714943481E+02  0.88292087154E+02  0.41800000000E+01 0.  1.
        -11    1    4    4    0    0 -0.18640495483E+02 -0.41497909331E+02  0.20044283102E+02  0.49712350938E+02  0.00000000000E+00 0.  1.
         11    1    4    4    0    0 -0.22506037823E+02  0.49625419220E+02  0.80004952082E+01  0.55074602993E+02  0.00000000000E+00 0. -1.
</event>
<event>
 8    1  0.6834011E-009  0.1274807E+03  0.7561462E-02  0.1231243E+00
         -2   -1    0    0    0  501 -0.00000000000E+00  0.00000000000E+00  0.19120806700E+03  0.19120806700E+03  0.00000000000E+00 0.  1.
          2   -1    0    0  501    0  0.00000000000E+00 -0.00000000000E+00 -0.11464973831E+03  0.11464973831E+03  0.00000000000E+00 0. -1.
         25    2    1    2    0    0  0.43195567822E+02 -0.90011042991E+02  0.56468896365E+02  0.16972022865E+03  0.12509346432E+03 0.  0.
         23    2    1    2    0    0 -0.43195567822E+02  0.90011042991E+02  0.20089432332E+02  0.13613757666E+03  0.90343840677E+02 0.  0.
          5    1    3    3  502    0 -0.26021605548E+02 -0.38815188536E+02 -0.23205792209E+02  0.52342372973E+02  0.41800000000E+01 0.  1.
         -5    1    3    3    0  502  0.69217173371E+02 -0.51195854455E+02  0.79674688574E+02  0.11737785567E+03  0.41800000000E+01 0.  1.
        -11    1    4    4    0    0 -0.46103237288E+02  0.17550390351E+02  0.37010178570E+02  0.61670722451E+02  0.00000000000E+00 0.  1.
         11    1    4    4    0    0  0.29076694656E+01  0.72460652640E+02 -0.16920746238E+02  0.74466854211E+02  0.00000000000E+00 0. -1.
</event>
<event>
 8    1  0.6834011E-009  0.7962368E+02  0.7561462E-02  0.1330123E+00
          2   -1    0    0  501    0  0.00000000000E+00  0.00000000000E+00  0.93559306289E+02  0.93559306289E+02  0.00000000000E+00 0. -1.
         -2   -1    0    0    0  501 -0.00000000000E+00 -0.00000000000E+00 -0.13017711220E+03  0.13017711220E+03  0.00000000000E+00 0.  1.
         25    2    1    2    0    0  0.45532553987E+01  0.12190105343E+02 -0.10545750538E+02  0.12622529026E+03  0.12510907338E+03 0.  0.
         23    2    1    2    0    0 -0.45532553987E+01 -0.12190105343E+02 -0.26072055373E+02  0.97511128232E+02  0.93055560042E+02 0.  0.
          5    1    3    3  502    0  0.59612378771E+01  0.54667825870E+02  0.33780214138E+02  0.64673663956E+02  0.41800000000E+01 0. -1.
         -5    1    3    3    0  502 -0.14079824785E+01 -0.42477720527E+02 -0.44325964676E+02  0.61551626301E+02  0.41800000000E+01 0. -1.
        -11    1    4    4    0    0  0.22666497427E+02 -0.22824666103E+02 -0.50194861528E+02  0.59617611594E+02  0.00000000000E+00 0.  1.
         11    1    4    4    0    0 -0.27219752826E+02  0.10634560760E+02  0.24122806155E+02  0.37893516638E+02  0.00000000000E+00 0. -1.
</event>
<event>
 8    1  0.6834011E-009  0.1039200E+03  0.7561462E-02  0.1272262E+00
         -2   -1    0    0    0  501 -0.00000000000E+00  0.00000000000E+00  0.22187213753E+02  0.22187213753E+02  0.00000000000E+00 0.  1.
          2   -1    0    0  501    0  0.00000000000E+00 -0.00000000000E+00 -0.86574744743E+03  0.86574744743E+03  0.00000000000E+00 0. -1.
         25    2    1    2    0    0 -0.30971308333E+02 -0.75414713636E+02 -0.37129195583E+03  0.40019025574E+03  0.12509165980E+03 0.  0.
         23    2    1    2    0    0  0.30971308333E+02  0.75414713636E+02 -0.47226827784E+03  0.48774440544E+03  0.90612790540E+02 0.  0.
          5    1    3    3  502    0  0.77305611202E+01 -0.42081227310E+01  0.78175813646E+01  0.12492271633E+02  0.41800000000E+01 0. -1.
         -5    1    3    3    0  502 -0.38701869453E+02 -0.71206590905E+02 -0.37910953720E+03  0.38769798411E+03  0.41800000000E+01 0. -1.
        -11    1    4    4    0    0 -0.11844109699E+02 -0.13680275142E+02 -0.34529910390E+02  0.38983939951E+02  0.00000000000E+00 0. -1.
         11    1    4    4    0    0  0.42815418032E+02  0.89094988779E+02 -0.43773836745E+03  0.44876046549E+03  0.00000000000E+00 0.  1.
</event>
<event>
 8    1  0.6834011E-009  0.7419545E+02  0.7561462E-02  0.1346381E+00
         -1   -1    0    0    0  501 -0.00000000000E+00  0.00000000000E+00  0.87018270983E+02  0.87018270983E+02  0.00000000000E+00 0.  1.
          1   -1    0    0  501    0  0.00000000000E+00 -0.00000000000E+00 -0.15740685963E+03  0.15740685963E+03  0.00000000000E+00 0. -1.
         25    2    1    2    0    0  0.44816278251E+02  0.10491538657E+02 -0.34711036527E+02  0.13773431812E+03  0.12508922876E+03 0.  0.
         23    2    1    2    0    0 -0.44816278251E+02 -0.10491538657E+02 -0.35677552117E+02  0.10669081249E+03  0.89395025389E+02 0.  0.
          5    1    3    3  502    0  0.31163735228E+02  0.24296986609E+02 -0.79423506066E+02  0.88809276922E+02  0.41800000000E+01 0. -1.
         -5    1    3    3    0  502  0.13652543023E+02 -0.13805447952E+02  0.44712469539E+02  0.48925041200E+02  0.41800000000E+01 0. -1.
        -11    1    4    4    0    0 -0.43104969623E+02 -0.40256189701E+02 -0.46362092770E+02  0.75020283000E+02  0.00000000000E+00 0. -1.
         11    1    4    4    0    0 -0.17113086283E+01  0.29764651044E+02  0.10684540653E+02  0.31670529487E+02  0.00000000000E+00 0.  1.
</event>
<event>
 8    1  0.6834011E-009  0.9927661E+02  0.7561462E-02  0.1281825E+00
          2   -1    0    0  501    0  0.00000000000E+00  0.00000000000E+00  0.44843472170E+02  0.44843472170E+02  0.00000000000E+00 0. -1.
         -2   -1    0    0    0  501 -0.00000000000E+00 -0.00000000000E+00 -0.33492310891E+03  0.33492310891E+03  0.00000000000E+00 0.  1.
         25    2    1    2    0    0  0.55766857101E+02  0.11057447141E+01 -0.17545364474E+03  0.22258359820E+03  0.12509321209E+03 0.  0.
         23    2    1    2    0    0 -0.55766857101E+02 -0.11057447141E+01 -0.11462599200E+03  0.15718298288E+03  0.91957637230E+02 0.  0.
          5    1    3    3  502    0 -0.87968441705E+01  0.49929478644E+02 -0.39925642920E+02  0.64667353956E+02  0.41800000000E+01 0. -1.
         -5    1    3    3    0  502  0.64563701271E+02 -0.48823733930E+02 -0.13552800182E+03  0.15791624424E+03  0.41800000000E+01 0. -1.
        -11    1    4    4    0    0 -0.40799285686E+02 -0.17531642595E+02 -0.42695589403E+01  0.44611314015E+02  0.00000000000E+00 0. -1.
         11    1    4    4    0    0 -0.14967571415E+02  0.16425897881E+02 -0.11035643305E+03  0.11257166887E+03  0.00000000000E+00 0.  1.
</event>
<event>
 8    1  0.6834011E-009  0.8122377E+02  0.7561462E-02  0.1325614E+00
          1   -1    0    0  501    0  0.00000000000E+00  0.00000000000E+00  0.16025858832E+03  0.16025858832E+03  0.00000000000E+00 0. -1.
         -1   -1    0    0    0  501 -0.00000000000E+00 -0.00000000000E+00 -0.80092396157E+02  0.80092396157E+02  0.00000000000E+00 0.  1.
         25    2    1    2    0    0  0.23041867987E+02 -0.10433570477E+02  0.33228444458E+02  0.13187659914E+03  0.12509005079E+03 0.  0.
         23    2    1    2    0    0 -0.23041867987E+02  0.10433570477E+02  0.46937747702E+02  0.10847438533E+03  0.94465618299E+02 0.  0.
          5    1    3    3  502    0  0.14455733344E+02 -0.59912889462E+02  0.49244633306E+02  0.79000182655E+02  0.41800000000E+01 0. -1.
         -5    1    3    3    0  502  0.85861346430E+01  0.49479318984E+02 -0.16016188848E+02  0.52876416486E+02  0.41800000000E+01 0. -1.
        -11    1    4    4    0    0 -0.21782366419E+02  0.26422145586E+02 -0.19990564996E+02  0.39651279337E+02  0.00000000000E+00 0.  1.
         11    1    4    4    0    0 -0.12595015678E+01 -0.15988575108E+02  0.66928312698E+02  0.68823105995E+02  0.00000000000E+00 0. -1.
</event>
<event>
 8    1  0.6834011E-009  0.1341487E+03  0.7561462E-02  0.1221426E+00
         -2   -1    0    0    0  501 -0.00000000000E+00  0.00000000000E+00  0.21339365604E+02  0.21339365604E+02  0.00000000000E+00 0.  1.
          2   -1    0    0  501    0  0.00000000000E+00 -0.00000000000E+00 -0.14024706937E+04  0.14024706937E+04  0.00000000000E+00 0. -1.
         25    2    1    2    0    0 -0.11737164700E+03 -0.34887782450E+02 -0.95875540214E+03  0.97460439172E+03  0.12509411792E+03 0.  0.
         23    2    1    2    0    0  0.11737164700E+03  0.34887782450E+02 -0.42237592591E+03  0.44920566754E+03  0.91602664141E+02 0.  0.
          5    1    3    3  502    0 -0.13474496697E+02 -0.33167058260E+02 -0.61052170674E+02  0.70897501782E+02  0.41800000000E+01 0. -1.
         -5    1    3    3    0  502 -0.10389715030E+03 -0.17207241906E+01 -0.89770323146E+03  0.90370688993E+03  0.41800000000E+01 0. -1.
        -11    1    4    4    0    0  0.34837609985E+02 -0.72600197255E+01 -0.31599949120E+02  0.47591214948E+02  0.00000000000E+00 0.  1.
         11    1    4    4    0    0  0.82534037016E+02  0.42147802176E+02 -0.39077597679E+03  0.40161445259E+03  0.00000000000E+00 0. -1.
</event>
<event>
 8    1  0.6834011E-009  0.1069140E+03  0.7561462E-02  0.1266394E+00
         -2   -1    0    0    0  501 -0.00000000000E+00  0.00000000000E+00  0.14524967718E+03  0.14524967718E+03  0.00000000000E+00 0.  1.
          2   -1    0    0  501    0  0.00000000000E+00 -0.00000000000E+00 -0.10449431213E+03  0.10449431213E+03  0.00000000000E+00 0. -1.
         25    2    1    2    0    0  0.34033439078E+02 -0.78530073469E+01 -0.24543338873E+02  0.13217486804E+03  0.12509146876E+03 0.  0.
         23    2    1    2    0    0 -0.34033439078E+02  0.78530073469E+01  0.65298703920E+02  0.11756912127E+03  0.91316114913E+02 0.  0.
          5    1    3    3  502    0  0.65931548490E+02 -0.34468891359E+02 -0.43539418639E+02  0.86303110797E+02  0.41800000000E+01 0.  1.
         -5    1    3    3    0  502 -0.31898109412E+02  0.26615884012E+02  0.18996079766E+02  0.45871757240E+02  0.41800000000E+01 0.  1.
        -11    1    4    4    0    0 -0.57909723757E+02  0.29800768388E+02  0.47165983154E+02  0.80413008083E+02  0.00000000000E+00 0.  1.
         11    1    4    4    0    0  0.23876284679E+02 -0.21947761041E+02  0.18132720766E+02  0.37156113187E+02  0.00000000000E+00 0. -1.
</event>
<event>
 8    1  0.6834011E-009  0.1274761E+03  0.7561462E-02  0.1231250E+00
         -1   -1    0    0    0  501 -0.00000000000E+00  0.00000000000E+00  0.60379695518E+03  0.60379695518E+03  0.00000000000E+00 0.  1.
          1   -1    0    0  501    0  0.00000000000E+00 -0.00000000000E+00 -0.45132226122E+02  0.45132226122E+02  0.00000000000E+00 0. -1.
         25    2    1    2    0    0 -0.99686661238E+02 -0.46022754191E+02  0.41010974890E+03  0.44259793103E+03  0.12508956025E+03 0.  0.
         23    2    1    2    0    0  0.99686661238E+02  0.46022754191E+02  0.14855498016E+03  0.20633125027E+03  0.91915604634E+02 0.  0.
          5    1    3    3  502    0 -0.11850323385E+02  0.20133031070E+02  0.23217616339E+03  0.23338597291E+03  0.41800000000E+01 0. -1.
         -5    1    3    3    0  502 -0.87836337853E+02 -0.66155785261E+02  0.17793358551E+03  0.20921195813E+03  0.41800000000E+01 0. -1.
        -11    1    4    4    0    0  0.77408778634E+02  0.89483130921E+01  0.14282602468E+03  0.16270053670E+03  0.00000000000E+00 0.  1.
         11    1    4    4    0    0  0.22277882604E+02  0.37074441099E+02  0.57289554887E+01  0.43630713575E+02  0.00000000000E+00 0. -1.
</event>
<event>
 8    1  0.6834011E-009  0.1091744E+03  0.7561462E-02  0.1262106E+00
          1   -1    0    0  501    0  0.00000000000E+00  0.00000000000E+00  0.40934614107E+03  0.40934614107E+03  0.00000000000E+00 0. -1.
         -1   -1    0    0    0  501 -0.00000000000E+00 -0.00000000000E+00 -0.33871411281E+02  0.33871411281E+02  0.00000000000E+00 0.  1.
         25    2    1    2    0    0 -0.12672622804E+02  0.46077424073E+02  0.22857924464E+03  0.26491464186E+03  0.12509025546E+03 0.  0.
         23    2    1    2    0    0  0.12672622804E+02 -0.46077424073E+02  0.14689548514E+03  0.17830291049E+03  0.89050098009E+02 0.  0.
          5    1    3    3  502    0 -0.60571274412E+02  0.46881385342E+02  0.18397118096E+03  0.19932288228E+03  0.41800000000E+01 0.  1.
         -5    1    3    3    0  502  0.47898651608E+02 -0.80396126940E+00  0.44608063683E+02  0.65591759583E+02  0.41800000000E+01 0.  1.
        -11    1    4    4    0    0  0.55818560672E+01  0.23226087330E+02  0.72716740109E+02  0.76539744851E+02  0.00000000000E+00 0. -1.
         11    1    4    4    0    0  0.70907667371E+01 -0.69303511403E+02  0.74178745034E+02  0.10176316564E+03  0.00000000000E+00 0.  1.
</event>
<event>
 8    1  0.6834011E-009  0.1140603E+03  0.7561462E-02  0.1253230E+00
         -2   -1    0    0    0  501 -0.00000000000E+00  0.00000000000E+00  0.95428258114E+01  0.95428258114E+01  0.00000000000E+00 0.  1.
          2   -1    0    0  501    0  0.00000000000E+00 -0.00000000000E+00 -0.18587932462E+04  0.18587932462E+04  0.00000000000E+00 0. -1.
         25    2    1    2    0    0  0.63526089405E+01 -0.66112505165E+02 -0.13126500920E+04  0.13202685144E+04  0.12508983583E+03 0.  0.
         23    2    1    2    0    0 -0.63526089405E+01  0.66112505165E+02 -0.53660032839E+03  0.54806755765E+03  0.89593059630E+02 0.  0.
          5    1    3    3  502    0  0.23291399340E+02 -0.87118979877E+02 -0.12282011689E+04  0.12315144293E+04  0.41800000000E+01 0.  1.
         -5    1    3    3    0  502 -0.16938790399E+02  0.21006474712E+02 -0.84448923103E+02  0.88754085051E+02  0.41800000000E+01 0.  1.
        -11    1    4    4    0    0 -0.19975675306E+02  0.84963324105E+02 -0.45075850707E+03  0.45913072838E+03  0.00000000000E+00 0.  1.
         11    1    4    4    0    0  0.13623066366E+02 -0.18850818941E+02 -0.85841821323E+02  0.88936829266E+02  0.00000000000E+00 0. -1.
</event>
<event>
 8    1  0.6834011E-009  0.1375672E+03  0.7561462E-02  0.1216640E+00
          1   -1    0    0  501    0  0.00000000000E+00  0.00000000000E+00  0.82059843101E+03  0.82059843101E+03  0.00000000000E+00 0. -1.
         -1   -1    0    0    0  501 -0.00000000000E+00 -0.00000000000E+00 -0.23767523514E+02  0.23767523514E+02  0.00000000000E+00 0.  1.
         25    2    1    2    0    0  0.42607364076E+02 -0.74852217461E+02  0.40966883418E+03  0.43691428506E+03  0.12508915565E+03 0.  0.
         23    2    1    2    0    0 -0.42607364076E+02  0.74852217461E+02  0.38716207332E+03  0.40745166946E+03  0.93296034211E+02 0.  0.
          5    1    3    3  502    0 -0.10562342322E+02  0.30056665788E+02  0.61417685497E+02  0.69315010824E+02  0.41800000000E+01 0.  1.
         -5    1    3    3    0  502  0.53169706398E+02 -0.10490888325E+03  0.34825114868E+03  0.36759927424E+03  0.41800000000E+01 0.  1.
        -11    1    4    4    0    0 -0.71397850593E+02  0.48747452315E+02  0.23475699925E+03  0.25016957424E+03  0.00000000000E+00 0. -1.
         11    1    4    4    0    0  0.28790486517E+02  0.26104765145E+02  0.15240507407E+03  0.15728209522E+03  0.00000000000E+00 0.  1.
</event>
<event>
 8    1  0.6834011E-009  0.1262191E+03  0.7561462E-02  0.1233176E+00
          1   -1    0    0  501    0  0.00000000000E+00  0.00000000000E+00  0.88371699972E+02  0.88371699972E+02  0.00000000000E+00 0.  1.
         -1   -1    0    0    0  501 -0.00000000000E+00 -0.00000000000E+00 -0.25954478920E+03  0.25954478920E+03  0.00000000000E+00 0. -1.
         25    2    1    2    0    0  0.96378698208E+02  0.34061332419E+02 -0.64385960392E+02  0.17390143507E+03  0.12508848623E+03 0.  0.
         23    2    1    2    0    0 -0.96378698208E+02 -0.34061332419E+02 -0.10678712883E+03  0.17401505410E+03  0.91808062478E+02 0.  0.
          5    1    3    3  502    0 -0.19577481114E+02  0.12777426531E+02  0.18181417180E+02  0.29909475526E+02  0.41800000000E+01 0. -1.
         -5    1    3    3    0  502  0.11595617932E+03  0.21283905888E+02 -0.82567377573E+02  0.14399195954E+03  0.41800000000E+01 0. -1.
        -11    1    4    4    0    0 -0.15978523476E+02  0.10187149163E+02 -0.74274842924E+02  0.76654050851E+02  0.00000000000E+00 0. -1.
         11    1    4    4    0    0 -0.80400174732E+02 -0.44248481582E+02 -0.32512285908E+02  0.97361003252E+02  0.00000000000E+00 0.  1.
</event>
<event>
 8    1  0.6834011E-009  0.8314640E+02  0.7561462E-02  0.1320352E+00
         -2   -1    0    0    0  501 -0.00000000000E+00  0.00000000000E+00  0.15020206150E+03  0.15020206150E+03  0.00000000000E+00 0. -1.
          2   -1    0    0  501    0  0.00000000000E+00 -0.00000000000E+00 -0.12142513444E+03  0.12142513444E+03  0.00000000000E+00 0.  1.
         25    2    1    2    0    0  0.58908941828E+02 -0.49459437952E+02  0.37409958295E+02  0.15153740021E+03  0.12509028441E+03 0.  0.
         23    2    1    2    0    0 -0.58908941828E+02  0.49459437952E+02 -0.86330312427E+01  0.12008979573E+03  0.91817919710E+02 0.  0.
          5    1    3    3  502    0  0.29328463866E+02 -0.37845873283E+02 -0.43303508700E+02  0.64692620777E+02  0.41800000000E+01 0.  1.
         -5    1    3    3    0  502  0.29580477962E+02 -0.11613564669E+02  0.80713466994E+02  0.86844779435E+02  0.41800000000E+01 0.  1.
        -11    1    4    4    0    0 -0.24697769681E+02  0.45458275209E+02  0.36500431046E+02  0.63314422360E+02  0.00000000000E+00 0. -1.
         11    1    4    4    0    0 -0.34211172147E+02  0.40011627425E+01 -0.45133462289E+02  0.56775373369E+02  0.00000000000E+00 0.  1.
</event>
<event>
 8    1  0.6834011E-009  0.1658743E+03  0.7561462E-02  0.1182220E+00
          1   -1    0    0  501    0  0.00000000000E+00  0.00000000000E+00  0.10188687616E+04  0.10188687616E+04  0.00000000000E+00 0. -1.
         -1   -1    0    0    0  501 -0.00000000000E+00 -0.00000000000E+00 -0.29266732259E+02  0.29266732259E+02  0.00000000000E+00 0.  1.
         25    2    1    2    0    0  0.93960632412E+02 -0.93701652934E+02  0.49919421326E+03  0.53146249234E+03  0.12509563546E+03 0.  0.
         23    2    1    2    0    0 -0.93960632412E+02  0.93701652934E+02  0.49040781604E+03  0.51667300147E+03  0.94034909543E+02 0.  0.
          5    1    3    3  502    0  0.11097705697E+03 -0.29938668481E+02  0.34562140529E+03  0.36425795700E+03  0.41800000000E+01 0.  1.
         -5    1    3    3    0  502 -0.17016424560E+02 -0.63762984453E+02  0.15357280797E+03  0.16720453534E+03  0.41800000000E+01 0.  1.
        -11    1    4    4    0    0 -0.46220212350E+02  0.91851420791E+02  0.23027915626E+03  0.25219334119E+03  0.00000000000E+00 0.  1.
         11    1    4    4    0    0 -0.47740420062E+02  0.18502321432E+01  0.26012865978E+03  0.26447966029E+03  0.00000000000E+00 0. -1.
</event>
<event>
 8    1  0.6834011E-009  0.8017451E+02  0.7561462E-02  0.1328557E+00
         -4   -1    0    0    0  501 -0.00000000000E+00  0.00000000000E+00  0.28141013280E+02  0.28141013280E+02  0.00000000000E+00 0. -1.
          4   -1    0    0  501    0  0.00000000000E+00 -0.00000000000E+00 -0.43756509918E+03  0.43756509918E+03  0.00000000000E+00 0.  1.
         25    2    1    2    0    0 -0.11271598193E+02  0.41838248805E+01 -0.18776847540E+03  0.22594054494E+03  0.12509027211E+03 0.  0.
         23    2    1    2    0    0  0.11271598193E+02 -0.41838248805E+01 -0.22165561050E+03  0.23976556752E+03  0.90618786055E+02 0.  0.
          5    1    3    3  502    0 -0.25288682819E+02 -0.33219017032E+02 -0.18026591079E+03  0.18508455247E+03  0.41800000000E+01 0.  1.
         -5    1    3    3    0  502  0.14017084627E+02  0.37402841913E+02 -0.75025646088E+01  0.40855992465E+02  0.41800000000E+01 0.  1.
        -11    1    4    4    0    0  0.11455610989E+02 -0.40410283604E+02 -0.17871605227E+03  0.18358553696E+03  0.00000000000E+00 0.  1.
         11    1    4    4    0    0 -0.18401279625E+00  0.36226458723E+02 -0.42939558238E+02  0.56180030563E+02  0.00000000000E+00 0. -1.
</event>
<event>
 8    1  0.6834011E-009  0.8980531E+02  0.7561462E-02  0.1303324E+00
          1   -1    0    0  501    0  0.00000000000E+00  0.00000000000E+00  0.30617490989E+03  0.30617490989E+03  0.00000000000E+00 0. -1.
         -1   -1    0    0    0  501 -0.00000000000E+00 -0.00000000000E+00 -0.43002642836E+02  0.43002642836E+02  0.00000000000E+00 0.  1.
         25    2    1    2    0    0  0.13701606892E+02  0.28864409978E+02  0.16304067485E+03  0.20796779054E+03  0.12508977597E+03 0.  0.
         23    2    1    2    0    0 -0.13701606892E+02 -0.28864409978E+02  0.10013159220E+03  0.14120976218E+03  0.94302560857E+02 0.  0.
          5    1    3    3  502    0 -0.40999592717E+02 -0.28192199563E+02  0.64894407103E+02  0.81881152852E+02  0.41800000000E+01 0.  1.
         -5    1    3    3    0  502  0.54701199609E+02  0.57056609540E+02  0.98146267750E+02  0.12608663769E+03  0.41800000000E+01 0.  1.
        -11    1    4    4    0    0 -0.29085550824E+01 -0.36934630860E+02  0.11518999744E+03  0.12100149652E+03  0.00000000000E+00 0. -1.
         11    1    4    4    0    0 -0.10793051809E+02  0.80702208828E+01 -0.15058405245E+02  0.20208265660E+02  0.00000000000E+00 0.  1.
</event>
<event>
 8    1  0.6834011E-009  0.1308619E+03  0.7561462E-02  0.1226182E+00
         -2   -1    0    0    0  501 -0.00000000000E+00  0.00000000000E+00  0.82200951111E+03  0.82200951111E+03  0.00000000000E+00 0. -1.
          2   -1    0    0  501    0  0.00000000000E+00 -0.00000000000E+00 -0.22974305238E+02  0.22974305238E+02  0.00000000000E+00 0.  1.
         25    2    1    2    0    0  0.73609199096E+02  0.38031620888E+02  0.40315112277E+03  0.43016713042E+03  0.12509282125E+03 0.  0.
         23    2    1    2    0    0 -0.73609199096E+02 -0.38031620888E+02  0.39588408310E+03  0.41481668592E+03  0.92108399662E+02 0.  0.
          5    1    3    3  502    0 -0.15736640065E+02  0.56358586159E+02  0.16450809655E+03  0.17465485480E+03  0.41800000000E+01 0. -1.
         -5    1    3    3    0  502  0.89345839161E+02 -0.18326965271E+02  0.23864302622E+03  0.25551227562E+03  0.41800000000E+01 0. -1.
        -11    1    4    4    0    0 -0.41469293276E+02 -0.59921825932E+02  0.16084726807E+03  0.17658474213E+03  0.00000000000E+00 0. -1.
         11    1    4    4    0    0 -0.32139905821E+02  0.21890205044E+02  0.23503681503E+03  0.23823194379E+03  0.00000000000E+00 0.  1.
</event>
<event>
 8    1  0.6834011E-009  0.1096126E+03  0.7561462E-02  0.1261289E+00
          4   -1    0    0  501    0  0.00000000000E+00  0.00000000000E+00  0.14276693287E+03  0.14276693287E+03  0.00000000000E+00 0. -1.
         -4   -1    0    0    0  501 -0.00000000000E+00 -0.00000000000E+00 -0.15729858254E+03  0.15729858254E+03  0.00000000000E+00 0.  1.
         25    2    1    2    0    0 -0.80716227223E+02  0.25177806460E+02 -0.68602461909E+02  0.16584094065E+03  0.12509152065E+03 0.  0.
         23    2    1    2    0    0  0.80716227223E+02 -0.25177806460E+02  0.54070812242E+02  0.13422457476E+03  0.89126609141E+02 0.  0.
          5    1    3    3  502    0 -0.26995178637E+01  0.22347043349E+02  0.31428475648E+02  0.38883148338E+02  0.41800000000E+01 0.  1.
         -5    1    3    3    0  502 -0.78016709360E+02  0.28307631111E+01 -0.10003093756E+03  0.12695779231E+03  0.41800000000E+01 0.  1.
        -11    1    4    4    0    0  0.58896066672E+02 -0.55411770368E+02  0.19067080744E+02  0.83082877495E+02  0.00000000000E+00 0. -1.
         11    1    4    4    0    0  0.21820160551E+02  0.30233963908E+02  0.35003731498E+02  0.51141697262E+02  0.00000000000E+00 0.  1.
</event>
<event>
 8    1  0.6834011E-009  0.8908103E+02  0.7561462E-02  0.1305092E+00
         -2   -1    0    0    0  501 -0.00000000000E+00  0.00000000000E+00  0.32337298797E+02  0.32337298797E+02  0.00000000000E+00 0.  1.
          2   -1    0    0  501    0  0.00000000000E+00 -0.00000000000E+00 -0.42757060735E+03  0.42757060735E+03  0.00000000000E+00 0. -1.
         25    2    1    2    0    0 -0.45179300460E+02 -0.68479006184E+01 -0.24543455656E+03  0.27923755365E+03  0.12508967538E+03 0.  0.
         23    2    1    2    0    0  0.45179300460E+02  0.68479006184E+01 -0.14979875200E+03  0.18067035249E+03  0.90078006404E+02 0.  0.
          5    1    3    3  502    0 -0.25314793607E+02 -0.34428104525E+02 -0.13822187920E+02  0.45107188290E+02  0.41800000000E+01 0.  1.
         -5    1    3    3    0  502 -0.19864506853E+02  0.27580203907E+02 -0.23161236864E+03  0.23413036536E+03  0.41800000000E+01 0.  1.
        -11    1    4    4    0    0  0.23115924348E+02 -0.41685897474E+02 -0.72756440046E+02  0.86980225194E+02  0.00000000000E+00 0.  1.
         11    1    4    4    0    0  0.22063376112E+02  0.48533798093E+02 -0.77042311951E+02  0.93690127300E+02  0.00000000000E+00 0. -1.
</event>
<event>
 8    1  0.6834011E-009  0.1157358E+03  0.7561462E-02  0.1250302E+00
          2   -1    0    0  501    0  0.00000000000E+00  0.00000000000E+00  0.11469650159E+04  0.11469650159E+04  0.00000000000E+00 0. -1.
         -2   -1    0    0    0  501 -0.00000000000E+00 -0.00000000000E+00 -0.12003703316E+02  0.12003703316E+02  0.00000000000E+00 0.  1.
         25    2    1    2    0    0  0.26246469871E+02 -0.35775735952E+02  0.67375679887E+03  0.68670478352E+03  0.12508579144E+03 0.  0.
         23    2    1    2    0    0 -0.26246469871E+02  0.35775735952E+02  0.46120451375E+03  0.47226393574E+03  0.91404819495E+02 0.  0.
          5    1    3    3  502    0  0.46674509456E+02  0.33702039886E+02  0.36537295224E+03  0.36990431730E+03  0.41800000000E+01 0. -1.
         -5    1    3    3    0  502 -0.20428039584E+02 -0.69477775838E+02  0.30838384663E+03  0.31680046622E+03  0.41800000000E+01 0. -1.
        -11    1    4    4    0    0 -0.45455984900E+02  0.56788515336E+02  0.34940327357E+03  0.35689470382E+03  0.00000000000E+00 0.  1.
         11    1    4    4    0    0  0.19209515029E+02 -0.21012779384E+02  0.11180124018E+03  0.11536923191E+03  0.00000000000E+00 0. -1.
</event>
<event>
 8    1  0.6834011E-009  0.9533371E+02  0.7561462E-02  0.1290426E+00
          1   -1    0    0  501    0  0.00000000000E+00  0.00000000000E+00  0.85954271986E+03  0.85954271986E+03  0.00000000000E+00 0. -1.
         -1   -1    0    0    0  501 -0.00000000000E+00 -0.00000000000E+00 -0.24380323494E+02  0.24380323494E+02  0.00000000000E+00 0.  1.
         25    2    1    2    0    0  0.21118661271E+02 -0.49752428701E+02  0.69816337273E+03  0.71133669994E+03  0.12508598499E+03 0.  0.
         23    2    1    2    0    0 -0.21118661271E+02  0.49752428701E+02  0.13699902363E+03  0.17258634341E+03  0.89977838611E+02 0.  0.
          5    1    3    3  502    0  0.51483758661E+02 -0.27360416568E+02  0.63471049403E+03  0.63739630798E+03  0.41800000000E+01 0. -1.
         -5    1    3    3    0  502 -0.30365097390E+02 -0.22392012133E+02  0.63452878706E+02  0.73940391958E+02  0.41800000000E+01 0. -1.
        -11    1    4    4    0    0 -0.48819243015E+02  0.17788167776E+02  0.11197102778E+03  0.12343925009E+03  0.00000000000E+00 0. -1.
         11    1    4    4    0    0  0.27700581744E+02  0.31964260925E+02  0.25027995851E+02  0.49147093320E+02  0.00000000000E+00 0.  1.
</event>
<event>
 8    1  0.6834011E-009  0.1533969E+03  0.7561462E-02  0.1196360E+00
         -1   -1    0    0    0  501 -0.00000000000E+00  0.00000000000E+00  0.32689208850E+03  0.32689208850E+03  0.00000000000E+00 0.  1.
          1   -1    0    0  501    0  0.00000000000E+00 -0.00000000000E+00 -0.80214959572E+02  0.80214959572E+02  0.00000000000E+00 0. -1.
         25    2    1    2    0    0  0.10830087302E+03 -0.30538835122E+02  0.18458359820E+03  0.24975931861E+03  0.12508762113E+03 0.  0.
         23    2    1    2    0    0 -0.10830087302E+03  0.30538835122E+02  0.62093530733E+02  0.15734772947E+03  0.90779963994E+02 0.  0.
          5    1    3    3  502    0  0.10513463427E+03  0.25821675579E+02  0.96665785657E+02  0.14519571884E+03  0.41800000000E+01 0. -1.
         -5    1    3    3    0  502  0.31662387515E+01 -0.56360510701E+02  0.87917812541E+02  0.10456359977E+03  0.41800000000E+01 0. -1.
        -11    1    4    4    0    0 -0.12331983366E+03  0.29475009606E+02  0.64240795679E+02  0.14213879623E+03  0.00000000000E+00 0.  1.
         11    1    4    4    0    0  0.15018960640E+02  0.10638255158E+01 -0.21472649466E+01  0.15208933236E+02  0.00000000000E+00 0. -1.
</event>
<event>
 8    1  0.6834011E-009  0.1061425E+03  0.7561462E-02  0.1267885E+00
          2   -1    0    0  501    0  0.00000000000E+00  0.00000000000E+00  0.43878743909E+03  0.43878743909E+03  0.00000000000E+00 0. -1.
         -2   -1    0    0    0  501 -0.00000000000E+00 -0.00000000000E+00 -0.56402066391E+02  0.56402066391E+02  0.00000000000E+00 0.  1.
         25    2    1    2    0    0 -0.92504015095E+02 -0.43008771155E+01  0.10200865515E+03  0.18608800244E+03  0.12508992195E+03 0.  0.
         23    2    1    2    0    0  0.92504015095E+02  0.43008771155E+01  0.28037671755E+03  0.30910150305E+03  0.91417422241E+02 0.  0.
          5    1    3    3  502    0 -0.57632913049E+02  0.20228244144E+01  0.12898629746E+03  0.14135268592E+03  0.41800000000E+01 0.  1.
         -5    1    3    3    0  502 -0.34871102046E+02 -0.63237015298E+01 -0.26977642309E+02  0.44735316513E+02  0.41800000000E+01 0.  1.
        -11    1    4    4    0    0  0.67200111161E+02 -0.32079864892E+02  0.10843863047E+03  0.13154432427E+03  0.00000000000E+00 0.  1.
         11    1    4    4    0    0  0.25303903933E+02  0.36380742008E+02  0.17193808708E+03  0.17755717877E+03  0.00000000000E+00 0. -1.
</event>
<event>
 8    1  0.6834011E-009  0.9813329E+02  0.7561462E-02  0.1284271E+00
          1   -1    0    0  501    0  0.00000000000E+00  0.00000000000E+00  0.43723937838E+03  0.43723937838E+03  0.00000000000E+00 0. -1.
         -1   -1    0    0    0  501 -0.00000000000E+00 -0.00000000000E+00 -0.29885287269E+02  0.29885287269E+02  0.00000000000E+00 0.  1.
         25    2    1    2    0    0 -0.12139122163E+02  0.16775505896E+02  0.29767548111E+03  0.32355619116E+03  0.12509652633E+03 0.  0.
         23    2    1    2    0    0  0.12139122163E+02 -0.16775505896E+02  0.10967861000E+03  0.14356847449E+03  0.90298025947E+02 0.  0.
          5    1    3    3  502    0  0.39691919076E+02  0.36073007366E+02  0.65069052714E+02  0.84428456823E+02  0.41800000000E+01 0. -1.
         -5    1    3    3    0  502 -0.51831041239E+02 -0.19297501470E+02  0.23260642839E+03  0.23912773433E+03  0.41800000000E+01 0. -1.
        -11    1    4    4    0    0  0.12813874633E+02 -0.51095494937E+02  0.40870985054E+02  0.66673701001E+02  0.00000000000E+00 0.  1.
         11    1    4    4    0    0 -0.67475247068E+00  0.34319989040E+02  0.68807624947E+02  0.76894773486E+02  0.00000000000E+00 0. -1.
</event>
<event>
 8    1  0.6834011E-009  0.5355368E+02  0.7561462E-02  0.1427065E+00
         -1   -1    0    0    0  501 -0.00000000000E+00  0.00000000000E+00  0.75772359776E+02  0.75772359776E+02  0.00000000000E+00 0.  1.
          1   -1    0    0  501    0  0.00000000000E+00 -0.00000000000E+00 -0.17242163240E+03  0.17242163240E+03  0.00000000000E+00 0. -1.
         25    2    1    2    0    0 -0.13185998936E+02  0.15843075306E+02 -0.49729488555E+02  0.13618562440E+03  0.12509447893E+03 0.  0.
         23    2    1    2    0    0  0.13185998936E+02 -0.15843075306E+02 -0.46919784065E+02  0.11200836777E+03  0.99596860949E+02 0.  0.
          5    1    3    3  502    0 -0.97933209366E+01  0.22948890954E+02 -0.90748548467E+02  0.94208981418E+02  0.41800000000E+01 0. -1.
         -5    1    3    3    0  502 -0.33926779997E+01 -0.71058156476E+01  0.41019059912E+02  0.41976642983E+02  0.41800000000E+01 0. -1.
        -11    1    4    4    0    0 -0.22338888259E+02 -0.27569036963E+02  0.15907970747E+02  0.38886260569E+02  0.00000000000E+00 0. -1.
         11    1    4    4    0    0  0.35524887195E+02  0.11725961657E+02 -0.62827754812E+02  0.73122107203E+02  0.00000000000E+00 0.  1.
</event>
<event>
 8    1  0.6834011E-009  0.1249811E+03  0.7561462E-02  0.1235099E+00
          1   -1    0    0  501    0  0.00000000000E+00  0.00000000000E+00  0.22548286758E+03  0.22548286758E+03  0.00000000000E+00 0. -1.
         -1   -1    0    0    0  501 -0.00000000000E+00 -0.00000000000E+00 -0.97710694416E+02  0.97710694416E+02  0.00000000000E+00 0.  1.
         25    2    1    2    0    0 -0.98344034236E+02  0.63073847171E+01  0.42547528810E+02  0.16483869365E+03  0.12510064166E+03 0.  0.
         23    2    1    2    0    0  0.98344034236E+02 -0.63073847171E+01  0.85224644350E+02  0.15835486834E+03  0.90009400351E+02 0.  0.
          5    1    3    3  502    0  0.51870334387E+01  0.10908515255E+02 -0.33744343122E+02  0.36083986943E+02  0.41800000000E+01 0. -1.
         -5    1    3    3    0  502 -0.10353106768E+03 -0.46011305374E+01  0.76291871932E+02  0.12875470671E+03  0.41800000000E+01 0. -1.
        -11    1    4    4    0    0  0.94800181468E+02  0.28097210232E+02  0.62714560377E+02  0.11708818776E+03  0.00000000000E+00 0.  1.
         11    1    4    4    0    0  0.35438527688E+01 -0.34404594949E+02  0.22510083973E+02  0.41266680585E+02  0.00000000000E+00 0. -1.
</event>
<event>
 8    1  0.6834011E-009  0.1708619E+03  0.7561462E-02  0.1176952E+00
         -3   -1    0    0    0  501 -0.00000000000E+00  0.00000000000E+00  0.25849769143E+03  0.25849769143E+03  0.00000000000E+00 0.  1.
          3   -1    0    0  501    0  0.00000000000E+00 -0.00000000000E+00 -0.18438489011E+03  0.18438489011E+03  0.00000000000E+00 0. -1.
         25    2    1    2    0    0 -0.89216381755E+01  0.16258945533E+03 -0.58869178134E+02  0.21360761266E+03  0.12509078879E+03 0.  0.
         23    2    1    2    0    0  0.89216381755E+01 -0.16258945533E+03  0.13298197946E+03  0.22927496887E+03  0.91476105521E+02 0.  0.
          5    1    3    3  502    0 -0.34038655127E+02  0.38571245359E+02 -0.69487061014E+02  0.86558044454E+02  0.41800000000E+01 0. -1.
         -5    1    3    3    0  502  0.25117016951E+02  0.12401820997E+03  0.10617882880E+02  0.12704956820E+03  0.41800000000E+01 0. -1.
        -11    1    4    4    0    0  0.63169005040E+01 -0.21903874341E+02  0.72710252128E+02  0.76200155562E+02  0.00000000000E+00 0.  1.
         11    1    4    4    0    0  0.26047376714E+01 -0.14068558099E+03  0.60271727328E+02  0.15307481331E+03  0.00000000000E+00 0. -1.
</event>
<event>
 8    1  0.6834011E-009  0.1359652E+03  0.7561462E-02  0.1218863E+00
         -1   -1    0    0    0  501 -0.00000000000E+00  0.00000000000E+00  0.38613766704E+02  0.38613766704E+02  0.00000000000E+00 0.  1.
          1   -1    0    0  501    0  0.00000000000E+00 -0.00000000000E+00 -0.54179498495E+03  0.54179498495E+03  0.00000000000E+00 0. -1.
         25    2    1    2    0    0 -0.44148917671E+02  0.75516258462E+02 -0.19427180151E+03  0.24706223607E+03  0.12508550438E+03 0.  0.
         23    2    1    2    0    0  0.44148917671E+02 -0.75516258462E+02 -0.30890941674E+03  0.33334651558E+03  0.89682994376E+02 0.  0.
          5    1    3    3  502    0 -0.63394366645E+02 -0.52312733341E+01 -0.51888351163E+02  0.82195409419E+02  0.41800000000E+01 0.  1.
         -5    1    3    3    0  502  0.19245448974E+02  0.80747531796E+02 -0.14238345035E+03  0.16486682665E+03  0.41800000000E+01 0.  1.
        -11    1    4    4    0    0  0.59682047415E+02 -0.13570585858E+02 -0.14153339216E+03  0.15420054696E+03  0.00000000000E+00 0.  1.
         11    1    4    4    0    0 -0.15533129744E+02 -0.61945672604E+02 -0.16737602457E+03  0.17914596863E+03  0.00000000000E+00 0. -1.
</event>
<event>
 8    1  0.6834011E-009  0.1181612E+03  0.7561462E-02  0.1246162E+00
         -2   -1    0    0    0  501 -0.00000000000E+00  0.00000000000E+00  0.87419772900E+02  0.87419772900E+02  0.00000000000E+00 0.  1.
          2   -1    0    0  501    0  0.00000000000E+00 -0.00000000000E+00 -0.25109888044E+03  0.25109888044E+03  0.00000000000E+00 0. -1.
         25    2    1    2    0    0 -0.11241285585E+02  0.55029957599E+02  0.65018347826E+01  0.13727604216E+03  0.12509106747E+03 0.  0.
         23    2    1    2    0    0  0.11241285585E+02 -0.55029957599E+02 -0.17018094232E+03  0.20124261118E+03  0.91555298537E+02 0.  0.
          5    1    3    3  502    0 -0.16208588634E+02  0.93556632027E+02 -0.85076615766E+01  0.95422295337E+02  0.41800000000E+01 0. -1.
         -5    1    3    3    0  502  0.49673030498E+01 -0.38526674428E+02  0.15009496359E+02  0.41853746822E+02  0.41800000000E+01 0. -1.
        -11    1    4    4    0    0  0.43630804000E+02 -0.68649676852E+01 -0.43960159832E+02  0.62315892768E+02  0.00000000000E+00 0.  1.
         11    1    4    4    0    0 -0.32389518415E+02 -0.48164989914E+02 -0.12622078249E+03  0.13892671841E+03  0.00000000000E+00 0. -1.
</event>
<event>
 8    1  0.6834011E-009  0.1047280E+03  0.7561462E-02  0.1270656E+00
          2   -1    0    0  501    0  0.00000000000E+00  0.00000000000E+00  0.15528053706E+03  0.15528053706E+03  0.00000000000E+00 0. -1.
         -2   -1    0    0    0  501 -0.00000000000E+00 -0.00000000000E+00 -0.75925144109E+02  0.75925144109E+02  0.00000000000E+00 0.  1.
         25    2    1    2    0    0 -0.88631786227E+01  0.72879293703E+01  0.49670973961E+02  0.13507956412E+03  0.12509041985E+03 0.  0.
         23    2    1    2    0    0  0.88631786227E+01 -0.72879293703E+01  0.29684418987E+02  0.96126117049E+02  0.90704993239E+02 0.  0.
          5    1    3    3  502    0 -0.44010012981E+02  0.50483823302E+02  0.40800828411E+02  0.78534563454E+02  0.41800000000E+01 0.  1.
         -5    1    3    3    0  502  0.35146834359E+02 -0.43195893932E+02  0.88701455497E+01  0.56545000664E+02  0.41800000000E+01 0.  1.
        -11    1    4    4    0    0  0.26944962438E+02  0.32848243811E+02 -0.94717090906E+00  0.42496296956E+02  0.00000000000E+00 0.  1.
         11    1    4    4    0    0 -0.18081783815E+02 -0.40136173182E+02  0.30631589896E+02  0.53629820093E+02  0.00000000000E+00 0. -1.
</event>
<event>
 8    1  0.6834011E-009  0.8990166E+02  0.7561462E-02  0.1303090E+00
          1   -1    0    0  501    0  0.00000000000E+00  0.00000000000E+00  0.48815129491E+03  0.48815129491E+03  0.00000000000E+00 0. -1.
         -1   -1    0    0    0  501 -0.00000000000E+00 -0.00000000000E+00 -0.30477680727E+02  0.30477680727E+02  0.00000000000E+00 0.  1.
         25    2    1    2    0    0  0.13222718029E+02 -0.20478695463E+02  0.36990946041E+03  0.39124711941E+03  0.12508829805E+03 0.  0.
         23    2    1    2    0    0 -0.13222718029E+02  0.20478695463E+02  0.87764153775E+02  0.12738185622E+03  0.89047028963E+02 0.  0.
          5    1    3    3  502    0 -0.38659531797E+02 -0.37268803043E+02  0.81443840818E+02  0.97642688852E+02  0.41800000000E+01 0.  1.
         -5    1    3    3    0  502  0.51882249827E+02  0.16790107580E+02  0.28846561959E+03  0.29360443056E+03  0.41800000000E+01 0.  1.
        -11    1    4    4    0    0 -0.36411413290E+02 -0.50533972012E+01  0.42246554986E+01  0.37002372291E+02  0.00000000000E+00 0.  1.
         11    1    4    4    0    0  0.23188695261E+02  0.25532092664E+02  0.83539498276E+02  0.90379483933E+02  0.00000000000E+00 0. -1.
</event>
<event>
 8    1  0.6834011E-009  0.2401089E+03  0.7561462E-02  0.1119720E+00
         -1   -1    0    0    0  501 -0.00000000000E+00  0.00000000000E+00  0.34922719452E+02  0.34922719452E+02  0.00000000000E+00 0.  1.
          1   -1    0    0  501    0  0.00000000000E+00 -0.00000000000E+00 -0.19512183524E+04  0.19512183524E+04  0.00000000000E+00 0. -1.
         25    2    1    2    0    0  0.27106387860E+02 -0.23260542162E+03 -0.84679705154E+03  0.88744173942E+03  0.12509019120E+03 0.  0.
         23    2    1    2    0    0 -0.27106387860E+02  0.23260542162E+03 -0.10694985814E+04  0.10986993324E+04  0.92048731770E+02 0.  0.
          5    1    3    3  502    0  0.32454422973E+02 -0.11846302003E+03 -0.23651354224E+03  0.26653874905E+03  0.41800000000E+01 0.  1.
         -5    1    3    3    0  502 -0.53480351123E+01 -0.11414240160E+03 -0.61028350930E+03  0.62090299037E+03  0.41800000000E+01 0.  1.
        -11    1    4    4    0    0  0.18019153074E+02  0.12497005690E+03 -0.41167943194E+03  0.43060673436E+03  0.00000000000E+00 0.  1.
         11    1    4    4    0    0 -0.45125540934E+02  0.10763536473E+03 -0.65781914944E+03  0.66809259804E+03  0.00000000000E+00 0. -1.
</event>
<event>
 8    1  0.6834011E-009  0.1944451E+03  0.7561462E-02  0.1154512E+00
         -2   -1    0    0    0  501 -0.00000000000E+00  0.00000000000E+00  0.87073914322E+03  0.87073914322E+03  0.00000000000E+00 0.  1.
          2   -1    0    0  501    0  0.00000000000E+00 -0.00000000000E+00 -0.45360904745E+02  0.45360904745E+02  0.00000000000E+00 0. -1.
         25    2    1    2    0    0 -0.12525718197E+03  0.10779009182E+03  0.37931109000E+03  0.43224209913E+03  0.12509302034E+03 0.  0.
         23    2    1    2    0    0  0.12525718197E+03 -0.10779009182E+03  0.44606714847E+03  0.48385794883E+03  0.88512983060E+02 0.  0.
          5    1    3    3  502    0 -0.70202840634E+02  0.12959985864E+03  0.25730524394E+03  0.29656031958E+03  0.41800000000E+01 0.  1.
         -5    1    3    3    0  502 -0.55054341334E+02 -0.21809766827E+02  0.12200584606E+03  0.13568177955E+03  0.41800000000E+01 0.  1.
        -11    1    4    4    0    0  0.11488040592E+03 -0.53367657425E+02  0.35865610188E+03  0.38036799805E+03  0.00000000000E+00 0. -1.
         11    1    4    4    0    0  0.10376776047E+02 -0.54422434390E+02  0.87411046593E+02  0.10348995078E+03  0.00000000000E+00 0.  1.
</event>
<event>
 8    1  0.6834011E-009  0.8079110E+02  0.7561462E-02  0.1326821E+00
          2   -1    0    0  501    0  0.00000000000E+00  0.00000000000E+00  0.57206258271E+03  0.57206258271E+03  0.00000000000E+00 0. -1.
         -2   -1    0    0    0  501 -0.00000000000E+00 -0.00000000000E+00 -0.40447376856E+02  0.40447376856E+02  0.00000000000E+00 0.  1.
         25    2    1    2    0    0  0.60309868720E+02 -0.12682669702E+02  0.46186386259E+03  0.48245625477E+03  0.12509068642E+03 0.  0.
         23    2    1    2    0    0 -0.60309868720E+02  0.12682669702E+02  0.69751343260E+02  0.13005370479E+03  0.90832735654E+02 0.  0.
          5    1    3    3  502    0  0.42827310332E+02  0.28822960881E+01  0.36702937229E+02  0.56630946860E+02  0.41800000000E+01 0.  1.
         -5    1    3    3    0  502  0.17482558388E+02 -0.15564965790E+02  0.42516092536E+03  0.42582530791E+03  0.41800000000E+01 0.  1.
        -11    1    4    4    0    0 -0.24835864392E+02  0.41908355761E+02  0.68523372976E+02  0.84074865962E+02  0.00000000000E+00 0. -1.
         11    1    4    4    0    0 -0.35474004328E+02 -0.29225686058E+02  0.12279702848E+01  0.45978838825E+02  0.00000000000E+00 0.  1.
</event>
<event>
 8    1  0.6834011E-009  0.9261942E+02  0.7561462E-02  0.1296630E+00
         -1   -1    0    0    0  501 -0.00000000000E+00  0.00000000000E+00  0.45030710514E+03  0.45030710514E+03  0.00000000000E+00 0.  1.
          1   -1    0    0  501    0  0.00000000000E+00 -0.00000000000E+00 -0.50419470192E+02  0.50419470192E+02  0.00000000000E+00 0. -1.
         25    2    1    2    0    0 -0.23338005730E+02  0.74595541415E+02  0.10121607706E+03  0.17889468314E+03  0.12509778611E+03 0.  0.
         23    2    1    2    0    0  0.23338005730E+02 -0.74595541415E+02  0.29867155789E+03  0.32183189219E+03  0.90895049548E+02 0.  0.
          5    1    3    3  502    0  0.14024295012E+02  0.19890480568E+01  0.95823045653E+02  0.96954451373E+02  0.41800000000E+01 0.  1.
         -5    1    3    3    0  502 -0.37362300742E+02  0.72606493358E+02  0.53930314118E+01  0.81940231769E+02  0.41800000000E+01 0.  1.
        -11    1    4    4    0    0  0.11477652215E+02  0.16053363396E+01 -0.17045857479E+01  0.11714060683E+02  0.00000000000E+00 0. -1.
         11    1    4    4    0    0  0.11860353515E+02 -0.76200877755E+02  0.30037614363E+03  0.31011783151E+03  0.00000000000E+00 0.  1.
</event>
<event>
 8    1  0.6834011E-009  0.9936093E+02  0.7561462E-02  0.1281646E+00
         -2   -1    0    0    0  501 -0.00000000000E+00  0.00000000000E+00  0.18636133719E+03  0.18636133719E+03  0.00000000000E+00 0. -1.
          2   -1    0    0  501    0  0.00000000000E+00 -0.00000000000E+00 -0.10377469595E+03  0.10377469595E+03  0.00000000000E+00 0.  1.
         25    2    1    2    0    0  0.54098594499E+02  0.28919706269E+02 -0.18731191398E+02  0.14057519355E+03  0.12509004826E+03 0.  0.
         23    2    1    2    0    0 -0.54098594499E+02 -0.28919706269E+02  0.10131783264E+03  0.14956083959E+03  0.91324335147E+02 0.  0.
          5    1    3    3  502    0  0.37681196882E+02 -0.26388501260E+02 -0.55366527637E+02  0.72105134212E+02  0.41800000000E+01 0. -1.
         -5    1    3    3    0  502  0.16417397616E+02  0.55308207529E+02  0.36635336239E+02  0.68470059339E+02  0.41800000000E+01 0. -1.
        -11    1    4    4    0    0 -0.34300021946E+02 -0.53235491930E+02  0.26896950017E+02  0.68803742825E+02  0.00000000000E+00 0.  1.
         11    1    4    4    0    0 -0.19798572552E+02  0.24315785661E+02  0.74420882618E+02  0.80757096760E+02  0.00000000000E+00 0. -1.
</event>
<event>
 8    1  0.6834011E-009  0.1391320E+03  0.7561462E-02  0.1214502E+00
          2   -1    0    0  501    0  0.00000000000E+00  0.00000000000E+00  0.24356371683E+03  0.24356371683E+03  0.00000000000E+00 0.  1.
         -2   -1    0    0    0  501 -0.00000000000E+00 -0.00000000000E+00 -0.17335156241E+03  0.17335156241E+03  0.00000000000E+00 0. -1.
         25    2    1    2    0    0  0.93730109917E+02 -0.88871520011E+02 -0.81673217068E+02  0.19749063568E+03  0.12509418940E+03 0.  0.
         23    2    1    2    0    0 -0.93730109917E+02  0.88871520011E+02  0.15188537148E+03  0.21942464356E+03  0.91621654420E+02 0.  0.
          5    1    3    3  502    0  0.73879541404E+02 -0.39615484847E+02 -0.10903889447E+03  0.13760278407E+03  0.41800000000E+01 0. -1.
         -5    1    3    3    0  502  0.19850568513E+02 -0.49256035164E+02  0.27365677400E+02  0.59887851606E+02  0.41800000000E+01 0. -1.
        -11    1    4    4    0    0 -0.71077781979E+02  0.28501268546E+02  0.31392990373E+02  0.82764081849E+02  0.00000000000E+00 0. -1.
         11    1    4    4    0    0 -0.22652327938E+02  0.60370251465E+02  0.12049238111E+03  0.13666056171E+03  0.00000000000E+00 0.  1.
</event>
<event>
 8    1  0.6834011E-009  0.1136077E+03  0.7561462E-02  0.1254031E+00
          2   -1    0    0  501    0  0.00000000000E+00  0.00000000000E+00  0.17002807526E+03  0.17002807526E+03  0.00000000000E+00 0. -1.
         -2   -1    0    0    0  501 -0.00000000000E+00 -0.00000000000E+00 -0.11081856219E+03  0.11081856219E+03  0.00000000000E+00 0.  1.
         25    2    1    2    0    0  0.18802851404E+02 -0.79594618786E+02  0.47916334229E+02  0.15695118549E+03  0.12509535954E+03 0.  0.
         23    2    1    2    0    0 -0.18802851404E+02  0.79594618786E+02  0.11293178841E+02  0.12389545197E+03  0.92378009128E+02 0.  0.
          5    1    3    3  502    0  0.62447445912E+02 -0.62735545903E+02 -0.16907039783E+01  0.88632742824E+02  0.41800000000E+01 0. -1.
         -5    1    3    3    0  502 -0.43644594508E+02 -0.16859072884E+02  0.49607038207E+02  0.68318442663E+02  0.41800000000E+01 0. -1.
        -11    1    4    4    0    0  0.12616651566E+02  0.33890212758E+02 -0.35985455368E+02  0.51016462202E+02  0.00000000000E+00 0.  1.
         11    1    4    4    0    0 -0.31419502970E+02  0.45704406028E+02  0.47278634210E+02  0.72878989770E+02  0.00000000000E+00 0. -1.
</event>
<event>
 8    1  0.6834011E-009  0.1104969E+03  0.7561462E-02  0.1259653E+00
          1   -1    0    0  501    0  0.00000000000E+00  0.00000000000E+00  0.38745222099E+02  0.38745222099E+02  0.00000000000E+00 0. -1.
         -1   -1    0    0    0  501 -0.00000000000E+00 -0.00000000000E+00 -0.46056609636E+03  0.46056609636E+03  0.00000000000E+00 0.  1.
         25    2    1    2    0    0  0.61417151784E+02 -0.47038176000E+02 -0.24888828071E+03  0.28909809413E+03  0.12509066800E+03 0.  0.
         23    2    1    2    0    0 -0.61417151784E+02  0.47038176000E+02 -0.17293259355E+03  0.21021322433E+03  0.91100281204E+02 0.  0.
          5    1    3    3  502    0  0.42451720142E+01  0.15566840871E+02  0.80434586638E+01  0.18507232300E+02  0.41800000000E+01 0. -1.
         -5    1    3    3    0  502  0.57171979770E+02 -0.62605016871E+02 -0.25693173937E+03  0.27059086183E+03  0.41800000000E+01 0. -1.
        -11    1    4    4    0    0 -0.80988894120E+02  0.15705653252E+02 -0.12283909727E+03  0.14797064686E+03  0.00000000000E+00 0. -1.
         11    1    4    4    0    0  0.19571742336E+02  0.31332522748E+02 -0.50093496282E+02  0.62242577466E+02  0.00000000000E+00 0.  1.
</event>
<event>
 8    1  0.6834011E-009  0.1186216E+03  0.7561462E-02  0.1245388E+00
         -1   -1    0    0    0  501 -0.00000000000E+00  0.00000000000E+00  0.38213156952E+02  0.38213156952E+02  0.00000000000E+00 0.  1.
          1   -1    0    0  501    0  0.00000000000E+00 -0.00000000000E+00 -0.40039539913E+03  0.40039539913E+03  0.00000000000E+00 0. -1.
         25    2    1    2    0    0 -0.50657648075E+02  0.30849176484E+02 -0.19987331737E+03  0.24313680399E+03  0.12509313913E+03 0.  0.
         23    2    1    2    0    0  0.50657648075E+02 -0.30849176484E+02 -0.16230892481E+03  0.19547175209E+03  0.91362737459E+02 0.  0.
          5    1    3    3  502    0 -0.87733569853E+02  0.42934494372E+02 -0.15769722979E+03  0.18554363037E+03  0.41800000000E+01 0.  1.
         -5    1    3    3    0  502  0.37075921778E+02 -0.12085317888E+02 -0.42176087578E+02  0.57593173619E+02  0.41800000000E+01 0.  1.
        -11    1    4    4    0    0  0.46335519130E+02 -0.57167839693E+02 -0.14780863218E+03  0.16511370015E+03  0.00000000000E+00 0. -1.
         11    1    4    4    0    0  0.43221289446E+01  0.26318663209E+02 -0.14500292621E+02  0.30358051944E+02  0.00000000000E+00 0.  1.
</event>
<event>
 8    1  0.6834011E-009  0.1035830E+03  0.7561462E-02  0.1272937E+00
          1   -1    0    0  501    0  0.00000000000E+00  0.00000000000E+00  0.11124118155E+02  0.11124118155E+02  0.00000000000E+00 0. -1.
         -1   -1    0    0    0  501 -0.00000000000E+00 -0.00000000000E+00 -0.10736609659E+04  0.10736609659E+04  0.00000000000E+00 0.  1.
         25    2    1    2    0    0  0.14668340725E+02  0.41806012022E+01 -0.64180838128E+03  0.65406013966E+03  0.12507609830E+03 0.  0.
         23    2    1    2    0    0 -0.14668340725E+02 -0.41806012022E+01 -0.42072846645E+03  0.43072494438E+03  0.90988447528E+02 0.  0.
          5    1    3    3  502    0 -0.30344583952E+02  0.44832471456E+02 -0.17285899169E+03  0.18118622376E+03  0.41800000000E+01 0. -1.
         -5    1    3    3    0  502  0.45012924677E+02 -0.40651870254E+02 -0.46894938959E+03  0.47287391590E+03  0.41800000000E+01 0. -1.
        -11    1    4    4    0    0 -0.19800429315E+02 -0.45925926514E+02 -0.21484768318E+03  0.22059187359E+03  0.00000000000E+00 0.  1.
         11    1    4    4    0    0  0.51320885905E+01  0.41745325312E+02 -0.20588078327E+03  0.21013307079E+03  0.00000000000E+00 0. -1.
</event>
<event>
 8    1  0.6834011E-009  0.2743186E+03  0.7561462E-02  0.1098833E+00
          2   -1    0    0  501    0  0.00000000000E+00  0.00000000000E+00  0.38287843946E+03  0.38287843946E+03  0.00000000000E+00 0. -1.
         -2   -1    0    0    0  501 -0.00000000000E+00 -0.00000000000E+00 -0.20780062377E+03  0.20780062377E+03  0.00000000000E+00 0.  1.
         25    2    1    2    0    0 -0.24132106435E+03 -0.90941305487E+02  0.12238945341E+03  0.31166460575E+03  0.12509784583E+03 0.  0.
         23    2    1    2    0    0  0.24132106435E+03  0.90941305487E+02  0.52688362281E+02  0.27901445748E+03  0.92557154351E+02 0.  0.
          5    1    3    3  502    0 -0.18113159440E+03 -0.11034496321E+03  0.12845431144E+03  0.24799727403E+03  0.41800000000E+01 0.  1.
         -5    1    3    3    0  502 -0.60189469950E+02  0.19403657727E+02 -0.60648580343E+01  0.63667331726E+02  0.41800000000E+01 0.  1.
        -11    1    4    4    0    0  0.21210657457E+03  0.42151033313E+02  0.50667123747E+02  0.22211048155E+03  0.00000000000E+00 0.  1.
         11    1    4    4    0    0  0.29214489782E+02  0.48790272174E+02  0.20212385341E+01  0.56903975935E+02  0.00000000000E+00 0. -1.
</event>
<event>
 8    1  0.6834011E-009  0.1235940E+03  0.7561462E-02  0.1237283E+00
         -3   -1    0    0    0  501 -0.00000000000E+00  0.00000000000E+00  0.29455302286E+03  0.29455302286E+03  0.00000000000E+00 0. -1.
          3   -1    0    0  501    0  0.00000000000E+00 -0.00000000000E+00 -0.10068619046E+03  0.10068619046E+03  0.00000000000E+00 0.  1.
         25    2    1    2    0    0 -0.11749073824E+03  0.12121003537E+02  0.31364260927E+02  0.17487770227E+03  0.12508997397E+03 0.  0.
         23    2    1    2    0    0  0.11749073824E+03 -0.12121003537E+02  0.16250257147E+03  0.22036151106E+03  0.90560021644E+02 0.  0.
          5    1    3    3  502    0 -0.71634893415E+02  0.28309374412E+01 -0.45343505158E+02  0.84929841760E+02  0.41800000000E+01 0. -1.
         -5    1    3    3    0  502 -0.45855844828E+02  0.92900660958E+01  0.76707766085E+02  0.89947860512E+02  0.41800000000E+01 0. -1.
        -11    1    4    4    0    0  0.33591980324E+02  0.19382965229E+02  0.49415024563E+01  0.39096533474E+02  0.00000000000E+00 0.  1.
         11    1    4    4    0    0  0.83898757919E+02 -0.31503968766E+02  0.15756106902E+03  0.18126497758E+03  0.00000000000E+00 0. -1.
</event>
<event>
 8    1  0.6834011E-009  0.1439671E+03  0.7561462E-02  0.1208088E+00
          2   -1    0    0  501    0  0.00000000000E+00  0.00000000000E+00  0.72608877742E+03  0.72608877742E+03  0.00000000000E+00 0. -1.
         -2   -1    0    0    0  501 -0.00000000000E+00 -0.00000000000E+00 -0.38993190341E+02  0.38993190341E+02  0.00000000000E+00 0.  1.
         25    2    1    2    0    0  0.86738849042E+02 -0.74402488490E+02  0.48843029027E+03  0.51697824536E+03  0.12507197726E+03 0.  0.
         23    2    1    2    0    0 -0.86738849042E+02  0.74402488490E+02  0.19866529681E+03  0.24810372240E+03  0.95016833698E+02 0.  0.
          5    1    3    3  502    0 -0.20968311240E+02 -0.18293225021E+02  0.24220848421E+02  0.37127268364E+02  0.41800000000E+01 0.  1.
         -5    1    3    3    0  502  0.10770716028E+03 -0.56109263469E+02  0.46420944185E+03  0.47985097700E+03  0.41800000000E+01 0.  1.
        -11    1    4    4    0    0 -0.97518425435E+02  0.45852133418E+02  0.10852547442E+03  0.15293802678E+03  0.00000000000E+00 0.  1.
         11    1    4    4    0    0  0.10779576393E+02  0.28550355072E+02  0.90139822387E+02  0.95165695616E+02  0.00000000000E+00 0. -1.
</event>
<event>
 8    1  0.6834011E-009  0.1043303E+03  0.7561462E-02  0.1271445E+00
          2   -1    0    0  501    0  0.00000000000E+00  0.00000000000E+00  0.13760327117E+03  0.13760327117E+03  0.00000000000E+00 0. -1.
         -2   -1    0    0    0  501 -0.00000000000E+00 -0.00000000000E+00 -0.16486252871E+03  0.16486252871E+03  0.00000000000E+00 0.  1.
         25    2    1    2    0    0  0.74820110093E+02 -0.49291496687E+02  0.35607135832E+02  0.15793472161E+03  0.12509119732E+03 0.  0.
         23    2    1    2    0    0 -0.74820110093E+02  0.49291496687E+02 -0.62866393373E+02  0.14453107827E+03  0.94389346058E+02 0.  0.
          5    1    3    3  502    0  0.72117838794E+02 -0.14474005695E+02  0.74994741586E+02  0.10512926890E+03  0.41800000000E+01 0. -1.
         -5    1    3    3    0  502  0.27022712995E+01 -0.34817490992E+02 -0.39387605754E+02  0.52805452713E+02  0.41800000000E+01 0. -1.
        -11    1    4    4    0    0 -0.23212292214E+02  0.41598225460E+02  0.15752033159E+02  0.50173194237E+02  0.00000000000E+00 0. -1.
         11    1    4    4    0    0 -0.51607817879E+02  0.76932712271E+01 -0.78618426531E+02  0.94357884030E+02  0.00000000000E+00 0.  1.
</event>
<event>
 8    1  0.6834011E-009  0.1254603E+03  0.7561462E-02  0.1234352E+00
          2   -1    0    0  501    0  0.00000000000E+00  0.00000000000E+00  0.19094168436E+04  0.19094168436E+04  0.00000000000E+00 0. -1.
         -2   -1    0    0    0  501 -0.00000000000E+00 -0.00000000000E+00 -0.11217939928E+02  0.11217939928E+02  0.00000000000E+00 0.  1.
         25    2    1    2    0    0  0.69470393230E+02 -0.61945881733E+01  0.14892313428E+04  0.14961017580E+04  0.12508384890E+03 0.  0.
         23    2    1    2    0    0 -0.69470393230E+02  0.61945881733E+01  0.40896756079E+03  0.42453302551E+03  0.90051737985E+02 0.  0.
          5    1    3    3  502    0 -0.31486014651E+02  0.14420395336E+02  0.22696749009E+03  0.22963238204E+03  0.41800000000E+01 0. -1.
         -5    1    3    3    0  502  0.10095640788E+03 -0.20614983509E+02  0.12622638527E+04  0.12664693759E+04  0.41800000000E+01 0. -1.
        -11    1    4    4    0    0 -0.20362322937E+02  0.45606813421E+02  0.20903829212E+03  0.21492234225E+03  0.00000000000E+00 0.  1.
         11    1    4    4    0    0 -0.49108070293E+02 -0.39412225248E+02  0.19992926867E+03  0.20961068326E+03  0.00000000000E+00 0. -1.
</event>
<event>
 8    1  0.6834011E-009  0.1303240E+03  0.7561462E-02  0.1226976E+00
         -1   -1    0    0    0  501 -0.00000000000E+00  0.00000000000E+00  0.19005655252E+03  0.19005655252E+03  0.00000000000E+00 0.  1.
          1   -1    0    0  501    0  0.00000000000E+00 -0.00000000000E+00 -0.11866632827E+03  0.11866632827E+03  0.00000000000E+00 0. -1.
         25    2    1    2    0    0 -0.41880229128E+02 -0.97470604070E+02  0.32190389373E+02  0.16714698516E+03  0.12508965277E+03 0.  0.
         23    2    1    2    0    0  0.41880229128E+02  0.97470604070E+02  0.39199834876E+02  0.14157589562E+03  0.85162403190E+02 0.  0.
          5    1    3    3  502    0 -0.67459894135E+01  0.21189617436E+02  0.36843217822E+02  0.43236597458E+02  0.41800000000E+01 0.  1.
         -5    1    3    3    0  502 -0.35134239714E+02 -0.11866022151E+03 -0.46528284487E+01  0.12391038770E+03  0.41800000000E+01 0.  1.
        -11    1    4    4    0    0  0.32782881966E+02  0.25179259840E+02  0.53209990951E+02  0.67379637971E+02  0.00000000000E+00 0.  1.
         11    1    4    4    0    0  0.90973471620E+01  0.72291344230E+02 -0.14010156076E+02  0.74196257650E+02  0.00000000000E+00 0. -1.
</event>
<event>
 8    1  0.6834011E-009  0.9015307E+02  0.7561462E-02  0.1302481E+00
         -3   -1    0    0    0  501 -0.00000000000E+00  0.00000000000E+00  0.11743510632E+03  0.11743510632E+03  0.00000000000E+00 0.  1.
          3   -1    0    0  501    0  0.00000000000E+00 -0.00000000000E+00 -0.11790074853E+03  0.11790074853E+03  0.00000000000E+00 0. -1.
         25    2    1    2    0    0  0.11267989032E+02  0.31650880121E+02  0.26233125546E+02  0.13215706276E+03  0.12509423077E+03 0.  0.
         23    2    1    2    0    0 -0.11267989032E+02 -0.31650880121E+02 -0.26698767758E+02  0.10317879209E+03  0.93831194961E+02 0.  0.
          5    1    3    3  502    0  0.54009238411E+02  0.14897538851E+02 -0.26498270002E+02  0.62117350319E+02  0.41800000000E+01 0. -1.
         -5    1    3    3    0  502 -0.42741249379E+02  0.16753341270E+02  0.52731395548E+02  0.70039712440E+02  0.41800000000E+01 0. -1.
        -11    1    4    4    0    0 -0.16235859548E+02  0.20212691078E+02  0.20365259156E+02  0.32968163375E+02  0.00000000000E+00 0.  1.
         11    1    4    4    0    0  0.49678705155E+01 -0.51863571199E+02 -0.47064026914E+02  0.70210628714E+02  0.00000000000E+00 0. -1.
</event>
<event>
 8    1  0.6834011E-009  0.1204211E+03  0.7561462E-02  0.1242404E+00
         -3   -1    0    0    0  501 -0.00000000000E+00  0.00000000000E+00  0.54134682923E+02  0.54134682923E+02  0.00000000000E+00 0. -1.
          3   -1    0    0  501    0  0.00000000000E+00 -0.00000000000E+00 -0.35123678812E+03  0.35123678812E+03  0.00000000000E+00 0.  1.
         25    2    1    2    0    0  0.67541151365E+01  0.72259253960E+02 -0.22692500695E+03  0.26909103691E+03  0.12509200419E+03 0.  0.
         23    2    1    2    0    0 -0.67541151365E+01 -0.72259253960E+02 -0.70177098241E+02  0.13628043413E+03  0.91545145990E+02 0.  0.
          5    1    3    3  502    0  0.53692773685E+01 -0.26978132413E+02 -0.11983902846E+03  0.12302647646E+03  0.41800000000E+01 0. -1.
         -5    1    3    3    0  502  0.13848377680E+01  0.99237386373E+02 -0.10708597849E+03  0.14606456045E+03  0.41800000000E+01 0. -1.
        -11    1    4    4    0    0 -0.15248472598E+02  0.17678501424E+02 -0.28360133263E+02  0.36733397445E+02  0.00000000000E+00 0.  1.
         11    1    4    4    0    0  0.84943574616E+01 -0.89937755385E+02 -0.41816964978E+02  0.99547036683E+02  0.00000000000E+00 0. -1.
</event>
<event>
 8    1  0.6834011E-009  0.4474308E+02  0.7561462E-02  0.1475952E+00
          1   -1    0    0  501    0  0.00000000000E+00  0.00000000000E+00  0.22588070725E+03  0.22588070725E+03  0.00000000000E+00 0. -1.
         -1   -1    0    0    0  501 -0.00000000000E+00 -0.00000000000E+00 -0.62362013325E+02  0.62362013325E+02  0.00000000000E+00 0.  1.
         25    2    1    2    0    0  0.17433937200E+02 -0.59895309777E+01  0.14586039952E+03  0.19303357887E+03  0.12508752845E+03 0.  0.
         23    2    1    2    0    0 -0.17433937200E+02  0.59895309777E+01  0.17658294403E+02  0.95209141705E+02  0.91723217646E+02 0.  0.
          5    1    3    3  502    0  0.25145684358E+02 -0.26079660526E+02  0.16184519255E+03  0.16590296226E+03  0.41800000000E+01 0. -1.
         -5    1    3    3    0  502 -0.77117471580E+01  0.20090129549E+02 -0.15984793028E+02  0.27130616610E+02  0.41800000000E+01 0. -1.
        -11    1    4    4    0    0 -0.10322750404E+02 -0.95148928692E+01  0.53609163243E+02  0.55416917505E+02  0.00000000000E+00 0. -1.
         11    1    4    4    0    0 -0.71111867960E+01  0.15504423847E+02 -0.35950868839E+02  0.39792224200E+02  0.00000000000E+00 0.  1.
</event>
<event>
 8    1  0.6834011E-009  0.1077626E+03  0.7561462E-02  0.1264770E+00
          3   -1    0    0  501    0  0.00000000000E+00  0.00000000000E+00  0.13459137342E+02  0.13459137342E+02  0.00000000000E+00 0. -1.
         -3   -1    0    0    0  501 -0.00000000000E+00 -0.00000000000E+00 -0.95282228866E+03  0.95282228866E+03  0.00000000000E+00 0.  1.
         25    2    1    2    0    0 -0.18501147303E+02  0.24468992533E+02 -0.58031972928E+03  0.59443998005E+03  0.12508747997E+03 0.  0.
         23    2    1    2    0    0  0.18501147303E+02 -0.24468992533E+02 -0.35904342203E+03  0.37184144594E+03  0.91721633056E+02 0.  0.
          5    1    3    3  502    0 -0.37969316552E+02  0.66549662958E+02 -0.43883132608E+03  0.44548954172E+03  0.41800000000E+01 0.  1.
         -5    1    3    3    0  502  0.19468169248E+02 -0.42080670425E+02 -0.14148840321E+03  0.14895043833E+03  0.41800000000E+01 0.  1.
        -11    1    4    4    0    0 -0.31177252160E+02 -0.28705042103E+02 -0.11053357622E+03  0.11837935616E+03  0.00000000000E+00 0. -1.
         11    1    4    4    0    0  0.49678399463E+02  0.42360495694E+01 -0.24850984581E+03  0.25346208978E+03  0.00000000000E+00 0.  1.
</event>
<event>
 8    1  0.6834011E-009  0.1309842E+03  0.7561462E-02  0.1226003E+00
         -1   -1    0    0    0  501 -0.00000000000E+00  0.00000000000E+00  0.17741876514E+03  0.17741876514E+03  0.00000000000E+00 0.  1.
          1   -1    0    0  501    0  0.00000000000E+00 -0.00000000000E+00 -0.16900640375E+03  0.16900640375E+03  0.00000000000E+00 0. -1.
         25    2    1    2    0    0 -0.84378902218E+02  0.80097926748E+02  0.71337643045E+02  0.18512649307E+03  0.12508909670E+03 0.  0.
         23    2    1    2    0    0  0.84378902218E+02 -0.80097926748E+02 -0.62925281659E+02  0.16129867582E+03  0.92315733985E+02 0.  0.
          5    1    3    3  502    0 -0.82255320305E+02  0.20711433245E+02  0.88974404356E+02  0.12299926104E+03  0.41800000000E+01 0. -1.
         -5    1    3    3    0  502 -0.21235819136E+01  0.59386493503E+02 -0.17636761311E+02  0.62127232034E+02  0.41800000000E+01 0. -1.
        -11    1    4    4    0    0  0.19179993304E+02 -0.28368050041E+02  0.23331008851E+02  0.41436148232E+02  0.00000000000E+00 0.  1.
         11    1    4    4    0    0  0.65198908914E+02 -0.51729876707E+02 -0.86256290510E+02  0.11986252759E+03  0.00000000000E+00 0. -1.
</event>
<event>
 8    1  0.6834011E-009  0.1044461E+03  0.7561462E-02  0.1271215E+00
         -1   -1    0    0    0  501 -0.00000000000E+00  0.00000000000E+00  0.75847446728E+03  0.75847446728E+03  0.00000000000E+00 0.  1.
          1   -1    0    0  501    0  0.00000000000E+00 -0.00000000000E+00 -0.16020790348E+02  0.16020790348E+02  0.00000000000E+00 0. -1.
         25    2    1    2    0    0 -0.52281953282E+01 -0.82902154797E+01  0.50944157108E+03  0.52466579609E+03  0.12508965402E+03 0.  0.
         23    2    1    2    0    0  0.52281953282E+01  0.82902154797E+01  0.23301210585E+03  0.24982946154E+03  0.89577099081E+02 0.  0.
          5    1    3    3  502    0 -0.39457917741E+01 -0.65562558156E+02  0.32044145947E+03  0.32713027933E+03  0.41800000000E+01 0.  1.
         -5    1    3    3    0  502 -0.12824035542E+01  0.57272342676E+02  0.18900011161E+03  0.19753551677E+03  0.41800000000E+01 0.  1.
        -11    1    4    4    0    0 -0.36957006821E+02 -0.11961730590E+02  0.68024313528E+02  0.78333968257E+02  0.00000000000E+00 0.  1.
         11    1    4    4    0    0  0.42185202149E+02  0.20251946070E+02  0.16498779232E+03  0.17149549328E+03  0.00000000000E+00 0. -1.
</event>
<event>
 8    1  0.6834011E-009  0.1504561E+03  0.7561462E-02  0.1199914E+00
         -1   -1    0    0    0  501 -0.00000000000E+00  0.00000000000E+00  0.10133175963E+03  0.10133175963E+03  0.00000000000E+00 0.  1.
          1   -1    0    0  501    0  0.00000000000E+00 -0.00000000000E+00 -0.41276713023E+03  0.41276713023E+03  0.00000000000E+00 0. -1.
         25    2    1    2    0    0  0.71507851192E+02 -0.89167559754E+02 -0.32555403223E+03  0.36701160405E+03  0.12509141901E+03 0.  0.
         23    2    1    2    0    0 -0.71507851192E+02  0.89167559754E+02  0.14118661628E+02  0.14708728581E+03  0.91493751401E+02 0.  0.
          5    1    3    3  502    0  0.97334838141E+02 -0.55289036653E+02 -0.15546362643E+03  0.19161774405E+03  0.41800000000E+01 0.  1.
         -5    1    3    3    0  502 -0.25826986949E+02 -0.33878523102E+02 -0.17009040580E+03  0.17539386000E+03  0.41800000000E+01 0.  1.
        -11    1    4    4    0    0  0.76740210923E+01 -0.14042580398E+02  0.46188965426E+01  0.16655895930E+02  0.00000000000E+00 0. -1.
         11    1    4    4    0    0 -0.79181872284E+02  0.10321014015E+03  0.94997650859E+01  0.13043138988E+03  0.00000000000E+00 0.  1.
</event>
<event>
 8    1  0.6834011E-009  0.9167625E+02  0.7561462E-02  0.1298842E+00
          2   -1    0    0  501    0  0.00000000000E+00  0.00000000000E+00  0.69344747067E+03  0.69344747067E+03  0.00000000000E+00 0.  1.
         -2   -1    0    0    0  501 -0.00000000000E+00 -0.00000000000E+00 -0.30731949404E+02  0.30731949404E+02  0.00000000000E+00 0. -1.
         25    2    1    2    0    0  0.18224778213E+01  0.62583287176E+02  0.54867452656E+03  0.56622519004E+03  0.12508893029E+03 0.  0.
         23    2    1    2    0    0 -0.18224778213E+01 -0.62583287176E+02  0.11404099471E+03  0.15795423004E+03  0.89577904939E+02 0.  0.
          5    1    3    3  502    0  0.20074145444E+02  0.24506166098E+02  0.24316929677E+02  0.40153567227E+02  0.41800000000E+01 0.  1.
         -5    1    3    3    0  502 -0.18251667622E+02  0.38077121078E+02  0.52435759688E+03  0.52607162281E+03  0.41800000000E+01 0.  1.
        -11    1    4    4    0    0  0.43601630784E+02 -0.27215904933E+02  0.59857653985E+02  0.78897062233E+02  0.00000000000E+00 0.  1.
         11    1    4    4    0    0 -0.45424108605E+02 -0.35367382243E+02  0.54183340727E+02  0.79057167806E+02  0.00000000000E+00 0. -1.
</event>
<event>
 8    1  0.6834011E-009  0.1248884E+03  0.7561462E-02  0.1235244E+00
         -2   -1    0    0    0  501 -0.00000000000E+00  0.00000000000E+00  0.19897704517E+02  0.19897704517E+02  0.00000000000E+00 0.  1.
          2   -1    0    0  501    0  0.00000000000E+00 -0.00000000000E+00 -0.95159291591E+03  0.95159291591E+03  0.00000000000E+00 0. -1.
         25    2    1    2    0    0  0.65871758429E+02  0.36039334709E+02 -0.40819222022E+03  0.43348135091E+03  0.12508905122E+03 0.  0.
         23    2    1    2    0    0 -0.65871758429E+02 -0.36039334709E+02 -0.52350299117E+03  0.53800926951E+03  0.98796103730E+02 0.  0.
          5    1    3    3  502    0  0.86078823874E+02  0.51076498952E+02 -0.38858011531E+03  0.40128587202E+03  0.41800000000E+01 0.  1.
         -5    1    3    3    0  502 -0.20207065445E+02 -0.15037164243E+02 -0.19612104909E+02  0.32195478896E+02  0.41800000000E+01 0.  1.
        -11    1    4    4    0    0  0.35849877209E+01 -0.52550693009E+02 -0.21684064155E+03  0.22314634503E+03  0.00000000000E+00 0. -1.
         11    1    4    4    0    0 -0.69456746150E+02  0.16511358300E+02 -0.30666234962E+03  0.31486292448E+03  0.00000000000E+00 0.  1.
</event>
<event>
 8    1  0.6834011E-009  0.6701802E+02  0.7561462E-02  0.1370537E+00
          2   -1    0    0  501    0  0.00000000000E+00  0.00000000000E+00  0.30562513944E+03  0.30562513944E+03  0.00000000000E+00 0. -1.
         -2   -1    0    0    0  501 -0.00000000000E+00 -0.00000000000E+00 -0.57150931710E+02  0.57150931710E+02  0.00000000000E+00 0.  1.
         25    2    1    2    0    0  0.40614116322E+02  0.40571865515E+01  0.23066594242E+03  0.26555653089E+03  0.12509007514E+03 0.  0.
         23    2    1    2    0    0 -0.40614116322E+02 -0.40571865515E+01  0.17808265315E+02  0.97219540268E+02  0.86420700581E+02 0.  0.
          5    1    3    3  502    0  0.51681539578E+01 -0.22787986066E+02 -0.61863281614E+01  0.24530494908E+02  0.41800000000E+01 0.  1.
         -5    1    3    3    0  502  0.35445962364E+02  0.26845172618E+02  0.23685227058E+03  0.24102603598E+03  0.41800000000E+01 0.  1.
        -11    1    4    4    0    0 -0.34837153317E+02  0.20492722241E+02  0.44760052523E+02  0.60307886864E+02  0.00000000000E+00 0. -1.
         11    1    4    4    0    0 -0.57769630052E+01 -0.24549908792E+02 -0.26951787208E+02  0.36911653404E+02  0.00000000000E+00 0.  1.
</event>
<event>
 8    1  0.6834011E-009  0.1221063E+03  0.7561462E-02  0.1239662E+00
         -2   -1    0    0    0  501 -0.00000000000E+00  0.00000000000E+00  0.84732268031E+02  0.84732268031E+02  0.00000000000E+00 0.  1.
          2   -1    0    0  501    0  0.00000000000E+00 -0.00000000000E+00 -0.19900364771E+03  0.19900364771E+03  0.00000000000E+00 0. -1.
         25    2    1    2    0    0  0.11038489379E+01  0.61616068063E+02 -0.22352849902E+02  0.14122549987E+03  0.12508890274E+03 0.  0.
         23    2    1    2    0    0 -0.11038489379E+01 -0.61616068063E+02 -0.91918529778E+02  0.14251041587E+03  0.89791114199E+02 0.  0.
          5    1    3    3  502    0 -0.56331320234E+02  0.87885534974E+01 -0.26412738379E+02  0.62972704091E+02  0.41800000000E+01 0.  1.
         -5    1    3    3    0  502  0.57435169172E+02  0.52827514566E+02  0.40598884768E+01  0.78252795780E+02  0.41800000000E+01 0.  1.
        -11    1    4    4    0    0  0.32978256933E+02 -0.66731434560E+02 -0.63472701606E+02  0.97823482037E+02  0.00000000000E+00 0.  1.
         11    1    4    4    0    0 -0.34082105871E+02  0.51153664969E+01 -0.28445828173E+02  0.44686933833E+02  0.00000000000E+00 0. -1.
</event>
<event>
 8    1  0.6834011E-009  0.1302149E+03  0.7561462E-02  0.1227137E+00
          2   -1    0    0  501    0  0.00000000000E+00  0.00000000000E+00  0.42628950835E+03  0.42628950835E+03  0.00000000000E+00 0.  1.
         -2   -1    0    0    0  501 -0.00000000000E+00 -0.00000000000E+00 -0.52036351597E+02  0.52036351597E+02  0.00000000000E+00 0. -1.
         25    2    1    2    0    0  0.32699878271E+02  0.95504044811E+02  0.18076591744E+03  0.24189654891E+03  0.12508924356E+03 0.  0.
         23    2    1    2    0    0 -0.32699878271E+02 -0.95504044811E+02  0.19348723932E+03  0.23642931104E+03  0.90946152886E+02 0.  0.
          5    1    3    3  502    0 -0.23562307040E+02  0.97560064196E+02  0.13978823591E+03  0.17213765346E+03  0.41800000000E+01 0. -1.
         -5    1    3    3    0  502  0.56262185311E+02 -0.20560193850E+01  0.40977681528E+02  0.69758895455E+02  0.41800000000E+01 0. -1.
        -11    1    4    4    0    0 -0.19975652863E+02 -0.25604739147E+02  0.14923366463E+03  0.15272627813E+03  0.00000000000E+00 0.  1.
         11    1    4    4    0    0 -0.12724225407E+02 -0.69899305664E+02  0.44253574689E+02  0.83703032904E+02  0.00000000000E+00 0. -1.
</event>
<event>
 8    1  0.6834011E-009  0.6160842E+02  0.7561462E-02  0.1391203E+00
         -2   -1    0    0    0  501 -0.00000000000E+00  0.00000000000E+00  0.26548342398E+03  0.26548342398E+03  0.00000000000E+00 0.  1.
          2   -1    0    0  501    0  0.00000000000E+00 -0.00000000000E+00 -0.57359033175E+02  0.57359033175E+02  0.00000000000E+00 0. -1.
         25    2    1    2    0    0  0.33359687895E+02 -0.43285975157E+02  0.13893274374E+03  0.19478004640E+03  0.12510161778E+03 0.  0.
         23    2    1    2    0    0 -0.33359687895E+02  0.43285975157E+02  0.69191647065E+02  0.12806241076E+03  0.92876006607E+02 0.  0.
          5    1    3    3  502    0  0.12579734454E+02 -0.68846069877E+01  0.15038745659E+03  0.15112745294E+03  0.41800000000E+01 0.  1.
         -5    1    3    3    0  502  0.20779953441E+02 -0.36401368169E+02 -0.11454712848E+02  0.43652593463E+02  0.41800000000E+01 0.  1.
        -11    1    4    4    0    0 -0.24030244770E+01  0.33649063277E+02  0.85395045604E+02  0.91816925454E+02  0.00000000000E+00 0.  1.
         11    1    4    4    0    0 -0.30956663418E+02  0.96369118797E+01 -0.16203398539E+02  0.36245485302E+02  0.00000000000E+00 0. -1.
</event>
<event>
 8    1  0.6834011E-009  0.1170251E+03  0.7561462E-02  0.1248087E+00
         -2   -1    0    0    0  501 -0.00000000000E+00  0.00000000000E+00  0.38101325142E+02  0.38101325142E+02  0.00000000000E+00 0.  1.
          2   -1    0    0  501    0  0.00000000000E+00 -0.00000000000E+00 -0.38699849237E+03  0.38699849237E+03  0.00000000000E+00 0. -1.
         25    2    1    2    0    0 -0.48258764384E+02  0.16651018958E+02 -0.16205356311E+03  0.21098550893E+03  0.12508941957E+03 0.  0.
         23    2    1    2    0    0  0.48258764384E+02 -0.16651018958E+02 -0.18684360412E+03  0.21411430859E+03  0.91259191145E+02 0.  0.
          5    1    3    3  502    0  0.38111299392E+02  0.22979816344E+02 -0.33210132639E+02  0.55685980376E+02  0.41800000000E+01 0. -1.
         -5    1    3    3    0  502 -0.86370063776E+02 -0.63287973856E+01 -0.12884343047E+03  0.15529952856E+03  0.41800000000E+01 0. -1.
        -11    1    4    4    0    0  0.61972661592E+02  0.18698494107E+02 -0.13667326436E+03  0.15122772780E+03  0.00000000000E+00 0. -1.
         11    1    4    4    0    0 -0.13713897207E+02 -0.35349513065E+02 -0.50170339762E+02  0.62886580781E+02  0.00000000000E+00 0.  1.
</event>
<event>
 8    1  0.6834011E-009  0.1619435E+03  0.7561462E-02  0.1186520E+00
          1   -1    0    0  501    0  0.00000000000E+00  0.00000000000E+00  0.47898300965E+03  0.47898300965E+03  0.00000000000E+00 0. -1.
         -1   -1    0    0    0  501 -0.00000000000E+00 -0.00000000000E+00 -0.70639803362E+02  0.70639803362E+02  0.00000000000E+00 0.  1.
         25    2    1    2    0    0 -0.12947343257E+03  0.13742573029E+02  0.11170603168E+03  0.21231512516E+03  0.12508895557E+03 0.  0.
         23    2    1    2    0    0  0.12947343257E+03 -0.13742573029E+02  0.29663717460E+03  0.33730768784E+03  0.93971457727E+02 0.  0.
          5    1    3    3  502    0 -0.12861247971E+03  0.51222933302E+02  0.10545508610E+03  0.17407816181E+03  0.41800000000E+01 0. -1.
         -5    1    3    3    0  502 -0.86095285552E+00 -0.37480360273E+02  0.62509455788E+01  0.38236963355E+02  0.41800000000E+01 0. -1.
        -11    1    4    4    0    0  0.11140756207E+03  0.16313953195E+02  0.15615936835E+03  0.19251892966E+03  0.00000000000E+00 0.  1.
         11    1    4    4    0    0  0.18065870498E+02 -0.30056526224E+02  0.14047780626E+03  0.14478875818E+03  0.00000000000E+00 0. -1.
</event>
<event>
 8    1  0.6834011E-009  0.1063467E+03  0.7561462E-02  0.1267489E+00
         -2   -1    0    0    0  501 -0.00000000000E+00  0.00000000000E+00  0.52190552401E+02  0.52190552401E+02  0.00000000000E+00 0.  1.
          2   -1    0    0  501    0  0.00000000000E+00 -0.00000000000E+00 -0.22931457177E+03  0.22931457177E+03  0.00000000000E+00 0. -1.
         25    2    1    2    0    0 -0.20848397313E+01  0.68327230400E+01 -0.94530471955E+02  0.15695205156E+03  0.12508758412E+03 0.  0.
         23    2    1    2    0    0  0.20848397313E+01 -0.68327230400E+01 -0.82593547410E+02  0.12455307261E+03  0.92955587037E+02 0.  0.
          5    1    3    3  502    0  0.13946449523E+02  0.61069077657E+02 -0.73022896843E+02  0.96300319644E+02  0.41800000000E+01 0.  1.
         -5    1    3    3    0  502 -0.16031289254E+02 -0.54236354617E+02 -0.21507575112E+02  0.60651731917E+02  0.41800000000E+01 0.  1.
        -11    1    4    4    0    0  0.38868643884E+02 -0.30548106546E+02 -0.45309779509E+02  0.67059185874E+02  0.00000000000E+00 0.  1.
         11    1    4    4    0    0 -0.36783804153E+02  0.23715383506E+02 -0.37283767901E+02  0.57493886733E+02  0.00000000000E+00 0. -1.
</event>
<event>
 8    1  0.6834011E-009  0.9894495E+02  0.7561462E-02  0.1282530E+00
          1   -1    0    0  501    0  0.00000000000E+00  0.00000000000E+00  0.14756542866E+03  0.14756542866E+03  0.00000000000E+00 0. -1.
         -1   -1    0    0    0  501 -0.00000000000E+00 -0.00000000000E+00 -0.92214362037E+02  0.92214362037E+02  0.00000000000E+00 0.  1.
         25    2    1    2    0    0  0.86148498849E+01 -0.18362794164E+02  0.14639105048E+02  0.12756812333E+03  0.12509162580E+03 0.  0.
         23    2    1    2    0    0 -0.86148498849E+01  0.18362794164E+02  0.40711961575E+02  0.11221166737E+03  0.10257965992E+03 0.  0.
          5    1    3    3  502    0 -0.25361880279E+02 -0.52947983533E+02  0.41469440961E+02  0.71999311560E+02  0.41800000000E+01 0.  1.
         -5    1    3    3    0  502  0.33976730164E+02  0.34585189369E+02 -0.26830335913E+02  0.55568811770E+02  0.41800000000E+01 0.  1.
        -11    1    4    4    0    0 -0.47240307254E+02  0.20909335668E+02  0.50543085577E+02  0.72273442198E+02  0.00000000000E+00 0. -1.
         11    1    4    4    0    0  0.38625457369E+02 -0.25465415039E+01 -0.98311240014E+01  0.39938225170E+02  0.00000000000E+00 0.  1.
</event>
<event>
 8    1  0.6834011E-009  0.8458219E+02  0.7561462E-02  0.1316529E+00
          2   -1    0    0  501    0  0.00000000000E+00  0.00000000000E+00  0.67695773066E+03  0.67695773066E+03  0.00000000000E+00 0.  1.
         -2   -1    0    0    0  501 -0.00000000000E+00 -0.00000000000E+00 -0.26121603544E+02  0.26121603544E+02  0.00000000000E+00 0. -1.
         25    2    1    2    0    0  0.24191317988E+02  0.35827300966E+01  0.54375963338E+03  0.55849950569E+03  0.12509637543E+03 0.  0.
         23    2    1    2    0    0 -0.24191317988E+02 -0.35827300966E+01  0.10707649374E+03  0.14457982852E+03  0.94020718360E+02 0.  0.
          5    1    3    3  502    0  0.59575433491E+02  0.17063874630E+01  0.49211484733E+03  0.49572839277E+03  0.41800000000E+01 0.  1.
         -5    1    3    3    0  502 -0.35384115503E+02  0.18763426337E+01  0.51644786043E+02  0.62771112919E+02  0.41800000000E+01 0.  1.
        -11    1    4    4    0    0 -0.47206947453E+02 -0.12854171798E+02  0.18032078475E+02  0.52142894766E+02  0.00000000000E+00 0. -1.
         11    1    4    4    0    0  0.23015629466E+02  0.92714417015E+01  0.89044415267E+02  0.92436933750E+02  0.00000000000E+00 0.  1.
</event>
<event>
 8    1  0.6834011E-009  0.1094978E+03  0.7561462E-02  0.1261503E+00
         -2   -1    0    0    0  501 -0.00000000000E+00  0.00000000000E+00  0.17894881765E+02  0.17894881765E+02  0.00000000000E+00 0.  1.
          2   -1    0    0  501    0  0.00000000000E+00 -0.00000000000E+00 -0.11203734274E+04  0.11203734274E+04  0.00000000000E+00 0. -1.
         25    2    1    2    0    0 -0.52331280455E+02  0.52506108670E+02 -0.81374499754E+03  0.82663466809E+03  0.12509396114E+03 0.  0.
         23    2    1    2    0    0  0.52331280455E+02 -0.52506108670E+02 -0.28873354813E+03  0.31163364111E+03  0.90846079118E+02 0.  0.
          5    1    3    3  502    0 -0.48866640374E+02  0.77534658514E+02 -0.33887350602E+03  0.35107306546E+03  0.41800000000E+01 0. -1.
         -5    1    3    3    0  502 -0.34646400808E+01 -0.25028549845E+02 -0.47487149152E+03  0.47556160263E+03  0.41800000000E+01 0. -1.
        -11    1    4    4    0    0 -0.52770338950E+01 -0.42916294039E+02 -0.20522050999E+03  0.20972628138E+03  0.00000000000E+00 0. -1.
         11    1    4    4    0    0  0.57608314350E+02 -0.95898146307E+01 -0.83513038142E+02  0.10190735973E+03  0.00000000000E+00 0.  1.
</event>
<event>
 8    1  0.6834011E-009  0.1038904E+03  0.7561462E-02  0.1272321E+00
          1   -1    0    0  501    0  0.00000000000E+00  0.00000000000E+00  0.10345319889E+04  0.10345319889E+04  0.00000000000E+00 0. -1.
         -1   -1    0    0    0  501 -0.00000000000E+00 -0.00000000000E+00 -0.13563772359E+02  0.13563772359E+02  0.00000000000E+00 0.  1.
         25    2    1    2    0    0  0.55547814902E+01 -0.39526799597E+02  0.69279856290E+03  0.70513168654E+03  0.12509045975E+03 0.  0.
         23    2    1    2    0    0 -0.55547814902E+01  0.39526799597E+02  0.32816965367E+03  0.34296407475E+03  0.91300665362E+02 0.  0.
          5    1    3    3  502    0 -0.28576549170E+02  0.31761435754E+02  0.38235944266E+03  0.38476177533E+03  0.41800000000E+01 0. -1.
         -5    1    3    3    0  502  0.34131330660E+02 -0.71288235351E+02  0.31043912024E+03  0.32036991121E+03  0.41800000000E+01 0. -1.
        -11    1    4    4    0    0  0.34953259842E+02  0.23613879592E+02  0.74717256209E+02  0.85802179800E+02  0.00000000000E+00 0.  1.
         11    1    4    4    0    0 -0.40508041333E+02  0.15912920005E+02  0.25345239746E+03  0.25716189495E+03  0.00000000000E+00 0. -1.
</event>
<event>
 8    1  0.6834011E-009  0.1721838E+03  0.7561462E-02  0.1175589E+00
         -2   -1    0    0    0  501 -0.00000000000E+00  0.00000000000E+00  0.30746662228E+03  0.30746662228E+03  0.00000000000E+00 0.  1.
          2   -1    0    0  501    0  0.00000000000E+00 -0.00000000000E+00 -0.12915756313E+03  0.12915756313E+03  0.00000000000E+00 0. -1.
         25    2    1    2    0    0 -0.11914603311E+03 -0.67617008136E+02 -0.10714917048E+02  0.18582231360E+03  0.12508911140E+03 0.  0.
         23    2    1    2    0    0  0.11914603311E+03  0.67617008136E+02  0.18902397620E+03  0.25080187181E+03  0.91671578633E+02 0.  0.
          5    1    3    3  502    0 -0.10922631533E+03 -0.98348832049E+02  0.97522189817E+01  0.14736166022E+03  0.41800000000E+01 0. -1.
         -5    1    3    3    0  502 -0.99197177781E+01  0.30731823913E+02 -0.20467136029E+02  0.38460653388E+02  0.41800000000E+01 0. -1.
        -11    1    4    4    0    0  0.66582484258E+02  0.86283720678E+02  0.12151194975E+03  0.16322763735E+03  0.00000000000E+00 0.  1.
         11    1    4    4    0    0  0.52563548851E+02 -0.18666712541E+02  0.67512026455E+02  0.87574234459E+02  0.00000000000E+00 0. -1.
</event>
<event>
 8    1  0.6834011E-009  0.3128920E+03  0.7561462E-02  0.1078968E+00
         -4   -1    0    0    0  501 -0.00000000000E+00  0.00000000000E+00  0.13098129691E+03  0.13098129691E+03  0.00000000000E+00 0.  1.
          4   -1    0    0  501    0  0.00000000000E+00 -0.00000000000E+00 -0.81519577191E+03  0.81519577191E+03  0.00000000000E+00 0. -1.
         25    2    1    2    0    0 -0.30418306940E+03 -0.31622432611E+02 -0.39616490261E+03  0.51587094143E+03  0.12509548432E+03 0.  0.
         23    2    1    2    0    0  0.30418306940E+03  0.31622432611E+02 -0.28804957239E+03  0.43030612739E+03  0.93077866111E+02 0.  0.
          5    1    3    3  502    0 -0.24890472791E+03 -0.33329501462E+02 -0.38439291761E+03  0.45917295952E+03  0.41800000000E+01 0.  1.
         -5    1    3    3    0  502 -0.55278341490E+02  0.17070688511E+01 -0.11771984999E+02  0.56697981911E+02  0.41800000000E+01 0.  1.
        -11    1    4    4    0    0  0.14925774365E+03  0.61410339249E+02 -0.13348116411E+03  0.20944289193E+03  0.00000000000E+00 0.  1.
         11    1    4    4    0    0  0.15492532575E+03 -0.29787906638E+02 -0.15456840828E+03  0.22086323546E+03  0.00000000000E+00 0. -1.
</event>
<event>
 8    1  0.6834011E-009  0.1116408E+03  0.7561462E-02  0.1257561E+00
         -2   -1    0    0    0  501 -0.00000000000E+00  0.00000000000E+00  0.46977611148E+02  0.46977611148E+02  0.00000000000E+00 0.  1.
          2   -1    0    0  501    0  0.00000000000E+00 -0.00000000000E+00 -0.41539841295E+03  0.41539841295E+03  0.00000000000E+00 0. -1.
         25    2    1    2    0    0 -0.12077913671E+02  0.65265310815E+02 -0.29712463485E+03  0.32914496925E+03  0.12509166782E+03 0.  0.
         23    2    1    2    0    0  0.12077913671E+02 -0.65265310815E+02 -0.71296166959E+02  0.13323105485E+03  0.90895180063E+02 0.  0.
          5    1    3    3  502    0 -0.30957949660E+02  0.94026499190E+02 -0.16420604775E+03  0.19178236550E+03  0.41800000000E+01 0. -1.
         -5    1    3    3    0  502  0.18880035988E+02 -0.28761188374E+02 -0.13291858709E+03  0.13736260376E+03  0.41800000000E+01 0. -1.
        -11    1    4    4    0    0  0.23847300716E+02 -0.63993707240E+00  0.12359446748E+02  0.26867437444E+02  0.00000000000E+00 0.  1.
         11    1    4    4    0    0 -0.11769387045E+02 -0.64625373743E+02 -0.83655613706E+02  0.10636361740E+03  0.00000000000E+00 0. -1.
</event>
<event>
 8    1  0.6834011E-009  0.9902562E+02  0.7561462E-02  0.1282358E+00
          1   -1    0    0  501    0  0.00000000000E+00  0.00000000000E+00  0.52999882851E+03  0.52999882851E+03  0.00000000000E+00 0. -1.
         -1   -1    0    0    0  501 -0.00000000000E+00 -0.00000000000E+00 -0.26600401295E+02  0.26600401295E+02  0.00000000000E+00 0.  1.
         25    2    1    2    0    0  0.41162979172E+02 -0.16282417330E+00  0.22561787883E+03  0.26123812920E+03  0.12509002972E+03 0.  0.
         23    2    1    2    0    0 -0.41162979172E+02  0.16282417330E+00  0.27778054839E+03  0.29536110061E+03  0.91551784926E+02 0.  0.
          5    1    3    3  502    0  0.72771322811E+02 -0.37458152932E+02  0.15357713699E+03  0.17407523675E+03  0.41800000000E+01 0. -1.
         -5    1    3    3    0  502 -0.31608343640E+02  0.37295328759E+02  0.72040741848E+02  0.87162892454E+02  0.41800000000E+01 0. -1.
        -11    1    4    4    0    0 -0.41116605118E+02 -0.20793779583E+02  0.26852886871E+03  0.27245313325E+03  0.00000000000E+00 0. -1.
         11    1    4    4    0    0 -0.46374053298E-01  0.20956603756E+02  0.92516796728E+01  0.22907967354E+02  0.00000000000E+00 0.  1.
</event>
<event>
 8    1  0.6834011E-009  0.1026208E+03  0.7561462E-02  0.1274879E+00
          2   -1    0    0  501    0  0.00000000000E+00  0.00000000000E+00  0.68713200992E+03  0.68713200992E+03  0.00000000000E+00 0. -1.
         -2   -1    0    0    0  501 -0.00000000000E+00 -0.00000000000E+00 -0.31172338555E+02  0.31172338555E+02  0.00000000000E+00 0.  1.
         25    2    1    2    0    0 -0.51190799911E+02 -0.81267674633E+02  0.35188347612E+03  0.38561119794E+03  0.12509629200E+03 0.  0.
         23    2    1    2    0    0  0.51190799911E+02  0.81267674633E+02  0.30407619525E+03  0.33269315054E+03  0.94854978600E+02 0.  0.
          5    1    3    3  502    0 -0.48033574032E+02 -0.62368992357E+02  0.35679019738E+03  0.36539544713E+03  0.41800000000E+01 0.  1.
         -5    1    3    3    0  502 -0.31572258786E+01 -0.18898682277E+02 -0.49067212555E+01  0.20215750803E+02  0.41800000000E+01 0.  1.
        -11    1    4    4    0    0  0.60101528372E+02  0.67305299906E+02  0.30293736427E+03  0.31609056262E+03  0.00000000000E+00 0. -1.
         11    1    4    4    0    0 -0.89107284615E+01  0.13962374727E+02  0.11388309818E+01  0.16602587923E+02  0.00000000000E+00 0.  1.
</event>
<event>
 8    1  0.6834011E-009  0.2528802E+03  0.7561462E-02  0.1111498E+00
          2   -1    0    0  501    0  0.00000000000E+00  0.00000000000E+00  0.46807872420E+03  0.46807872420E+03  0.00000000000E+00 0. -1.
         -2   -1    0    0    0  501 -0.00000000000E+00 -0.00000000000E+00 -0.15954727797E+03  0.15954727797E+03  0.00000000000E+00 0.  1.
         25    2    1    2    0    0 -0.23977885318E+03  0.21308127118E+02  0.23761716581E+03  0.36063485721E+03  0.12509055932E+03 0.  0.
         23    2    1    2    0    0  0.23977885318E+03 -0.21308127118E+02  0.70914280424E+02  0.26699114496E+03  0.91145496898E+02 0.  0.
          5    1    3    3  502    0  0.74274935317E+00  0.24071960475E+02  0.49632798523E+02  0.55325383387E+02  0.41800000000E+01 0. -1.
         -5    1    3    3    0  502 -0.24052160253E+03 -0.27638333570E+01  0.18798436729E+03  0.30530947382E+03  0.41800000000E+01 0. -1.
        -11    1    4    4    0    0  0.87495214786E+02 -0.63022488338E+01  0.72742907757E+02  0.11395903466E+03  0.00000000000E+00 0. -1.
         11    1    4    4    0    0  0.15228363840E+03 -0.15005878284E+02 -0.18286273336E+01  0.15303211030E+03  0.00000000000E+00 0.  1.
</event>
<event>
 8    1  0.6834011E-009  0.1230690E+03  0.7561462E-02  0.1238118E+00
         -1   -1    0    0    0  501 -0.00000000000E+00  0.00000000000E+00  0.23689174111E+03  0.23689174111E+03  0.00000000000E+00 0.  1.
          1   -1    0    0  501    0  0.00000000000E+00 -0.00000000000E+00 -0.75328506910E+02  0.75328506910E+02  0.00000000000E+00 0. -1.
         25    2    1    2    0    0 -0.43600575530E+02 -0.64305973896E+02  0.79366338179E+02  0.16728808060E+03  0.12510003122E+03 0.  0.
         23    2    1    2    0    0  0.43600575530E+02  0.64305973896E+02  0.82196896023E+02  0.14493216742E+03  0.90624141223E+02 0.  0.
          5    1    3    3  502    0  0.19295893895E+02 -0.75676246750E+02  0.21856035267E+02  0.81205815808E+02  0.41800000000E+01 0.  1.
         -5    1    3    3    0  502 -0.62896469425E+02  0.11370272854E+02  0.57510302912E+02  0.86082264794E+02  0.41800000000E+01 0.  1.
        -11    1    4    4    0    0 -0.48115580305E+01 -0.12326653832E+02 -0.92721224450E+01  0.16157652676E+02  0.00000000000E+00 0. -1.
         11    1    4    4    0    0  0.48412133561E+02  0.76632627728E+02  0.91469018468E+02  0.12877451475E+03  0.00000000000E+00 0.  1.
</event>
<event>
 8    1  0.6834011E-009  0.1550143E+03  0.7561462E-02  0.1194443E+00
          2   -1    0    0  501    0  0.00000000000E+00  0.00000000000E+00  0.12677281544E+03  0.12677281544E+03  0.00000000000E+00 0. -1.
         -2   -1    0    0    0  501 -0.00000000000E+00 -0.00000000000E+00 -0.27898675404E+03  0.27898675404E+03  0.00000000000E+00 0.  1.
         25    2    1    2    0    0  0.13974786994E+03 -0.38763336976E+02 -0.13609463546E+03  0.23494648861E+03  0.12508412874E+03 0.  0.
         23    2    1    2    0    0 -0.13974786994E+03  0.38763336976E+02 -0.16119303136E+02  0.17081308086E+03  0.88798723033E+02 0.  0.
          5    1    3    3  502    0  0.10487424408E+03  0.81017551842E+01 -0.23246254469E+02  0.10780587301E+03  0.41800000000E+01 0. -1.
         -5    1    3    3    0  502  0.34873625865E+02 -0.46865092160E+02 -0.11284838099E+03  0.12714061561E+03  0.41800000000E+01 0. -1.
        -11    1    4    4    0    0 -0.77608455599E+02  0.30998282162E+02  0.34380043151E+02  0.90365664079E+02  0.00000000000E+00 0. -1.
         11    1    4    4    0    0 -0.62139414344E+02  0.77650548134E+01 -0.50499346287E+02  0.80447416781E+02  0.00000000000E+00 0.  1.
</event>
<event>
 8    1  0.6834011E-009  0.1268788E+03  0.7561462E-02  0.1232162E+00
         -2   -1    0    0    0  501 -0.00000000000E+00  0.00000000000E+00  0.55700153745E+02  0.55700153745E+02  0.00000000000E+00 0.  1.
          2   -1    0    0  501    0  0.00000000000E+00 -0.00000000000E+00 -0.48586060385E+03  0.48586060385E+03  0.00000000000E+00 0. -1.
         25    2    1    2    0    0  0.29881507156E+02  0.10038710282E+03 -0.12274493241E+03  0.20416011874E+03  0.12507821860E+03 0.  0.
         23    2    1    2    0    0 -0.29881507156E+02 -0.10038710282E+03 -0.30741551769E+03  0.33740063885E+03  0.91457179608E+02 0.  0.
          5    1    3    3  502    0 -0.44374166040E+01  0.64916792873E+02  0.67158512661E+01  0.65547354800E+02  0.41800000000E+01 0.  1.
         -5    1    3    3    0  502  0.34318923760E+02  0.35470309944E+02 -0.12946078368E+03  0.13861276394E+03  0.41800000000E+01 0.  1.
        -11    1    4    4    0    0  0.12044968560E+02  0.13245186132E+02 -0.37416971671E+02  0.41479464706E+02  0.00000000000E+00 0. -1.
         11    1    4    4    0    0 -0.41926475716E+02 -0.11363228895E+03 -0.26999854602E+03  0.29592117415E+03  0.00000000000E+00 0.  1.
</event>
<event>
 8    1  0.6834011E-009  0.1576807E+03  0.7561462E-02  0.1191340E+00
          2   -1    0    0  501    0  0.00000000000E+00  0.00000000000E+00  0.60851602976E+03  0.60851602976E+03  0.00000000000E+00 0. -1.
         -2   -1    0    0    0  501 -0.00000000000E+00 -0.00000000000E+00 -0.49467048192E+02  0.49467048192E+02  0.00000000000E+00 0.  1.
         25    2    1    2    0    0 -0.11483872719E+03  0.65864141701E+02  0.35018219994E+03  0.39472022324E+03  0.12510181075E+03 0.  0.
         23    2    1    2    0    0  0.11483872719E+03 -0.65864141701E+02  0.20886678162E+03  0.26326285471E+03  0.90310463291E+02 0.  0.
          5    1    3    3  502    0  0.26772808940E+02  0.38115350565E+01  0.47813883323E+02  0.55090388785E+02  0.41800000000E+01 0. -1.
         -5    1    3    3    0  502 -0.14161153613E+03  0.62052606644E+02  0.30236831662E+03  0.33962983446E+03  0.41800000000E+01 0. -1.
        -11    1    4    4    0    0  0.96940828161E+02 -0.48510635600E+02  0.21203006770E+03  0.23813348261E+03  0.00000000000E+00 0. -1.
         11    1    4    4    0    0  0.17897899028E+02 -0.17353506100E+02 -0.31632860718E+01  0.25129372105E+02  0.00000000000E+00 0.  1.
</event>
<event>
 8    1  0.6834011E-009  0.1274720E+03  0.7561462E-02  0.1231256E+00
          2   -1    0    0  501    0  0.00000000000E+00  0.00000000000E+00  0.15815668113E+04  0.15815668113E+04  0.00000000000E+00 0. -1.
         -2   -1    0    0    0  501 -0.00000000000E+00 -0.00000000000E+00 -0.15669200293E+02  0.15669200293E+02  0.00000000000E+00 0.  1.
         25    2    1    2    0    0 -0.38815844110E+02  0.10334039748E+03  0.98631905426E+03  0.10003294151E+04  0.12509098447E+03 0.  0.
         23    2    1    2    0    0  0.38815844110E+02 -0.10334039748E+03  0.57957855678E+03  0.59690659653E+03  0.90555364281E+02 0.  0.
          5    1    3    3  502    0  0.30278089340E+00  0.37119692378E+02  0.76643155739E+03  0.76734136329E+03  0.41800000000E+01 0.  1.
         -5    1    3    3    0  502 -0.39118625003E+02  0.66220705106E+02  0.21988749687E+03  0.23298805181E+03  0.41800000000E+01 0.  1.
        -11    1    4    4    0    0  0.65618489548E+02 -0.87698146206E+02  0.40286828603E+03  0.41749204412E+03  0.00000000000E+00 0.  1.
         11    1    4    4    0    0 -0.26802645439E+02 -0.15642251278E+02  0.17671027075E+03  0.17941455241E+03  0.00000000000E+00 0. -1.
</event>
<event>
 8    1  0.6834011E-009  0.9504465E+02  0.7561462E-02  0.1291076E+00
         -2   -1    0    0    0  501 -0.00000000000E+00  0.00000000000E+00  0.58960894510E+02  0.58960894510E+02  0.00000000000E+00 0.  1.
          2   -1    0    0  501    0  0.00000000000E+00 -0.00000000000E+00 -0.22046575141E+03  0.22046575141E+03  0.00000000000E+00 0. -1.
         25    2    1    2    0    0 -0.25219381426E+02 -0.94290348474E+01 -0.12493685493E+03  0.17883402624E+03  0.12508983702E+03 0.  0.
         23    2    1    2    0    0  0.25219381426E+02  0.94290348474E+01 -0.36568001977E+02  0.10059261969E+03  0.89759302965E+02 0.  0.
          5    1    3    3  502    0 -0.59721319289E+02 -0.41587098502E+02 -0.10414331929E+03  0.12711973132E+03  0.41800000000E+01 0.  1.
         -5    1    3    3    0  502  0.34501937863E+02  0.32158063654E+02 -0.20793535639E+02  0.51714294916E+02  0.41800000000E+01 0.  1.
        -11    1    4    4    0    0 -0.92441427773E+00 -0.25887935798E+02  0.17244318511E+02  0.31119226895E+02  0.00000000000E+00 0.  1.
         11    1    4    4    0    0  0.26143795704E+02  0.35316970645E+02 -0.53812320488E+02  0.69473392790E+02  0.00000000000E+00 0. -1.
</event>
<event>
 8    1  0.6834011E-009  0.3788621E+03  0.7561462E-02  0.1051355E+00
         -2   -1    0    0    0  501 -0.00000000000E+00  0.00000000000E+00  0.48664255573E+02  0.48664255573E+02  0.00000000000E+00 0.  1.
          2   -1    0    0  501    0  0.00000000000E+00 -0.00000000000E+00 -0.31902692483E+04  0.31902692483E+04  0.00000000000E+00 0. -1.
         25    2    1    2    0    0  0.51766460767E+02  0.37492804805E+03 -0.15992447039E+04  0.16481752242E+04  0.12508852501E+03 0.  0.
         23    2    1    2    0    0 -0.51766460767E+02 -0.37492804805E+03 -0.15423602889E+04  0.15907582797E+04  0.91574210745E+02 0.  0.
          5    1    3    3  502    0  0.50184445657E+02  0.33685616074E+03 -0.15427668437E+04  0.15799169465E+04  0.41800000000E+01 0. -1.
         -5    1    3    3    0  502  0.15820151108E+01  0.38071887307E+02 -0.56477860179E+02  0.68258277632E+02  0.41800000000E+01 0. -1.
        -11    1    4    4    0    0 -0.43753083180E+02 -0.26650360703E+03 -0.91415136923E+03  0.95321101059E+03  0.00000000000E+00 0.  1.
         11    1    4    4    0    0 -0.80133775878E+01 -0.10842444102E+03 -0.62820891965E+03  0.63754726911E+03  0.00000000000E+00 0. -1.
</event>
<event>
 8    1  0.6834011E-009  0.2128686E+03  0.7561462E-02  0.1139314E+00
          2   -1    0    0  501    0  0.00000000000E+00  0.00000000000E+00  0.10955262195E+03  0.10955262195E+03  0.00000000000E+00 0.  1.
         -2   -1    0    0    0  501 -0.00000000000E+00 -0.00000000000E+00 -0.55050336512E+03  0.55050336512E+03  0.00000000000E+00 0. -1.
         25    2    1    2    0    0  0.20019480335E+03 -0.97172879682E+01 -0.34938878225E+03  0.42177323443E+03  0.12509098750E+03 0.  0.
         23    2    1    2    0    0 -0.20019480335E+03  0.97172879682E+01 -0.91561960920E+02  0.23828275264E+03  0.90679063439E+02 0.  0.
          5    1    3    3  502    0  0.10463686101E+03 -0.27929394550E+02 -0.28533578085E+03  0.30522598840E+03  0.41800000000E+01 0.  1.
         -5    1    3    3    0  502  0.95557942337E+02  0.18212106582E+02 -0.64053001393E+02  0.11654724603E+03  0.41800000000E+01 0.  1.
        -11    1    4    4    0    0 -0.49555380830E+02 -0.37475269435E+02 -0.25737143727E+02  0.67249774392E+02  0.00000000000E+00 0. -1.
         11    1    4    4    0    0 -0.15063942252E+03  0.47192557403E+02 -0.65824817193E+02  0.17103297825E+03  0.00000000000E+00 0.  1.
</event>
<event>
 8    1  0.6834011E-009  0.8130059E+02  0.7561462E-02  0.1325401E+00
         -2   -1    0    0    0  501 -0.00000000000E+00  0.00000000000E+00  0.16374819474E+02  0.16374819474E+02  0.00000000000E+00 0. -1.
          2   -1    0    0  501    0  0.00000000000E+00 -0.00000000000E+00 -0.80081831878E+03  0.80081831878E+03  0.00000000000E+00 0.  1.
         25    2    1    2    0    0  0.32274958683E+02 -0.31623906827E+01 -0.44518866396E+03  0.46356469802E+03  0.12509040354E+03 0.  0.
         23    2    1    2    0    0 -0.32274958683E+02  0.31623906827E+01 -0.33925483535E+03  0.35362844024E+03  0.94379853594E+02 0.  0.
          5    1    3    3  502    0  0.11076540883E+02 -0.29799089708E+02 -0.21764259427E+02  0.38753462991E+02  0.41800000000E+01 0. -1.
         -5    1    3    3    0  502  0.21198417799E+02  0.26636699025E+02 -0.42342440454E+03  0.42481123503E+03  0.41800000000E+01 0. -1.
        -11    1    4    4    0    0  0.22000286191E+02 -0.26455349861E+02 -0.79689112683E+02  0.86800073784E+02  0.00000000000E+00 0.  1.
         11    1    4    4    0    0 -0.54275244874E+02  0.29617740544E+02 -0.25956572267E+03  0.26682836645E+03  0.00000000000E+00 0. -1.
</event>
<event>
 8    1  0.6834011E-009  0.1622882E+03  0.7561462E-02  0.1186137E+00
          1   -1    0    0  501    0  0.00000000000E+00  0.00000000000E+00  0.46312717048E+02  0.46312717048E+02  0.00000000000E+00 0. -1.
         -1   -1    0    0    0  501 -0.00000000000E+00 -0.00000000000E+00 -0.72671162023E+03  0.72671162023E+03  0.00000000000E+00 0.  1.
         25    2    1    2    0    0  0.12160616389E+03 -0.66763613137E+02 -0.46303945322E+03  0.49929723473E+03  0.12508698668E+03 0.  0.
         23    2    1    2    0    0 -0.12160616389E+03  0.66763613137E+02 -0.21735944997E+03  0.27372710255E+03  0.91847466193E+02 0.  0.
          5    1    3    3  502    0 -0.18596524105E+02 -0.32567698854E+02 -0.57042165846E+02  0.68394201522E+02  0.41800000000E+01 0. -1.
         -5    1    3    3    0  502  0.14020268799E+03 -0.34195914283E+02 -0.40599728737E+03  0.43090303321E+03  0.41800000000E+01 0. -1.
        -11    1    4    4    0    0 -0.99007251997E+02  0.67548925219E+02 -0.22042932817E+03  0.25090711820E+03  0.00000000000E+00 0.  1.
         11    1    4    4    0    0 -0.22598911891E+02 -0.78531208182E+00  0.30698781994E+01  0.22819984353E+02  0.00000000000E+00 0. -1.
</event>
<event>
 8    1  0.6834011E-009  0.4798829E+02  0.7561462E-02  0.1456504E+00
          2   -1    0    0  501    0  0.00000000000E+00  0.00000000000E+00  0.32641167029E+03  0.32641167029E+03  0.00000000000E+00 0. -1.
         -2   -1    0    0    0  501 -0.00000000000E+00 -0.00000000000E+00 -0.38799041415E+02  0.38799041415E+02  0.00000000000E+00 0.  1.
         25    2    1    2    0    0 -0.13992034978E+02 -0.26737761737E+02  0.19207449292E+03  0.23119157359E+03  0.12508496280E+03 0.  0.
         23    2    1    2    0    0  0.13992034978E+02  0.26737761737E+02  0.95538135954E+02  0.13401913812E+03  0.89010724162E+02 0.  0.
          5    1    3    3  502    0 -0.16380937024E+02 -0.11212372002E+02 -0.13890613071E+02  0.24586051232E+02  0.41800000000E+01 0.  1.
         -5    1    3    3    0  502  0.23889020465E+01 -0.15525389735E+02  0.20596510600E+03  0.20660552235E+03  0.41800000000E+01 0.  1.
        -11    1    4    4    0    0  0.32433339461E+02  0.85654682619E+01 -0.15075779025E+01  0.33579183228E+02  0.00000000000E+00 0.  1.
         11    1    4    4    0    0 -0.18441304483E+02  0.18172293475E+02  0.97045713856E+02  0.10043995489E+03  0.00000000000E+00 0. -1.
</event>
<event>
 8    1  0.6834011E-009  0.1671417E+03  0.7561462E-02  0.1180862E+00
         -2   -1    0    0    0  501 -0.00000000000E+00  0.00000000000E+00  0.13930611753E+02  0.13930611753E+02  0.00000000000E+00 0.  1.
          2   -1    0    0  501    0  0.00000000000E+00 -0.00000000000E+00 -0.22824449499E+04  0.22824449499E+04  0.00000000000E+00 0. -1.
         25    2    1    2    0    0 -0.99452342842E+02 -0.95918405725E+02 -0.13864693539E+04  0.13989409299E+04  0.12508935558E+03 0.  0.
         23    2    1    2    0    0  0.99452342842E+02  0.95918405725E+02 -0.88204498417E+03  0.89743463172E+03  0.91073898846E+02 0.  0.
          5    1    3    3  502    0 -0.12330066293E+03 -0.82118151431E+02 -0.12912501658E+04  0.12997272435E+04  0.41800000000E+01 0.  1.
         -5    1    3    3    0  502  0.23848320092E+02 -0.13800254294E+02 -0.95219188124E+02  0.99213686439E+02  0.41800000000E+01 0.  1.
        -11    1    4    4    0    0 -0.80523479848E+01 -0.60260186631E+01 -0.16670632060E+02  0.19469544994E+02  0.00000000000E+00 0.  1.
         11    1    4    4    0    0  0.10750469083E+03  0.10194442439E+03 -0.86537435211E+03  0.87796508672E+03  0.00000000000E+00 0. -1.
</event>
<event>
 8    1  0.6834011E-009  0.1210327E+03  0.7561462E-02  0.1241403E+00
          2   -1    0    0  501    0  0.00000000000E+00  0.00000000000E+00  0.23269616564E+03  0.23269616564E+03  0.00000000000E+00 0. -1.
         -2   -1    0    0    0  501 -0.00000000000E+00 -0.00000000000E+00 -0.93234696706E+02  0.93234696706E+02  0.00000000000E+00 0.  1.
         25    2    1    2    0    0 -0.80567200053E+02 -0.41875448556E+02  0.28620686475E+02  0.15720652488E+03  0.12510044306E+03 0.  0.
         23    2    1    2    0    0  0.80567200053E+02  0.41875448556E+02  0.11084078246E+03  0.16872433747E+03  0.89093187628E+02 0.  0.
          5    1    3    3  502    0 -0.59973649762E+02 -0.63645215026E+02  0.65618993833E+02  0.10941150220E+03  0.41800000000E+01 0.  1.
         -5    1    3    3    0  502 -0.20593550290E+02  0.21769766470E+02 -0.36998307358E+02  0.47795022681E+02  0.41800000000E+01 0.  1.
        -11    1    4    4    0    0  0.85176933288E+02  0.31247294293E+01  0.58253319974E+02  0.10323915530E+03  0.00000000000E+00 0. -1.
         11    1    4    4    0    0 -0.46097332357E+01  0.38750719127E+02  0.52587462487E+02  0.65485182172E+02  0.00000000000E+00 0.  1.
</event>
<event>
 8    1  0.6834011E-009  0.1275366E+03  0.7561462E-02  0.1231157E+00
         -1   -1    0    0    0  501 -0.00000000000E+00  0.00000000000E+00  0.35233061899E+03  0.35233061899E+03  0.00000000000E+00 0.  1.
          1   -1    0    0  501    0  0.00000000000E+00 -0.00000000000E+00 -0.47209146744E+02  0.47209146744E+02  0.00000000000E+00 0. -1.
         25    2    1    2    0    0 -0.56621510864E+02 -0.39996338914E+02  0.16563359642E+03  0.21883305225E+03  0.12509082250E+03 0.  0.
         23    2    1    2    0    0  0.56621510864E+02  0.39996338914E+02  0.13948787583E+03  0.18070671349E+03  0.91609749356E+02 0.  0.
          5    1    3    3  502    0  0.25759929394E+02  0.26149595707E+02  0.49674503201E+02  0.61906413127E+02  0.41800000000E+01 0. -1.
         -5    1    3    3    0  502 -0.82381440258E+02 -0.66145934620E+02  0.11595909322E+03  0.15692663912E+03  0.41800000000E+01 0. -1.
        -11    1    4    4    0    0  0.41000211917E+02  0.68534629260E+02  0.11489039174E+03  0.13992074507E+03  0.00000000000E+00 0.  1.
         11    1    4    4    0    0  0.15621298947E+02 -0.28538290346E+02  0.24597484087E+02  0.40785968422E+02  0.00000000000E+00 0. -1.
</event>
<event>
 8    1  0.6834011E-009  0.1823923E+03  0.7561462E-02  0.1165508E+00
         -2   -1    0    0    0  501 -0.00000000000E+00  0.00000000000E+00  0.10211026013E+03  0.10211026013E+03  0.00000000000E+00 0. -1.
          2   -1    0    0  501    0  0.00000000000E+00 -0.00000000000E+00 -0.43242941336E+03  0.43242941336E+03  0.00000000000E+00 0.  1.
         25    2    1    2    0    0 -0.15590751215E+03 -0.86265820342E+02 -0.14731793607E+03  0.26286654546E+03  0.12508917750E+03 0.  0.
         23    2    1    2    0    0  0.15590751215E+03  0.86265820342E+02 -0.18300121716E+03  0.27167312804E+03  0.92562945671E+02 0.  0.
          5    1    3    3  502    0 -0.10845695666E+03 -0.40445717473E+02 -0.15800564197E+03  0.19591330430E+03  0.41800000000E+01 0. -1.
         -5    1    3    3    0  502 -0.47450555490E+02 -0.45820102869E+02  0.10687705900E+02  0.66953241151E+02  0.41800000000E+01 0. -1.
        -11    1    4    4    0    0  0.11458313022E+03  0.82845947788E+02 -0.84307142066E+02  0.16462210969E+03  0.00000000000E+00 0. -1.
         11    1    4    4    0    0  0.41324381929E+02  0.34198725538E+01 -0.98694075091E+02  0.10705101834E+03  0.00000000000E+00 0.  1.
</event>
<event>
 8    1  0.6834011E-009  0.1647829E+03  0.7561462E-02  0.1183400E+00
          2   -1    0    0  501    0  0.00000000000E+00  0.00000000000E+00  0.61807266605E+03  0.61807266605E+03  0.00000000000E+00 0. -1.
         -2   -1    0    0    0  501 -0.00000000000E+00 -0.00000000000E+00 -0.60776385749E+02  0.60776385749E+02  0.00000000000E+00 0.  1.
         25    2    1    2    0    0 -0.14647782391E+03  0.59076424714E+02  0.24614901302E+03  0.31809142227E+03  0.12508812675E+03 0.  0.
         23    2    1    2    0    0  0.14647782391E+03 -0.59076424714E+02  0.31114726728E+03  0.36075762953E+03  0.91584215216E+02 0.  0.
          5    1    3    3  502    0 -0.82902402374E+02  0.57852346557E+02  0.52014998180E+02  0.11376614064E+03  0.41800000000E+01 0. -1.
         -5    1    3    3    0  502 -0.63575421536E+02  0.12240781569E+01  0.19413401484E+03  0.20432528162E+03  0.41800000000E+01 0. -1.
        -11    1    4    4    0    0  0.10432389805E+03 -0.18115074930E+02  0.26705490932E+03  0.28728027471E+03  0.00000000000E+00 0. -1.
         11    1    4    4    0    0  0.42153925864E+02 -0.40961349784E+02  0.44092357957E+02  0.73477354825E+02  0.00000000000E+00 0.  1.
</event>
<event>
 8    1  0.6834011E-009  0.8763342E+02  0.7561462E-02  0.1308686E+00
         -1   -1    0    0    0  501 -0.00000000000E+00  0.00000000000E+00  0.12246088328E+02  0.12246088328E+02  0.00000000000E+00 0.  1.
          1   -1    0    0  501    0  0.00000000000E+00 -0.00000000000E+00 -0.11997016756E+04  0.11997016756E+04  0.00000000000E+00 0. -1.
         25    2    1    2    0    0  0.37657660182E+02  0.19362934498E+02 -0.84664108578E+03  0.85687877955E+03  0.12508833722E+03 0.  0.
         23    2    1    2    0    0 -0.37657660182E+02 -0.19362934498E+02 -0.34081450154E+03  0.35506898443E+03  0.90146750574E+02 0.  0.
          5    1    3    3  502    0 -0.43229951117E+01 -0.18210178377E+02 -0.17959882693E+02  0.26274106447E+02  0.41800000000E+01 0.  1.
         -5    1    3    3    0  502  0.41980655294E+02  0.37573112875E+02 -0.82868120309E+03  0.83060467310E+03  0.41800000000E+01 0.  1.
        -11    1    4    4    0    0  0.20873352436E+02  0.20120631052E+02 -0.98442393112E+02  0.10262281129E+03  0.00000000000E+00 0.  1.
         11    1    4    4    0    0 -0.58531012618E+02 -0.39483565550E+02 -0.24237210843E+03  0.25244617313E+03  0.00000000000E+00 0. -1.
</event>
<event>
 8    1  0.6834011E-009  0.1097738E+03  0.7561462E-02  0.1260989E+00
         -2   -1    0    0    0  501 -0.00000000000E+00  0.00000000000E+00  0.37130391212E+02  0.37130391212E+02  0.00000000000E+00 0.  1.
          2   -1    0    0  501    0  0.00000000000E+00 -0.00000000000E+00 -0.55164732289E+03  0.55164732289E+03  0.00000000000E+00 0. -1.
         25    2    1    2    0    0 -0.34633266066E+02  0.32796445651E+02 -0.45286354374E+03  0.47223315415E+03  0.12507474829E+03 0.  0.
         23    2    1    2    0    0  0.34633266066E+02 -0.32796445651E+02 -0.61653387938E+02  0.11654455996E+03  0.86639622836E+02 0.  0.
          5    1    3    3  502    0 -0.15106760579E+02 -0.46058367818E+02 -0.11810868986E+03  0.12773692685E+03  0.41800000000E+01 0. -1.
         -5    1    3    3    0  502 -0.19526505487E+02  0.78854813469E+02 -0.33475485388E+03  0.34449622729E+03  0.41800000000E+01 0. -1.
        -11    1    4    4    0    0  0.55793786451E+02 -0.70694793064E+01 -0.13238786041E+02  0.57777068116E+02  0.00000000000E+00 0.  1.
         11    1    4    4    0    0 -0.21160520386E+02 -0.25726966344E+02 -0.48414601896E+02  0.58767491839E+02  0.00000000000E+00 0. -1.
</event>
<event>
 8    1  0.6834011E-009  0.8817713E+02  0.7561462E-02  0.1307327E+00
          2   -1    0    0  501    0  0.00000000000E+00  0.00000000000E+00  0.14979733826E+03  0.14979733826E+03  0.00000000000E+00 0. -1.
         -2   -1    0    0    0  501 -0.00000000000E+00 -0.00000000000E+00 -0.89125505671E+02  0.89125505671E+02  0.00000000000E+00 0.  1.
         25    2    1    2    0    0 -0.21709460596E+02 -0.30639291854E+02  0.51334192771E+02  0.14034710680E+03  0.12510812985E+03 0.  0.
         23    2    1    2    0    0  0.21709460596E+02  0.30639291854E+02  0.93376398165E+01  0.98575737133E+02  0.90663760948E+02 0.  0.
          5    1    3    3  502    0 -0.15742065631E+01 -0.51283500552E+02 -0.26024739023E+02  0.57682189594E+02  0.41800000000E+01 0.  1.
         -5    1    3    3    0  502 -0.20135254033E+02  0.20644208698E+02  0.77358931794E+02  0.82664917202E+02  0.41800000000E+01 0.  1.
        -11    1    4    4    0    0 -0.30058613090E+02  0.32063592893E+02  0.15092953228E+02  0.46469252708E+02  0.00000000000E+00 0. -1.
         11    1    4    4    0    0  0.51768073686E+02 -0.14243010389E+01 -0.57553134113E+01  0.52106484425E+02  0.00000000000E+00 0.  1.
</event>
<event>
 8    1  0.6834011E-009  0.1096186E+03  0.7561462E-02  0.1261278E+00
         -1   -1    0    0    0  501 -0.00000000000E+00  0.00000000000E+00  0.19792784276E+03  0.19792784276E+03  0.00000000000E+00 0.  1.
          1   -1    0    0  501    0  0.00000000000E+00 -0.00000000000E+00 -0.89362113708E+02  0.89362113708E+02  0.00000000000E+00 0. -1.
         25    2    1    2    0    0 -0.41297439578E+02  0.26106280791E+02 -0.34776690678E+01  0.13433767968E+03  0.12508997397E+03 0.  0.
         23    2    1    2    0    0  0.41297439578E+02 -0.26106280791E+02  0.11204339812E+03  0.15295227679E+03  0.91943784455E+02 0.  0.
          5    1    3    3  502    0 -0.65920662116E+02 -0.14804572829E+02  0.31833291826E+02  0.74803341763E+02  0.41800000000E+01 0. -1.
         -5    1    3    3    0  502  0.24623222538E+02  0.40910853620E+02 -0.35310960894E+02  0.59534337918E+02  0.41800000000E+01 0. -1.
        -11    1    4    4    0    0 -0.12359490681E+02 -0.45046947175E+02  0.43078134196E+02  0.63542978412E+02  0.00000000000E+00 0. -1.
         11    1    4    4    0    0  0.53656930259E+02  0.18940666384E+02  0.68965263927E+02  0.89409298378E+02  0.00000000000E+00 0.  1.
</event>
<event>
 8    1  0.6834011E-009  0.1689046E+03  0.7561462E-02  0.1178995E+00
         -1   -1    0    0    0  501 -0.00000000000E+00  0.00000000000E+00  0.23839562074E+02  0.23839562074E+02  0.00000000000E+00 0.  1.
          1   -1    0    0  501    0  0.00000000000E+00 -0.00000000000E+00 -0.13606773300E+04  0.13606773300E+04  0.00000000000E+00 0. -1.
         25    2    1    2    0    0  0.13843138775E+03 -0.27618572598E+02 -0.80555802742E+03  0.82734315529E+03  0.12508767480E+03 0.  0.
         23    2    1    2    0    0 -0.13843138775E+03  0.27618572598E+02 -0.53127974050E+03  0.55717373678E+03  0.90875605268E+02 0.  0.
          5    1    3    3  502    0  0.21605155576E+02  0.43856077544E+02 -0.27708998725E+03  0.28140090923E+03  0.41800000000E+01 0.  1.
         -5    1    3    3    0  502  0.11682623217E+03 -0.71474650142E+02 -0.52846804018E+03  0.54594224605E+03  0.41800000000E+01 0.  1.
        -11    1    4    4    0    0 -0.92844761878E+02  0.44693853430E+02 -0.45621008842E+03  0.46770218635E+03  0.00000000000E+00 0. -1.
         11    1    4    4    0    0 -0.45586625869E+02 -0.17075280833E+02 -0.75069652081E+02  0.89471550435E+02  0.00000000000E+00 0.  1.
</event>
<event>
 8    1  0.6834011E-009  0.1579212E+03  0.7561462E-02  0.1191064E+00
         -1   -1    0    0    0  501 -0.00000000000E+00  0.00000000000E+00  0.11512019173E+03  0.11512019173E+03  0.00000000000E+00 0.  1.
          1   -1    0    0  501    0  0.00000000000E+00 -0.00000000000E+00 -0.40824089051E+03  0.40824089051E+03  0.00000000000E+00 0. -1.
         25    2    1    2    0    0  0.14034827693E+03 -0.22395677624E+02 -0.29848306738E+03  0.35346720112E+03  0.12509082917E+03 0.  0.
         23    2    1    2    0    0 -0.14034827693E+03  0.22395677624E+02  0.53623685941E+01  0.16989388112E+03  0.92929923227E+02 0.  0.
          5    1    3    3  502    0 -0.24849052672E+01 -0.57767772366E+00  0.10917419570E+02  0.11965404958E+02  0.41800000000E+01 0.  1.
         -5    1    3    3    0  502  0.14283318220E+03 -0.21817999900E+02 -0.30940048695E+03  0.34150179616E+03  0.41800000000E+01 0.  1.
        -11    1    4    4    0    0 -0.97666457555E+02  0.55541139672E+02 -0.12334618498E+02  0.11302963302E+03  0.00000000000E+00 0. -1.
         11    1    4    4    0    0 -0.42681819374E+02 -0.33145462048E+02  0.17696987092E+02  0.56864248097E+02  0.00000000000E+00 0.  1.
</event>
<event>
 8    1  0.6834011E-009  0.6181784E+02  0.7561462E-02  0.1390358E+00
          1   -1    0    0  501    0  0.00000000000E+00  0.00000000000E+00  0.59809913937E+03  0.59809913937E+03  0.00000000000E+00 0. -1.
         -1   -1    0    0    0  501 -0.00000000000E+00 -0.00000000000E+00 -0.20843369499E+02  0.20843369499E+02  0.00000000000E+00 0.  1.
         25    2    1    2    0    0 -0.10563022519E+02 -0.22925802844E+02  0.34173632742E+03  0.36478559282E+03  0.12509053268E+03 0.  0.
         23    2    1    2    0    0  0.10563022519E+02  0.22925802844E+02  0.23551944244E+03  0.25415691605E+03  0.92136639428E+02 0.  0.
          5    1    3    3  502    0 -0.95086279244E+01 -0.93460628259E+01 -0.70899120124E+01  0.15668508151E+02  0.41800000000E+01 0. -1.
         -5    1    3    3    0  502 -0.10543945950E+01 -0.13579740019E+02  0.34882623944E+03  0.34911708467E+03  0.41800000000E+01 0. -1.
        -11    1    4    4    0    0  0.34523435006E+01 -0.35948196259E+02  0.83127576239E+02  0.90633246777E+02  0.00000000000E+00 0. -1.
         11    1    4    4    0    0  0.71106790187E+01  0.58873999103E+02  0.15239186621E+03  0.16352366927E+03  0.00000000000E+00 0.  1.
</event>
<event>
 8    1  0.6834011E-009  0.8738036E+02  0.7561462E-02  0.1309322E+00
         -1   -1    0    0    0  501 -0.00000000000E+00  0.00000000000E+00  0.10308064848E+03  0.10308064848E+03  0.00000000000E+00 0.  1.
          1   -1    0    0  501    0  0.00000000000E+00 -0.00000000000E+00 -0.13029640554E+03  0.13029640554E+03  0.00000000000E+00 0. -1.
         25    2    1    2    0    0  0.16802730003E+02 -0.25600096076E+02 -0.43424721757E+02  0.13590746057E+03  0.12508970671E+03 0.  0.
         23    2    1    2    0    0 -0.16802730003E+02  0.25600096076E+02  0.16208964700E+02  0.97469593442E+02  0.91103756533E+02 0.  0.
          5    1    3    3  502    0  0.46741162873E+02 -0.16377828134E+02  0.28535815334E+02  0.57312605227E+02  0.41800000000E+01 0.  1.
         -5    1    3    3    0  502 -0.29938432870E+02 -0.92222679415E+01 -0.71960537091E+02  0.78594855348E+02  0.41800000000E+01 0.  1.
        -11    1    4    4    0    0 -0.53148099898E+02  0.10940608563E+02  0.20584567074E+02  0.58035694535E+02  0.00000000000E+00 0.  1.
         11    1    4    4    0    0  0.36345369895E+02  0.14659487513E+02 -0.43756023738E+01  0.39433898908E+02  0.00000000000E+00 0. -1.
</event>
<event>
 8    1  0.6834011E-009  0.9876466E+02  0.7561462E-02  0.1282915E+00
          1   -1    0    0  501    0  0.00000000000E+00  0.00000000000E+00  0.19022357914E+03  0.19022357914E+03  0.00000000000E+00 0. -1.
         -1   -1    0    0    0  501 -0.00000000000E+00 -0.00000000000E+00 -0.64430382799E+02  0.64430382799E+02  0.00000000000E+00 0.  1.
         25    2    1    2    0    0  0.41214956923E+01  0.14885809122E+01  0.54618225568E+02  0.13656369289E+03  0.12508912443E+03 0.  0.
         23    2    1    2    0    0 -0.41214956923E+01 -0.14885809122E+01  0.71174970770E+02  0.11809026905E+03  0.94128808448E+02 0.  0.
          5    1    3    3  502    0 -0.56703720054E+02 -0.13132391452E+00  0.49453015802E+02  0.75355174247E+02  0.41800000000E+01 0.  1.
         -5    1    3    3    0  502  0.60825215746E+02  0.16199048268E+01  0.51652097657E+01  0.61208518640E+02  0.41800000000E+01 0.  1.
        -11    1    4    4    0    0  0.37080635209E+02  0.66795011989E+01  0.27196205971E+01  0.37775462670E+02  0.00000000000E+00 0.  1.
         11    1    4    4    0    0 -0.41202130901E+02 -0.81680821111E+01  0.68455350173E+02  0.80314806377E+02  0.00000000000E+00 0. -1.
</event>
<event>
 8    1  0.6834011E-009  0.4674700E+03  0.7561462E-02  0.1022637E+00
         -2   -1    0    0    0  501 -0.00000000000E+00  0.00000000000E+00  0.19141632367E+03  0.19141632367E+03  0.00000000000E+00 0.  1.
          2   -1    0    0  501    0  0.00000000000E+00 -0.00000000000E+00 -0.11752679915E+04  0.11752679915E+04  0.00000000000E+00 0. -1.
         25    2    1    2    0    0  0.39052243048E+03 -0.23809317653E+03 -0.58597177634E+03  0.75379471414E+03  0.12508964379E+03 0.  0.
         23    2    1    2    0    0 -0.39052243048E+03  0.23809317653E+03 -0.39787989151E+03  0.61288960104E+03  0.90161663559E+02 0.  0.
          5    1    3    3  502    0  0.20435361503E+03 -0.19107266265E+03 -0.38351655003E+03  0.47473316604E+03  0.41800000000E+01 0. -1.
         -5    1    3    3    0  502  0.18616881545E+03 -0.47020513883E+02 -0.20245522631E+03  0.27906154810E+03  0.41800000000E+01 0. -1.
        -11    1    4    4    0    0 -0.34285411233E+03  0.17777880824E+03 -0.35645958139E+03  0.52556415419E+03  0.00000000000E+00 0.  1.
         11    1    4    4    0    0 -0.47668318145E+02  0.60314368291E+02 -0.41420310119E+02  0.87325446850E+02  0.00000000000E+00 0. -1.
</event>
<event>
 8    1  0.6834011E-009  0.1039475E+03  0.7561462E-02  0.1272207E+00
          2   -1    0    0  501    0  0.00000000000E+00  0.00000000000E+00  0.11400665736E+03  0.11400665736E+03  0.00000000000E+00 0. -1.
         -2   -1    0    0    0  501 -0.00000000000E+00 -0.00000000000E+00 -0.12833800156E+03  0.12833800156E+03  0.00000000000E+00 0.  1.
         25    2    1    2    0    0  0.18702633149E+02  0.21366103431E+00 -0.57068671612E+02  0.13875925928E+03  0.12508982620E+03 0.  0.
         23    2    1    2    0    0 -0.18702633149E+02 -0.21366103431E+00  0.42737327412E+02  0.10358539964E+03  0.92485792021E+02 0.  0.
          5    1    3    3  502    0  0.14997246121E+02 -0.55478086889E+02 -0.59378227900E+02  0.82740448782E+02  0.41800000000E+01 0. -1.
         -5    1    3    3    0  502  0.37053870284E+01  0.55691747923E+02  0.23095562878E+01  0.56018810501E+02  0.41800000000E+01 0. -1.
        -11    1    4    4    0    0  0.34881040905E+02 -0.16094425313E+02  0.15667286664E+02  0.41487123450E+02  0.00000000000E+00 0. -1.
         11    1    4    4    0    0 -0.53583674054E+02  0.15880764279E+02  0.27070040748E+02  0.62098276187E+02  0.00000000000E+00 0.  1.
</event>
<event>
 8    1  0.6834011E-009  0.1903517E+03  0.7561462E-02  0.1158144E+00
          1   -1    0    0  501    0  0.00000000000E+00  0.00000000000E+00  0.86714837877E+02  0.86714837877E+02  0.00000000000E+00 0. -1.
         -1   -1    0    0    0  501 -0.00000000000E+00 -0.00000000000E+00 -0.49923153683E+03  0.49923153683E+03  0.00000000000E+00 0.  1.
         25    2    1    2    0    0  0.85717424391E+02  0.15338721085E+03 -0.24620772349E+03  0.32732353480E+03  0.12508932821E+03 0.  0.
         23    2    1    2    0    0 -0.85717424391E+02 -0.15338721085E+03 -0.16630897547E+03  0.25862283991E+03  0.91389193600E+02 0.  0.
          5    1    3    3  502    0  0.16979501628E+02  0.36854922655E+01 -0.11583243995E+03  0.11720287058E+03  0.41800000000E+01 0. -1.
         -5    1    3    3    0  502  0.68737922763E+02  0.14970171858E+03 -0.13037528354E+03  0.21012066421E+03  0.41800000000E+01 0. -1.
        -11    1    4    4    0    0 -0.66204848135E+02 -0.29230480646E+02 -0.59722960918E+02  0.93831417852E+02  0.00000000000E+00 0.  1.
         11    1    4    4    0    0 -0.19512576256E+02 -0.12415673020E+03 -0.10658601455E+03  0.16479142206E+03  0.00000000000E+00 0. -1.
</event>
<event>
 8    1  0.6834011E-009  0.1190988E+03  0.7561462E-02  0.1244591E+00
         -2   -1    0    0    0  501 -0.00000000000E+00  0.00000000000E+00  0.42660002238E+02  0.42660002238E+02  0.00000000000E+00 0.  1.
          2   -1    0    0  501    0  0.00000000000E+00 -0.00000000000E+00 -0.44611778697E+03  0.44611778697E+03  0.00000000000E+00 0. -1.
         25    2    1    2    0    0  0.57757436674E+01  0.84178469635E+02 -0.28054320551E+03  0.31854578589E+03  0.12509018180E+03 0.  0.
         23    2    1    2    0    0 -0.57757436674E+01 -0.84178469635E+02 -0.12291457922E+03  0.17023200332E+03  0.82167920772E+02 0.  0.
          5    1    3    3  502    0  0.28113168387E+02  0.99755929180E+02 -0.13410488140E+03  0.16953815871E+03  0.41800000000E+01 0.  1.
         -5    1    3    3    0  502 -0.22337424719E+02 -0.15577459544E+02 -0.14643832412E+03  0.14900762718E+03  0.41800000000E+01 0.  1.
        -11    1    4    4    0    0  0.22397102057E+02 -0.73424558092E+02 -0.11631501867E+03  0.13936276217E+03  0.00000000000E+00 0. -1.
         11    1    4    4    0    0 -0.28172845724E+02 -0.10753911544E+02 -0.65995605518E+01  0.30869241150E+02  0.00000000000E+00 0.  1.
</event>
<event>
 8    1  0.6834011E-009  0.8373605E+02  0.7561462E-02  0.1318771E+00
          2   -1    0    0  501    0  0.00000000000E+00  0.00000000000E+00  0.21349841705E+04  0.21349841705E+04  0.00000000000E+00 0. -1.
         -2   -1    0    0    0  501 -0.00000000000E+00 -0.00000000000E+00 -0.81911742993E+01  0.81911742993E+01  0.00000000000E+00 0.  1.
         25    2    1    2    0    0  0.17584117714E+01 -0.60992604031E+02  0.16344770600E+04  0.16403920086E+04  0.12508993801E+03 0.  0.
         23    2    1    2    0    0 -0.17584117714E+01  0.60992604031E+02  0.49231593624E+03  0.50278333620E+03  0.81810221384E+02 0.  0.
          5    1    3    3  502    0 -0.14481117984E+01 -0.60184554490E+02  0.30544799872E+03  0.31135226023E+03  0.41800000000E+01 0.  1.
         -5    1    3    3    0  502  0.32065235698E+01 -0.80804954132E+00  0.13290290613E+04  0.13290397484E+04  0.41800000000E+01 0.  1.
        -11    1    4    4    0    0  0.38075566398E+02  0.14930673119E+02  0.18032954558E+03  0.18490921763E+03  0.00000000000E+00 0.  1.
         11    1    4    4    0    0 -0.39833978169E+02  0.46061930912E+02  0.31198639066E+03  0.31787411857E+03  0.00000000000E+00 0. -1.
</event>
<event>
 8    1  0.6834011E-009  0.2191417E+03  0.7561462E-02  0.1134525E+00
          1   -1    0    0  501    0  0.00000000000E+00  0.00000000000E+00  0.69093061556E+03  0.69093061556E+03  0.00000000000E+00 0. -1.
         -1   -1    0    0    0  501 -0.00000000000E+00 -0.00000000000E+00 -0.77165373430E+02  0.77165373430E+02  0.00000000000E+00 0.  1.
         25    2    1    2    0    0  0.18060096989E+03  0.88624569013E+02  0.26833403431E+03  0.35794615435E+03  0.12510503940E+03 0.  0.
         23    2    1    2    0    0 -0.18060096989E+03 -0.88624569013E+02  0.34543120782E+03  0.41014983464E+03  0.91810364146E+02 0.  0.
          5    1    3    3  502    0  0.99727118633E+02 -0.18794055659E+02  0.10093723840E+03  0.14319397059E+03  0.41800000000E+01 0.  1.
         -5    1    3    3    0  502  0.80873851259E+02  0.10741862467E+03  0.16739679592E+03  0.21475218375E+03  0.41800000000E+01 0.  1.
        -11    1    4    4    0    0 -0.71072291586E+02 -0.23985845641E+02  0.54756918254E+02  0.92870401739E+02  0.00000000000E+00 0.  1.
         11    1    4    4    0    0 -0.10952867831E+03 -0.64638723373E+02  0.29067428957E+03  0.31727943291E+03  0.00000000000E+00 0. -1.
</event>
<event>
 8    1  0.6834011E-009  0.8288854E+02  0.7561462E-02  0.1321048E+00
          2   -1    0    0  501    0  0.00000000000E+00  0.00000000000E+00  0.38041546513E+02  0.38041546513E+02  0.00000000000E+00 0. -1.
         -2   -1    0    0    0  501 -0.00000000000E+00 -0.00000000000E+00 -0.31729542932E+03  0.31729542932E+03  0.00000000000E+00 0.  1.
         25    2    1    2    0    0  0.19179095314E+02  0.51061074753E+01 -0.17060427675E+03  0.21247940238E+03  0.12509103549E+03 0.  0.
         23    2    1    2    0    0 -0.19179095314E+02 -0.51061074753E+01 -0.10864960605E+03  0.14285757345E+03  0.90607060241E+02 0.  0.
          5    1    3    3  502    0  0.48869300400E+02  0.84014305912E+01 -0.12209368811E+02  0.51238009761E+02  0.41800000000E+01 0. -1.
         -5    1    3    3    0  502 -0.29690205086E+02 -0.32953231159E+01 -0.15839490794E+03  0.16124139262E+03  0.41800000000E+01 0. -1.
        -11    1    4    4    0    0 -0.32343837359E+02 -0.38307267605E+02 -0.88854138995E+02  0.10202268661E+03  0.00000000000E+00 0.  1.
         11    1    4    4    0    0  0.13164742045E+02  0.33201160130E+02 -0.19795467058E+02  0.40834886839E+02  0.00000000000E+00 0. -1.
</event>
<event>
 8    1  0.6834011E-009  0.1040041E+03  0.7561462E-02  0.1272094E+00
         -1   -1    0    0    0  501 -0.00000000000E+00  0.00000000000E+00  0.19765501750E+03  0.19765501750E+03  0.00000000000E+00 0. -1.
          1   -1    0    0  501    0  0.00000000000E+00 -0.00000000000E+00 -0.98167533820E+02  0.98167533820E+02  0.00000000000E+00 0.  1.
         25    2    1    2    0    0  0.12253039686E+02 -0.50564642389E+02  0.12643349133E+03  0.18530999357E+03  0.12508975156E+03 0.  0.
         23    2    1    2    0    0 -0.12253039686E+02  0.50564642389E+02 -0.26946007657E+02  0.11051255774E+03  0.93701750510E+02 0.  0.
          5    1    3    3  502    0 -0.77286703161E+01  0.40480005945E+02  0.30145359823E+02  0.51230638733E+02  0.41800000000E+01 0.  1.
         -5    1    3    3    0  502  0.19981710002E+02 -0.91044648334E+02  0.96288131510E+02  0.13407935484E+03  0.41800000000E+01 0.  1.
        -11    1    4    4    0    0  0.16589725171E+02  0.18835611800E+01 -0.47470510322E+02  0.50321130097E+02  0.00000000000E+00 0.  1.
         11    1    4    4    0    0 -0.28842764857E+02  0.48681081209E+02  0.20524502666E+02  0.60191427645E+02  0.00000000000E+00 0. -1.
</event>
<event>
 8    1  0.6834011E-009  0.5469824E+02  0.7561462E-02  0.1421531E+00
          3   -1    0    0  501    0  0.00000000000E+00  0.00000000000E+00  0.11893343764E+03  0.11893343764E+03  0.00000000000E+00 0. -1.
         -3   -1    0    0    0  501 -0.00000000000E+00 -0.00000000000E+00 -0.11528898082E+03  0.11528898082E+03  0.00000000000E+00 0.  1.
         25    2    1    2    0    0 -0.37056413599E+02  0.10362789555E+02  0.21030372961E+02  0.13255149708E+03  0.12508819926E+03 0.  0.
         23    2    1    2    0    0  0.37056413599E+02 -0.10362789555E+02 -0.17385916143E+02  0.10167092139E+03  0.92488599189E+02 0.  0.
          5    1    3    3  502    0 -0.15936016326E+02 -0.23372768678E+02 -0.46186775890E+02  0.54322496253E+02  0.41800000000E+01 0.  1.
         -5    1    3    3    0  502 -0.21120397273E+02  0.33735558233E+02  0.67217148852E+02  0.78229000824E+02  0.41800000000E+01 0.  1.
        -11    1    4    4    0    0  0.24617122354E+02 -0.42250639463E-01  0.37275062186E+02  0.44670289445E+02  0.00000000000E+00 0. -1.
         11    1    4    4    0    0  0.12439291245E+02 -0.10320538916E+02 -0.54660978329E+02  0.57000631944E+02  0.00000000000E+00 0.  1.
</event>
<event>
 8    1  0.6834011E-009  0.1051844E+03  0.7561462E-02  0.1269757E+00
          1   -1    0    0  501    0  0.00000000000E+00  0.00000000000E+00  0.46387781058E+02  0.46387781058E+02  0.00000000000E+00 0. -1.
         -1   -1    0    0    0  501 -0.00000000000E+00 -0.00000000000E+00 -0.45159770102E+03  0.45159770102E+03  0.00000000000E+00 0.  1.
         25    2    1    2    0    0  0.28159482964E+02  0.46286952545E+02 -0.85742260584E+02  0.16104436977E+03  0.12509242714E+03 0.  0.
         23    2    1    2    0    0 -0.28159482964E+02 -0.46286952545E+02 -0.31946765938E+03  0.33694111231E+03  0.92381217351E+02 0.  0.
          5    1    3    3  502    0 -0.30871362244E+02  0.60987405951E+01  0.16877622029E+02  0.35952220641E+02  0.41800000000E+01 0.  1.
         -5    1    3    3    0  502  0.59030845208E+02  0.40188211950E+02 -0.10261988261E+03  0.12509214913E+03  0.41800000000E+01 0.  1.
        -11    1    4    4    0    0 -0.39910018903E+02 -0.70026626466E+02 -0.23876428057E+03  0.25200182480E+03  0.00000000000E+00 0.  1.
         11    1    4    4    0    0  0.11750535939E+02  0.23739673921E+02 -0.80703378810E+02  0.84939287518E+02  0.00000000000E+00 0. -1.
</event>
<event>
 8    1  0.6834011E-009  0.1330554E+03  0.7561462E-02  0.1222991E+00
         -1   -1    0    0    0  501 -0.00000000000E+00  0.00000000000E+00  0.30289538373E+02  0.30289538373E+02  0.00000000000E+00 0.  1.
          1   -1    0    0  501    0  0.00000000000E+00 -0.00000000000E+00 -0.78467449727E+03  0.78467449727E+03  0.00000000000E+00 0. -1.
         25    2    1    2    0    0  0.86861485212E+02  0.20010180531E+02 -0.24072735721E+03  0.28555585342E+03  0.12508860851E+03 0.  0.
         23    2    1    2    0    0 -0.86861485212E+02 -0.20010180531E+02 -0.51365760169E+03  0.52940818221E+03  0.92106279307E+02 0.  0.
          5    1    3    3  502    0  0.10359304712E+03 -0.12182444880E+02 -0.22012733678E+03  0.24362563119E+03  0.41800000000E+01 0.  1.
         -5    1    3    3    0  502 -0.16731561912E+02  0.32192625411E+02 -0.20600020426E+02  0.41930222232E+02  0.41800000000E+01 0.  1.
        -11    1    4    4    0    0 -0.74463805135E+02  0.24972141112E+02 -0.26429630107E+03  0.27571906149E+03  0.00000000000E+00 0.  1.
         11    1    4    4    0    0 -0.12397680078E+02 -0.44982321643E+02 -0.24936130061E+03  0.25368912073E+03  0.00000000000E+00 0. -1.
</event>
<event>
 8    1  0.6834011E-009  0.1316323E+03  0.7561462E-02  0.1225054E+00
          1   -1    0    0  501    0  0.00000000000E+00  0.00000000000E+00  0.26528347176E+02  0.26528347176E+02  0.00000000000E+00 0. -1.
         -1   -1    0    0    0  501 -0.00000000000E+00 -0.00000000000E+00 -0.76530379568E+03  0.76530379568E+03  0.00000000000E+00 0.  1.
         25    2    1    2    0    0 -0.56021613106E+02  0.49886298571E+02 -0.25440827485E+03  0.29325410343E+03  0.12508930790E+03 0.  0.
         23    2    1    2    0    0  0.56021613106E+02 -0.49886298571E+02 -0.48436717366E+03  0.49857803942E+03  0.91331476269E+02 0.  0.
          5    1    3    3  502    0 -0.45847034338E+02 -0.36050198899E+02 -0.11731145910E+03  0.13107638320E+03  0.41800000000E+01 0.  1.
         -5    1    3    3    0  502 -0.10174578769E+02  0.85936497470E+02 -0.13709681575E+03  0.16217772023E+03  0.41800000000E+01 0.  1.
        -11    1    4    4    0    0  0.41538683151E+02 -0.76957585089E+02 -0.35319368425E+03  0.36385946558E+03  0.00000000000E+00 0.  1.
         11    1    4    4    0    0  0.14482929956E+02  0.27071286519E+02 -0.13117348941E+03  0.13471857384E+03  0.00000000000E+00 0. -1.
</event>
<event>
 8    1  0.6834011E-009  0.2006505E+03  0.7561462E-02  0.1149191E+00
          2   -1    0    0  501    0  0.00000000000E+00  0.00000000000E+00  0.12718951077E+04  0.12718951077E+04  0.00000000000E+00 0. -1.
         -2   -1    0    0    0  501 -0.00000000000E+00 -0.00000000000E+00 -0.79017020183E+02  0.79017020183E+02  0.00000000000E+00 0.  1.
         25    2    1    2    0    0 -0.80802549455E+01 -0.19558506632E+03  0.10861381308E+04  0.11107031035E+04  0.12508611470E+03 0.  0.
         23    2    1    2    0    0  0.80802549455E+01  0.19558506632E+03  0.10673995672E+03  0.24020902446E+03  0.89376442002E+02 0.  0.
          5    1    3    3  502    0 -0.12911467667E+02 -0.17440353711E+03  0.62456880186E+03  0.64860385477E+03  0.41800000000E+01 0.  1.
         -5    1    3    3    0  502  0.48312127216E+01 -0.21181529208E+02  0.46156932898E+03  0.46209924871E+03  0.41800000000E+01 0.  1.
        -11    1    4    4    0    0  0.31399963213E+02  0.73062087891E+02  0.57588240984E+01  0.79731991269E+02  0.00000000000E+00 0.  1.
         11    1    4    4    0    0 -0.23319708268E+02  0.12252297843E+03  0.10098113262E+03  0.16047703319E+03  0.00000000000E+00 0. -1.
</event>
<event>
 8    1  0.6834011E-009  0.1183873E+03  0.7561462E-02  0.1245781E+00
          1   -1    0    0  501    0  0.00000000000E+00  0.00000000000E+00  0.25951147442E+02  0.25951147442E+02  0.00000000000E+00 0. -1.
         -1   -1    0    0    0  501 -0.00000000000E+00 -0.00000000000E+00 -0.60867977624E+03  0.60867977624E+03  0.00000000000E+00 0.  1.
         25    2    1    2    0    0  0.61262237820E+02  0.19001957825E+02 -0.29911106466E+03  0.33049907451E+03  0.12509225820E+03 0.  0.
         23    2    1    2    0    0 -0.61262237820E+02 -0.19001957825E+02 -0.28361756413E+03  0.30413184917E+03  0.89124198806E+02 0.  0.
          5    1    3    3  502    0  0.15187223278E+02 -0.51080685379E+02 -0.83866725921E+02  0.99453447836E+02  0.41800000000E+01 0. -1.
         -5    1    3    3    0  502  0.46075014543E+02  0.70082643203E+02 -0.21524433874E+03  0.23104562667E+03  0.41800000000E+01 0. -1.
        -11    1    4    4    0    0  0.80827011288E+01 -0.28251833330E+02 -0.15459485608E+03  0.15736284717E+03  0.00000000000E+00 0.  1.
         11    1    4    4    0    0 -0.69344938949E+02  0.92498755057E+01 -0.12902270805E+03  0.14676900200E+03  0.00000000000E+00 0. -1.
</event>
<event>
 8    1  0.6834011E-009  0.9740296E+02  0.7561462E-02  0.1285854E+00
         -1   -1    0    0    0  501 -0.00000000000E+00  0.00000000000E+00  0.72259364789E+02  0.72259364789E+02  0.00000000000E+00 0.  1.
          1   -1    0    0  501    0  0.00000000000E+00 -0.00000000000E+00 -0.18903471921E+03  0.18903471921E+03  0.00000000000E+00 0. -1.
         25    2    1    2    0    0  0.33089180064E+02 -0.26566615102E+02 -0.69300651376E+02  0.14916605936E+03  0.12508898476E+03 0.  0.
         23    2    1    2    0    0 -0.33089180064E+02  0.26566615102E+02 -0.47474703047E+02  0.11212802464E+03  0.92293919655E+02 0.  0.
          5    1    3    3  502    0  0.34312409302E+02 -0.71773181803E+02 -0.66314028006E+02  0.10365208039E+03  0.41800000000E+01 0. -1.
         -5    1    3    3    0  502 -0.12232292380E+01  0.45206566701E+02 -0.29866233700E+01  0.45513978972E+02  0.41800000000E+01 0.  1.
        -11    1    4    4    0    0 -0.41343047249E+02 -0.58637937658E+00  0.14619563442E+02  0.43855706947E+02  0.00000000000E+00 0.  1.
         11    1    4    4    0    0  0.82538671842E+01  0.27152994478E+02 -0.62094266488E+02  0.68272317694E+02  0.00000000000E+00 0. -1.
</event>
<event>
 8    1  0.6834011E-009  0.1149844E+03  0.7561462E-02  0.1251608E+00
         -2   -1    0    0    0  501 -0.00000000000E+00  0.00000000000E+00  0.21860936516E+02  0.21860936516E+02  0.00000000000E+00 0.  1.
          2   -1    0    0  501    0  0.00000000000E+00 -0.00000000000E+00 -0.86475982606E+03  0.86475982606E+03  0.00000000000E+00 0. -1.
         25    2    1    2    0    0 -0.62896893830E+02 -0.20998628335E+02 -0.61725188984E+03  0.63328049115E+03  0.12508926136E+03 0.  0.
         23    2    1    2    0    0  0.62896893830E+02  0.20998628335E+02 -0.22564699970E+03  0.25334027143E+03  0.94168800609E+02 0.  0.
          5    1    3    3  502    0 -0.93148379017E+02 -0.85912425536E+01 -0.29882931052E+03  0.31315628556E+03  0.41800000000E+01 0. -1.
         -5    1    3    3    0  502  0.30251485187E+02 -0.12407385781E+02 -0.31842257933E+03  0.32012420559E+03  0.41800000000E+01 0. -1.
        -11    1    4    4    0    0  0.68099395311E+02 -0.12697636459E+02 -0.90560442282E+02  0.11401732903E+03  0.00000000000E+00 0. -1.
         11    1    4    4    0    0 -0.52025014809E+01  0.33696264794E+02 -0.13508655742E+03  0.13932294239E+03  0.00000000000E+00 0.  1.
</event>
<event>
 8    1  0.6834011E-009  0.1500231E+03  0.7561462E-02  0.1200445E+00
          2   -1    0    0  501    0  0.00000000000E+00  0.00000000000E+00  0.38916247626E+03  0.38916247626E+03  0.00000000000E+00 0. -1.
         -2   -1    0    0    0  501 -0.00000000000E+00 -0.00000000000E+00 -0.67505447758E+02  0.67505447758E+02  0.00000000000E+00 0.  1.
         25    2    1    2    0    0 -0.89784417416E+02  0.52654411651E+02  0.25708067418E+03  0.30425238316E+03  0.12508121741E+03 0.  0.
         23    2    1    2    0    0  0.89784417416E+02 -0.52654411651E+02  0.64576354326E+02  0.15241554086E+03  0.90700953024E+02 0.  0.
          5    1    3    3  502    0 -0.59720583855E+02 -0.35070027452E+02  0.12203693223E+03  0.14038140970E+03  0.41800000000E+01 0. -1.
         -5    1    3    3    0  502 -0.30063833561E+02  0.87724439103E+02  0.13504374194E+03  0.16387097346E+03  0.41800000000E+01 0. -1.
        -11    1    4    4    0    0 -0.10952164978E+02 -0.33565723639E+02  0.20372737897E+02  0.40763417062E+02  0.00000000000E+00 0.  1.
         11    1    4    4    0    0  0.10073658239E+03 -0.19088688012E+02  0.44203616429E+02  0.11165212379E+03  0.00000000000E+00 0. -1.
</event>
<event>
 8    1  0.6834011E-009  0.1089691E+03  0.7561462E-02  0.1262491E+00
          1   -1    0    0  501    0  0.00000000000E+00  0.00000000000E+00  0.12528507375E+03  0.12528507375E+03  0.00000000000E+00 0. -1.
         -1   -1    0    0    0  501 -0.00000000000E+00 -0.00000000000E+00 -0.13575669558E+03  0.13575669558E+03  0.00000000000E+00 0.  1.
         25    2    1    2    0    0 -0.27515350864E+02  0.49285503028E+02  0.39749811842E+02  0.14287406689E+03  0.12508715404E+03 0.  0.
         23    2    1    2    0    0  0.27515350864E+02 -0.49285503028E+02 -0.50221433669E+02  0.11816770245E+03  0.90858451231E+02 0.  0.
          5    1    3    3  502    0 -0.50679155267E+02  0.77406053705E+02  0.49383252278E+02  0.10495833428E+03  0.41800000000E+01 0. -1.
         -5    1    3    3    0  502  0.23163804403E+02 -0.28120550677E+02 -0.96334404362E+01  0.37915732611E+02  0.41800000000E+01 0. -1.
        -11    1    4    4    0    0  0.41000845349E+02 -0.37624661894E+01  0.91191794195E+01  0.42170901158E+02  0.00000000000E+00 0. -1.
         11    1    4    4    0    0 -0.13485494486E+02 -0.45523036838E+02 -0.59340613089E+02  0.75996801289E+02  0.00000000000E+00 0.  1.
</event>
<event>
 8    1  0.6834011E-009  0.1207164E+03  0.7561462E-02  0.1241920E+00
          2   -1    0    0  501    0  0.00000000000E+00  0.00000000000E+00  0.44832136737E+03  0.44832136737E+03  0.00000000000E+00 0. -1.
         -2   -1    0    0    0  501 -0.00000000000E+00 -0.00000000000E+00 -0.56262703475E+02  0.56262703475E+02  0.00000000000E+00 0.  1.
         25    2    1    2    0    0  0.49767065186E+01  0.11525553898E+03  0.26177922514E+03  0.31222568189E+03  0.12509159382E+03 0.  0.
         23    2    1    2    0    0 -0.49767065186E+01 -0.11525553898E+03  0.13027943876E+03  0.19235838896E+03  0.81978111514E+02 0.  0.
          5    1    3    3  502    0 -0.12068529951E+02  0.73450816092E+01  0.16666219260E+03  0.16731215880E+03  0.41800000000E+01 0. -1.
         -5    1    3    3    0  502  0.17045236470E+02  0.10791045737E+03  0.95117032538E+02  0.14491352309E+03  0.41800000000E+01 0. -1.
        -11    1    4    4    0    0 -0.12370218134E+02 -0.43170545671E+02  0.10733275591E+03  0.11634878083E+03  0.00000000000E+00 0. -1.
         11    1    4    4    0    0  0.73935116154E+01 -0.72084993305E+02  0.22946682849E+02  0.76009608127E+02  0.00000000000E+00 0.  1.
</event>
<event>
 8    1  0.6834011E-009  0.1237244E+03  0.7561462E-02  0.1237076E+00
         -1   -1    0    0    0  501 -0.00000000000E+00  0.00000000000E+00  0.16228418145E+03  0.16228418145E+03  0.00000000000E+00 0.  1.
          1   -1    0    0  501    0  0.00000000000E+00 -0.00000000000E+00 -0.14088418117E+03  0.14088418117E+03  0.00000000000E+00 0. -1.
         25    2    1    2    0    0 -0.47441229465E+00 -0.10382921253E+03 -0.18066218972E+01  0.16257324775E+03  0.12508423785E+03 0.  0.
         23    2    1    2    0    0  0.47441229465E+00  0.10382921253E+03  0.23206622186E+02  0.14059511487E+03  0.91911416975E+02 0.  0.
          5    1    3    3  502    0  0.26530502292E+02  0.15976263581E+01  0.38047592238E+02  0.46599481080E+02  0.41800000000E+01 0. -1.
         -5    1    3    3    0  502 -0.27004914586E+02 -0.10542683889E+03 -0.39854214135E+02  0.11597376667E+03  0.41800000000E+01 0. -1.
        -11    1    4    4    0    0 -0.19922809946E+02  0.61478886920E+02  0.54153815841E+02  0.84316117458E+02  0.00000000000E+00 0.  1.
         11    1    4    4    0    0  0.20397222241E+02  0.42350325615E+02 -0.30947193656E+02  0.56278997414E+02  0.00000000000E+00 0. -1.
</event>
<event>
 8    1  0.6834011E-009  0.9348324E+02  0.7561462E-02  0.1294629E+00
          1   -1    0    0  501    0  0.00000000000E+00  0.00000000000E+00  0.38494440134E+03  0.38494440134E+03  0.00000000000E+00 0. -1.
         -1   -1    0    0    0  501 -0.00000000000E+00 -0.00000000000E+00 -0.39001755118E+02  0.39001755118E+02  0.00000000000E+00 0.  1.
         25    2    1    2    0    0  0.12889326616E+02  0.26180131778E+02  0.27803666771E+03  0.30627419832E+03  0.12509181397E+03 0.  0.
         23    2    1    2    0    0 -0.12889326616E+02 -0.26180131778E+02  0.67905978505E+02  0.11767195813E+03  0.91563823500E+02 0.  0.
          5    1    3    3  502    0  0.11090274417E+02 -0.31163565786E+02  0.22680868015E+03  0.22924618167E+03  0.41800000000E+01 0.  1.
         -5    1    3    3    0  502  0.17990521985E+01  0.57343697564E+02  0.51227987563E+02  0.77028016649E+02  0.41800000000E+01 0.  1.
        -11    1    4    4    0    0 -0.34073709021E+02 -0.52331075301E+02  0.44167325913E+02  0.76487330761E+02  0.00000000000E+00 0.  1.
         11    1    4    4    0    0  0.21184382405E+02  0.26150943523E+02  0.23738652592E+02  0.41184627374E+02  0.00000000000E+00 0. -1.
</event>
<event>
 8    1  0.6834011E-009  0.1269997E+03  0.7561462E-02  0.1231977E+00
         -1   -1    0    0    0  501 -0.00000000000E+00  0.00000000000E+00  0.29686738956E+02  0.29686738956E+02  0.00000000000E+00 0.  1.
          1   -1    0    0  501    0  0.00000000000E+00 -0.00000000000E+00 -0.61686511671E+03  0.61686511671E+03  0.00000000000E+00 0. -1.
         25    2    1    2    0    0 -0.62025874372E+02  0.34683858845E+02 -0.41460511538E+03  0.43885708597E+03  0.12509181051E+03 0.  0.
         23    2    1    2    0    0  0.62025874372E+02 -0.34683858845E+02 -0.17257326238E+03  0.20769476970E+03  0.91134007456E+02 0.  0.
          5    1    3    3  502    0 -0.54120372144E+02 -0.40765127216E+02 -0.19781172337E+03  0.20913574678E+03  0.41800000000E+01 0.  1.
         -5    1    3    3    0  502 -0.79055022275E+01  0.75448986061E+02 -0.21679339200E+03  0.22972133919E+03  0.41800000000E+01 0.  1.
        -11    1    4    4    0    0  0.22543795527E+02 -0.59416037610E+02 -0.67241834870E+02  0.92520011882E+02  0.00000000000E+00 0.  1.
         11    1    4    4    0    0  0.39482078845E+02  0.24732178765E+02 -0.10533142751E+03  0.11517475782E+03  0.00000000000E+00 0. -1.
</event>
<event>
 8    1  0.6834011E-009  0.1105463E+03  0.7561462E-02  0.1259562E+00
          1   -1    0    0  501    0  0.00000000000E+00  0.00000000000E+00  0.11577229806E+03  0.11577229806E+03  0.00000000000E+00 0. -1.
         -1   -1    0    0    0  501 -0.00000000000E+00 -0.00000000000E+00 -0.19781763138E+03  0.19781763138E+03  0.00000000000E+00 0.  1.
         25    2    1    2    0    0 -0.36910088549E+02 -0.42938177330E+02 -0.13223269852E+03  0.19062928177E+03  0.12509194539E+03 0.  0.
         23    2    1    2    0    0  0.36910088549E+02  0.42938177330E+02  0.50187365205E+02  0.12296064767E+03  0.96925267813E+02 0.  0.
          5    1    3    3  502    0 -0.19761070050E+02  0.42828443126E+02 -0.64033626484E+02  0.79640147858E+02  0.41800000000E+01 0.  1.
         -5    1    3    3    0  502 -0.17149018499E+02 -0.85766620456E+02 -0.68199072037E+02  0.11098913391E+03  0.41800000000E+01 0.  1.
        -11    1    4    4    0    0 -0.17304720049E+02  0.22159442711E+02 -0.18014807520E+02  0.33392027899E+02  0.00000000000E+00 0.  1.
         11    1    4    4    0    0  0.54214808598E+02  0.20778734618E+02  0.68202172725E+02  0.89568619773E+02  0.00000000000E+00 0. -1.
</event>
<event>
 8    1  0.6834011E-009  0.1620103E+03  0.7561462E-02  0.1186446E+00
         -1   -1    0    0    0  501 -0.00000000000E+00  0.00000000000E+00  0.15270539502E+03  0.15270539502E+03  0.00000000000E+00 0.  1.
          1   -1    0    0  501    0  0.00000000000E+00 -0.00000000000E+00 -0.22503213022E+03  0.22503213022E+03  0.00000000000E+00 0. -1.
         25    2    1    2    0    0 -0.14519166649E+03  0.24704368978E+02 -0.67503025584E+02  0.20468234280E+03  0.12508907677E+03 0.  0.
         23    2    1    2    0    0  0.14519166649E+03 -0.24704368978E+02 -0.48237096159E+01  0.17305518243E+03  0.90740851487E+02 0.  0.
          5    1    3    3  502    0 -0.12473278825E+02 -0.15872886211E+02  0.29009158925E+02  0.35588409670E+02  0.41800000000E+01 0.  1.
         -5    1    3    3    0  502 -0.13271838766E+03  0.40577255189E+02 -0.96512184509E+02  0.16909393313E+03  0.41800000000E+01 0.  1.
        -11    1    4    4    0    0  0.13134277645E+03 -0.45992691566E+02  0.16177895144E+02  0.14009988185E+03  0.00000000000E+00 0.  1.
         11    1    4    4    0    0  0.13848890033E+02  0.21288322588E+02 -0.21001604760E+02  0.32955300579E+02  0.00000000000E+00 0. -1.
</event>
<event>
 8    1  0.6834011E-009  0.9235597E+02  0.7561462E-02  0.1297245E+00
         -2   -1    0    0    0  501 -0.00000000000E+00  0.00000000000E+00  0.33897921991E+03  0.33897921991E+03  0.00000000000E+00 0.  1.
          2   -1    0    0  501    0  0.00000000000E+00 -0.00000000000E+00 -0.55744827686E+02  0.55744827686E+02  0.00000000000E+00 0. -1.
         25    2    1    2    0    0  0.30629595335E+02  0.16175001732E+02  0.26396929736E+03  0.29415575217E+03  0.12509202132E+03 0.  0.
         23    2    1    2    0    0 -0.30629595335E+02 -0.16175001732E+02  0.19265094872E+02  0.10056829543E+03  0.92428541984E+02 0.  0.
          5    1    3    3  502    0  0.36598582842E+02 -0.24855469498E+02  0.24387666739E+03  0.24789221837E+03  0.41800000000E+01 0. -1.
         -5    1    3    3    0  502 -0.59689875067E+01  0.41030471230E+02  0.20092629969E+02  0.46263533807E+02  0.41800000000E+01 0. -1.
        -11    1    4    4    0    0  0.32921516303E+02  0.40210978838E+00  0.42598476160E+01  0.33198407035E+02  0.00000000000E+00 0. -1.
         11    1    4    4    0    0 -0.63551111638E+02 -0.16577111520E+02  0.15005247255E+02  0.67369888392E+02  0.00000000000E+00 0.  1.
</event>
<event>
 8    1  0.6834011E-009  0.1477269E+03  0.7561462E-02  0.1203294E+00
          2   -1    0    0  501    0  0.00000000000E+00  0.00000000000E+00  0.93936629445E+03  0.93936629445E+03  0.00000000000E+00 0. -1.
         -2   -1    0    0    0  501 -0.00000000000E+00 -0.00000000000E+00 -0.26732265106E+02  0.26732265106E+02  0.00000000000E+00 0.  1.
         25    2    1    2    0    0  0.95073886891E+02  0.65122889998E+02  0.52198694025E+03  0.54899657335E+03  0.12508731744E+03 0.  0.
         23    2    1    2    0    0 -0.95073886891E+02 -0.65122889998E+02  0.39064708909E+03  0.41710198621E+03  0.89938222750E+02 0.  0.
          5    1    3    3  502    0 -0.87771188894E+01  0.62370761090E+02  0.14971849081E+03  0.16248153294E+03  0.41800000000E+01 0.  1.
         -5    1    3    3    0  502  0.10385100578E+03  0.27521289086E+01  0.37226844944E+03  0.38651504041E+03  0.41800000000E+01 0.  1.
        -11    1    4    4    0    0 -0.45016402538E+02  0.14809619651E+01  0.54101073945E+02  0.70395993834E+02  0.00000000000E+00 0. -1.
         11    1    4    4    0    0 -0.50057484353E+02 -0.66603851964E+02  0.33654601515E+03  0.34670599237E+03  0.00000000000E+00 0.  1.
</event>
<event>
 8    1  0.6834011E-009  0.9381236E+02  0.7561462E-02  0.1293874E+00
         -1   -1    0    0    0  501 -0.00000000000E+00  0.00000000000E+00  0.61310349326E+02  0.61310349326E+02  0.00000000000E+00 0.  1.
          1   -1    0    0  501    0  0.00000000000E+00 -0.00000000000E+00 -0.22427341391E+03  0.22427341391E+03  0.00000000000E+00 0. -1.
         25    2    1    2    0    0  0.32109184033E+02 -0.88274973761E+01 -0.61765570205E+02  0.14343678769E+03  0.12510076735E+03 0.  0.
         23    2    1    2    0    0 -0.32109184033E+02  0.88274973761E+01 -0.10119749438E+03  0.14214697554E+03  0.94105820111E+02 0.  0.
          5    1    3    3  502    0  0.28633244642E+02  0.55717376851E+02 -0.42656389364E+02  0.75903417153E+02  0.41800000000E+01 0. -1.
         -5    1    3    3    0  502  0.34759393912E+01 -0.64544874227E+02 -0.19109180841E+02  0.67533370537E+02  0.41800000000E+01 0. -1.
        -11    1    4    4    0    0 -0.43369534261E+02 -0.33295088895E+01 -0.41497091665E+01  0.43694647472E+02  0.00000000000E+00 0.  1.
         11    1    4    4    0    0  0.11260350228E+02  0.12157006266E+02 -0.97047785209E+02  0.98452328071E+02  0.00000000000E+00 0. -1.
</event>
<event>
 8    1  0.6834011E-009  0.8915645E+02  0.7561462E-02  0.1304907E+00
         -2   -1    0    0    0  501 -0.00000000000E+00  0.00000000000E+00  0.16867770088E+02  0.16867770088E+02  0.00000000000E+00 0.  1.
          2   -1    0    0  501    0  0.00000000000E+00 -0.00000000000E+00 -0.81534207726E+03  0.81534207726E+03  0.00000000000E+00 0. -1.
         25    2    1    2    0    0  0.93323322161E+01  0.99536757376E+01 -0.60094297797E+03  0.61397971901E+03  0.12510980976E+03 0.  0.
         23    2    1    2    0    0 -0.93323322161E+01 -0.99536757376E+01 -0.19753132920E+03  0.21823012834E+03  0.91758350102E+02 0.  0.
          5    1    3    3  502    0 -0.26151379485E+02  0.51219749452E+02 -0.44581934431E+03  0.44953277694E+03  0.41800000000E+01 0.  1.
         -5    1    3    3    0  502  0.35483711701E+02 -0.41266073715E+02 -0.15512363366E+03  0.16444694206E+03  0.41800000000E+01 0.  1.
        -11    1    4    4    0    0 -0.92749298547E+01 -0.37444597800E+02 -0.18322019841E+03  0.18723718470E+03  0.00000000000E+00 0. -1.
         11    1    4    4    0    0 -0.57402361402E-01  0.27490922063E+02 -0.14311130788E+02  0.30992943637E+02  0.00000000000E+00 0.  1.
</event>
<event>
 8    1  0.6834011E-009  0.1036236E+03  0.7561462E-02  0.1272855E+00
          2   -1    0    0  501    0  0.00000000000E+00  0.00000000000E+00  0.35766727739E+03  0.35766727739E+03  0.00000000000E+00 0.  1.
         -2   -1    0    0    0  501 -0.00000000000E+00 -0.00000000000E+00 -0.95961193495E+02  0.95961193495E+02  0.00000000000E+00 0. -1.
         25    2    1    2    0    0  0.88736862137E+01  0.33286085640E+02  0.31778293592E+03  0.34324981105E+03  0.12509089743E+03 0.  0.
         23    2    1    2    0    0 -0.88736862137E+01 -0.33286085640E+02 -0.56076852020E+02  0.11037865984E+03  0.88612241880E+02 0.  0.
          5    1    3    3  502    0  0.52414349732E+02 -0.23457631617E+02  0.15707627094E+03  0.16729600064E+03  0.41800000000E+01 0. -1.
         -5    1    3    3    0  502 -0.43540663519E+02  0.56743717256E+02  0.16070666498E+03  0.17595381040E+03  0.41800000000E+01 0.  1.
        -11    1    4    4    0    0  0.30833659752E+02 -0.15642963216E+02 -0.57286115068E+02  0.66911253548E+02  0.00000000000E+00 0. -1.
         11    1    4    4    0    0 -0.39707345966E+02 -0.17643122423E+02  0.12092630473E+01  0.43467406290E+02  0.00000000000E+00 0.  1.
</event>
<event>
 8    1  0.6834011E-009  0.1032191E+03  0.7561462E-02  0.1273669E+00
         -1   -1    0    0    0  501 -0.00000000000E+00  0.00000000000E+00  0.53841816280E+02  0.53841816280E+02  0.00000000000E+00 0.  1.
          1   -1    0    0  501    0  0.00000000000E+00 -0.00000000000E+00 -0.28437105595E+03  0.28437105595E+03  0.00000000000E+00 0. -1.
         25    2    1    2    0    0  0.11855807602E+02  0.60133132121E+02 -0.13132169118E+03  0.19143742075E+03  0.12508535381E+03 0.  0.
         23    2    1    2    0    0 -0.11855807602E+02 -0.60133132121E+02 -0.99207548495E+02  0.14677545148E+03  0.89131036833E+02 0.  0.
          5    1    3    3  502    0  0.40380921338E+02 -0.20283003863E+02 -0.79441468630E+02  0.91490099967E+02  0.41800000000E+01 0. -1.
         -5    1    3    3    0  502 -0.28525113736E+02  0.80416135985E+02 -0.51880222547E+02  0.99947320784E+02  0.41800000000E+01 0. -1.
        -11    1    4    4    0    0  0.16992944482E+02 -0.23497447111E+02 -0.95718249078E+02  0.10001436592E+03  0.00000000000E+00 0. -1.
         11    1    4    4    0    0 -0.28848752085E+02 -0.36635685010E+02 -0.34892994172E+01  0.46761085567E+02  0.00000000000E+00 0.  1.
</event>
<event>
 8    1  0.6834011E-009  0.6424658E+02  0.7561462E-02  0.1380828E+00
         -3   -1    0    0    0  501 -0.00000000000E+00  0.00000000000E+00  0.26216402936E+03  0.26216402936E+03  0.00000000000E+00 0.  1.
          3   -1    0    0  501    0  0.00000000000E+00 -0.00000000000E+00 -0.48561457122E+02  0.48561457122E+02  0.00000000000E+00 0. -1.
         25    2    1    2    0    0  0.28173377631E+02 -0.11027252026E+02  0.10735637503E+03  0.16759601206E+03  0.12509073709E+03 0.  0.
         23    2    1    2    0    0 -0.28173377631E+02  0.11027252026E+02  0.10624619721E+03  0.14312947442E+03  0.91007980595E+02 0.  0.
          5    1    3    3  502    0  0.12316072554E+01 -0.29212957684E+01  0.13069665156E+03  0.13080190348E+03  0.41800000000E+01 0. -1.
         -5    1    3    3    0  502  0.26941770376E+02 -0.81059562577E+01 -0.23340276529E+02  0.36794108582E+02  0.41800000000E+01 0. -1.
        -11    1    4    4    0    0  0.21662021856E+02  0.33692966959E+02  0.34389549259E+02  0.52792994911E+02  0.00000000000E+00 0. -1.
         11    1    4    4    0    0 -0.49835399487E+02 -0.22665714933E+02  0.71856647948E+02  0.90336479508E+02  0.00000000000E+00 0.  1.
</event>
<event>
 8    1  0.6834011E-009  0.1056510E+03  0.7561462E-02  0.1268842E+00
         -2   -1    0    0    0  501 -0.00000000000E+00  0.00000000000E+00  0.88847790479E+02  0.88847790479E+02  0.00000000000E+00 0.  1.
          2   -1    0    0  501    0  0.00000000000E+00 -0.00000000000E+00 -0.19894895687E+03  0.19894895687E+03  0.00000000000E+00 0. -1.
         25    2    1    2    0    0 -0.49960078181E+02 -0.53671411929E+01  0.24916298233E+01  0.13482876449E+03  0.12509105443E+03 0.  0.
         23    2    1    2    0    0  0.49960078181E+02  0.53671411929E+01 -0.11259279622E+03  0.15296798286E+03  0.90538667998E+02 0.  0.
          5    1    3    3  502    0 -0.86550630982E+02 -0.17273635042E+02 -0.19258409436E+02  0.90430906913E+02  0.41800000000E+01 0. -1.
         -5    1    3    3    0  502  0.36590552802E+02  0.11906493849E+02  0.21750039260E+02  0.44397857582E+02  0.41800000000E+01 0. -1.
        -11    1    4    4    0    0  0.79776207054E+01  0.33019164109E+02 -0.51647404743E+01  0.34359600911E+02  0.00000000000E+00 0.  1.
         11    1    4    4    0    0  0.41982457475E+02 -0.27652022917E+02 -0.10742805574E+03  0.11860838194E+03  0.00000000000E+00 0. -1.
</event>
<event>
 8    1  0.6834011E-009  0.1014780E+03  0.7561462E-02  0.1277218E+00
         -4   -1    0    0    0  501 -0.00000000000E+00  0.00000000000E+00  0.10078641071E+03  0.10078641071E+03  0.00000000000E+00 0.  1.
          4   -1    0    0  501    0  0.00000000000E+00 -0.00000000000E+00 -0.15009137025E+03  0.15009137025E+03  0.00000000000E+00 0. -1.
         25    2    1    2    0    0  0.37759127445E+02 -0.20387643239E+02 -0.67814396650E+02  0.14861740402E+03  0.12508769997E+03 0.  0.
         23    2    1    2    0    0 -0.37759127445E+02  0.20387643239E+02  0.18509437107E+02  0.10226037693E+03  0.90957010318E+02 0.  0.
          5    1    3    3  502    0  0.69313152232E+02 -0.17237852375E+02  0.22663735717E+01  0.71582578020E+02  0.41800000000E+01 0.  1.
         -5    1    3    3    0  502 -0.31554024787E+02 -0.31497908643E+01 -0.70080770222E+02  0.77034826005E+02  0.41800000000E+01 0.  1.
        -11    1    4    4    0    0  0.29111393552E+02  0.13840138680E+02  0.13295032325E+02  0.34868044937E+02  0.00000000000E+00 0.  1.
         11    1    4    4    0    0 -0.66870520997E+02  0.65475045594E+01  0.52144047820E+01  0.67392331995E+02  0.00000000000E+00 0. -1.
</event>
<event>
 8    1  0.6834011E-009  0.1479606E+03  0.7561462E-02  0.1203002E+00
          1   -1    0    0  501    0  0.00000000000E+00  0.00000000000E+00  0.46400245283E+02  0.46400245283E+02  0.00000000000E+00 0. -1.
         -1   -1    0    0    0  501 -0.00000000000E+00 -0.00000000000E+00 -0.60302590118E+03  0.60302590118E+03  0.00000000000E+00 0.  1.
         25    2    1    2    0    0 -0.42240098698E+02  0.11715086831E+03 -0.25633767710E+03  0.31123348771E+03  0.12509487313E+03 0.  0.
         23    2    1    2    0    0  0.42240098698E+02 -0.11715086831E+03 -0.30028797880E+03  0.33819265876E+03  0.93235467195E+02 0.  0.
          5    1    3    3  502    0  0.25394849812E+02  0.73017023823E+02 -0.19477703714E+03  0.20959950086E+03  0.41800000000E+01 0. -1.
         -5    1    3    3    0  502 -0.67634948510E+02  0.44133844488E+02 -0.61560639958E+02  0.10163398684E+03  0.41800000000E+01 0. -1.
        -11    1    4    4    0    0  0.18776126259E+02 -0.11206056941E+03 -0.29109302543E+03  0.31248242125E+03  0.00000000000E+00 0.  1.
         11    1    4    4    0    0  0.23463972439E+02 -0.50902988967E+01 -0.91949533705E+01  0.25710237512E+02  0.00000000000E+00 0. -1.
</event>
<event>
 8    1  0.6834011E-009  0.1459997E+03  0.7561462E-02  0.1205477E+00
          1   -1    0    0  501    0  0.00000000000E+00  0.00000000000E+00  0.47241722787E+03  0.47241722787E+03  0.00000000000E+00 0. -1.
         -1   -1    0    0    0  501 -0.00000000000E+00 -0.00000000000E+00 -0.77426236978E+02  0.77426236978E+02  0.00000000000E+00 0.  1.
         25    2    1    2    0    0 -0.23360342272E+02 -0.94659961581E+02  0.30938785808E+02  0.16159004158E+03  0.12509164301E+03 0.  0.
         23    2    1    2    0    0  0.23360342272E+02  0.94659961581E+02  0.36405220508E+03  0.38825342327E+03  0.93276464007E+02 0.  0.
          5    1    3    3  502    0  0.30546245669E+02 -0.98712335745E+02  0.28700705182E+02  0.10732381483E+03  0.41800000000E+01 0.  1.
         -5    1    3    3    0  502 -0.53906587941E+02  0.40523741638E+01  0.22380806261E+01  0.54266226741E+02  0.41800000000E+01 0.  1.
        -11    1    4    4    0    0 -0.35940457124E+02  0.32520229454E+02  0.11465599974E+03  0.12448003879E+03  0.00000000000E+00 0.  1.
         11    1    4    4    0    0  0.59300799396E+02  0.62139732127E+02  0.24939620534E+03  0.26377338448E+03  0.00000000000E+00 0. -1.
</event>
<event>
 8    1  0.6834011E-009  0.1782881E+03  0.7561462E-02  0.1169470E+00
          2   -1    0    0  501    0  0.00000000000E+00  0.00000000000E+00  0.56979586030E+02  0.56979586030E+02  0.00000000000E+00 0. -1.
         -2   -1    0    0    0  501 -0.00000000000E+00 -0.00000000000E+00 -0.80225466669E+03  0.80225466669E+03  0.00000000000E+00 0.  1.
         25    2    1    2    0    0  0.10176376611E+03 -0.12824978651E+03 -0.55560513505E+03  0.59257800823E+03  0.12509099850E+03 0.  0.
         23    2    1    2    0    0 -0.10176376611E+03  0.12824978651E+03 -0.18966994561E+03  0.26665624450E+03  0.91252356846E+02 0.  0.
          5    1    3    3  502    0  0.11119529054E+02 -0.58884235082E+02 -0.36851700275E+03  0.37338083880E+03  0.41800000000E+01 0.  1.
         -5    1    3    3    0  502  0.90644237055E+02 -0.69365551425E+02 -0.18708813230E+03  0.21919716942E+03  0.41800000000E+01 0.  1.
        -11    1    4    4    0    0 -0.96069068435E+01  0.75488740886E+02 -0.49409139280E+02  0.90730952293E+02  0.00000000000E+00 0. -1.
         11    1    4    4    0    0 -0.92156859265E+02  0.52761045621E+02 -0.14026080633E+03  0.17592529221E+03  0.00000000000E+00 0.  1.
</event>
<event>
 8    1  0.6834011E-009  0.9803139E+02  0.7561462E-02  0.1284491E+00
          2   -1    0    0  501    0  0.00000000000E+00  0.00000000000E+00  0.72244319515E+03  0.72244319515E+03  0.00000000000E+00 0. -1.
         -2   -1    0    0    0  501 -0.00000000000E+00 -0.00000000000E+00 -0.25238316774E+02  0.25238316774E+02  0.00000000000E+00 0.  1.
         25    2    1    2    0    0 -0.36722169707E+02 -0.69556460239E+02  0.43484881335E+03  0.45926853226E+03  0.12508986908E+03 0.  0.
         23    2    1    2    0    0  0.36722169707E+02  0.69556460239E+02  0.26235606502E+03  0.28841297966E+03  0.90358857188E+02 0.  0.
          5    1    3    3  502    0 -0.29506946237E+02  0.57461357801E+01  0.17367387180E+02  0.34968221145E+02  0.41800000000E+01 0.  1.
         -5    1    3    3    0  502 -0.72152234699E+01 -0.75302596019E+02  0.41748142617E+03  0.42430031112E+03  0.41800000000E+01 0.  1.
        -11    1    4    4    0    0  0.28950794083E+02  0.11142847114E+02  0.15608976270E+02  0.34726814712E+02  0.00000000000E+00 0.  1.
         11    1    4    4    0    0  0.77713756238E+01  0.58413613125E+02  0.24674708875E+03  0.25368616495E+03  0.00000000000E+00 0. -1.
</event>
<event>
 8    1  0.6834011E-009  0.1274140E+03  0.7561462E-02  0.1231344E+00
         -1   -1    0    0    0  501 -0.00000000000E+00  0.00000000000E+00  0.10640595863E+04  0.10640595863E+04  0.00000000000E+00 0.  1.
          1   -1    0    0  501    0  0.00000000000E+00 -0.00000000000E+00 -0.23351893159E+02  0.23351893159E+02  0.00000000000E+00 0. -1.
         25    2    1    2    0    0 -0.58512239859E+02  0.59638714379E+02  0.83108452022E+03  0.84458838629E+03  0.12509038349E+03 0.  0.
         23    2    1    2    0    0  0.58512239859E+02 -0.59638714379E+02  0.20962317294E+03  0.24282309318E+03  0.89670070173E+02 0.  0.
          5    1    3    3  502    0  0.24318227448E+02  0.43810753807E+02  0.51405369220E+03  0.51650694980E+03  0.41800000000E+01 0.  1.
         -5    1    3    3    0  502 -0.82830467307E+02  0.15827960572E+02  0.31703082803E+03  0.32808143649E+03  0.41800000000E+01 0.  1.
        -11    1    4    4    0    0  0.41095883565E+02  0.14788630640E+02  0.10061590381E+03  0.10968653218E+03  0.00000000000E+00 0.  1.
         11    1    4    4    0    0  0.17416356294E+02 -0.74427345020E+02  0.10900726913E+03  0.13313656100E+03  0.00000000000E+00 0. -1.
</event>
<event>
 8    1  0.6834011E-009  0.1073604E+03  0.7561462E-02  0.1265538E+00
          1   -1    0    0  501    0  0.00000000000E+00  0.00000000000E+00  0.21472722742E+02  0.21472722742E+02  0.00000000000E+00 0. -1.
         -1   -1    0    0    0  501 -0.00000000000E+00 -0.00000000000E+00 -0.64805943609E+03  0.64805943609E+03  0.00000000000E+00 0.  1.
         25    2    1    2    0    0 -0.20545466829E+02 -0.16944269956E+02 -0.25110038857E+03  0.28179463663E+03  0.12509031777E+03 0.  0.
         23    2    1    2    0    0  0.20545466829E+02  0.16944269956E+02 -0.37548632477E+03  0.38773752220E+03  0.92957955770E+02 0.  0.
          5    1    3    3  502    0 -0.63639516571E+02 -0.34793210653E+02 -0.19845099335E+03  0.21133107850E+03  0.41800000000E+01 0. -1.
         -5    1    3    3    0  502  0.43094049742E+02  0.17848940697E+02 -0.52649395226E+02  0.70463558134E+02  0.41800000000E+01 0. -1.
        -11    1    4    4    0    0  0.48347456216E+01  0.54404122130E+02 -0.24769553504E+03  0.25364593699E+03  0.00000000000E+00 0.  1.
         11    1    4    4    0    0  0.15710721207E+02 -0.37459852175E+02 -0.12779078973E+03  0.13409158521E+03  0.00000000000E+00 0. -1.
</event>
<event>
 8    1  0.6834011E-009  0.9009549E+02  0.7561462E-02  0.1302621E+00
          1   -1    0    0  501    0  0.00000000000E+00  0.00000000000E+00  0.15987146472E+03  0.15987146472E+03  0.00000000000E+00 0. -1.
         -1   -1    0    0    0  501 -0.00000000000E+00 -0.00000000000E+00 -0.12807877898E+03  0.12807877898E+03  0.00000000000E+00 0.  1.
         25    2    1    2    0    0 -0.10813380055E+02 -0.65900989855E+02 -0.49405917571E+02  0.15016551641E+03  0.12509543547E+03 0.  0.
         23    2    1    2    0    0  0.10813380055E+02  0.65900989855E+02  0.81198603314E+02  0.13778472729E+03  0.89059240068E+02 0.  0.
          5    1    3    3  502    0 -0.20377123841E+02 -0.27716512870E+02  0.39679131110E+02  0.52681477840E+02  0.41800000000E+01 0. -1.
         -5    1    3    3    0  502  0.95637437863E+01 -0.38184476986E+02 -0.89085048681E+02  0.97484038572E+02  0.41800000000E+01 0. -1.
        -11    1    4    4    0    0 -0.34425669333E+02  0.14164340256E+02  0.49930549607E+02  0.62280133494E+02  0.00000000000E+00 0.  1.
         11    1    4    4    0    0  0.45239049388E+02  0.51736649600E+02  0.31268053706E+02  0.75504593794E+02  0.00000000000E+00 0. -1.
</event>
<event>
 8    1  0.6834011E-009  0.1172881E+03  0.7561462E-02  0.1247639E+00
         -2   -1    0    0    0  501 -0.00000000000E+00  0.00000000000E+00  0.15950235984E+03  0.15950235984E+03  0.00000000000E+00 0.  1.
          2   -1    0    0  501    0  0.00000000000E+00 -0.00000000000E+00 -0.15476225900E+03  0.15476225900E+03  0.00000000000E+00 0. -1.
         25    2    1    2    0    0  0.15650682597E+02  0.97415128272E+02  0.56726194464E+02  0.16911571817E+03  0.12509042294E+03 0.  0.
         23    2    1    2    0    0 -0.15650682597E+02 -0.97415128272E+02 -0.51986093615E+02  0.14514890067E+03  0.92903166547E+02 0.  0.
          5    1    3    3  502    0 -0.23376074292E+02  0.13794874583E+02  0.70556086451E+02  0.75712437217E+02  0.41800000000E+01 0.  1.
         -5    1    3    3    0  502  0.39026756889E+02  0.83620253689E+02 -0.13829891987E+02  0.93403280953E+02  0.41800000000E+01 0.  1.
        -11    1    4    4    0    0 -0.37618039208E+02 -0.50843593552E+02  0.10571745262E+02  0.64124485783E+02  0.00000000000E+00 0.  1.
         11    1    4    4    0    0  0.21967356611E+02 -0.46571534720E+02 -0.62557838877E+02  0.81024414886E+02  0.00000000000E+00 0. -1.
</event>
<event>
 8    1  0.6834011E-009  0.1947385E+03  0.7561462E-02  0.1154256E+00
          2   -1    0    0  501    0  0.00000000000E+00  0.00000000000E+00  0.34693327097E+03  0.34693327097E+03  0.00000000000E+00 0. -1.
         -2   -1    0    0    0  501 -0.00000000000E+00 -0.00000000000E+00 -0.17455280061E+03  0.17455280061E+03  0.00000000000E+00 0.  1.
         25    2    1    2    0    0  0.72763724819E+02 -0.16944521646E+03 -0.39520128080E+02  0.22630915307E+03  0.12509097173E+03 0.  0.
         23    2    1    2    0    0 -0.72763724819E+02  0.16944521646E+03  0.21190059843E+03  0.29517691851E+03  0.90671431947E+02 0.  0.
          5    1    3    3  502    0  0.45135084140E+02 -0.68864053289E+02 -0.79494769045E+02  0.11452652252E+03  0.41800000000E+01 0. -1.
         -5    1    3    3    0  502  0.27628640679E+02 -0.10058116317E+03  0.39974640966E+02  0.11178263055E+03  0.41800000000E+01 0. -1.
        -11    1    4    4    0    0 -0.13270257046E+01  0.10916094180E+03  0.89505001037E+02  0.14117017185E+03  0.00000000000E+00 0. -1.
         11    1    4    4    0    0 -0.71436699114E+02  0.60284274669E+02  0.12239559740E+03  0.15400674665E+03  0.00000000000E+00 0.  1.
</event>
<event>
 8    1  0.6834011E-009  0.7848583E+02  0.7561462E-02  0.1333404E+00
          4   -1    0    0  501    0  0.00000000000E+00  0.00000000000E+00  0.92151818957E+02  0.92151818957E+02  0.00000000000E+00 0.  1.
         -4   -1    0    0    0  501 -0.00000000000E+00 -0.00000000000E+00 -0.13978672773E+03  0.13978672773E+03  0.00000000000E+00 0. -1.
         25    2    1    2    0    0  0.34905786320E+01 -0.15964160417E+02 -0.67948013916E+01  0.12633948016E+03  0.12509379027E+03 0.  0.
         23    2    1    2    0    0 -0.34905786320E+01  0.15964160417E+02 -0.40840107377E+02  0.10559906652E+03  0.96001093342E+02 0.  0.
          5    1    3    3  502    0 -0.28112842555E+02  0.36531473272E+02  0.29607493407E+02  0.54945031821E+02  0.41800000000E+01 0. -1.
         -5    1    3    3    0  502  0.31603421187E+02 -0.52495633690E+02 -0.36402294798E+02  0.71394448340E+02  0.41800000000E+01 0. -1.
        -11    1    4    4    0    0 -0.81563167666E+01 -0.15471156251E+02 -0.63954285194E+02  0.66302584969E+02  0.00000000000E+00 0. -1.
         11    1    4    4    0    0  0.46657381346E+01  0.31435316668E+02  0.23114177817E+02  0.39296481554E+02  0.00000000000E+00 0.  1.
</event>
<event>
 8    1  0.6834011E-009  0.8760203E+02  0.7561462E-02  0.1308765E+00
         -2   -1    0    0    0  501 -0.00000000000E+00  0.00000000000E+00  0.59848391810E+02  0.59848391810E+02  0.00000000000E+00 0.  1.
          2   -1    0    0  501    0  0.00000000000E+00 -0.00000000000E+00 -0.29159724766E+03  0.29159724766E+03  0.00000000000E+00 0. -1.
         25    2    1    2    0    0 -0.39182925000E+02 -0.61184573295E+02 -0.15315250800E+03  0.21066538024E+03  0.12508140591E+03 0.  0.
         23    2    1    2    0    0  0.39182925000E+02  0.61184573295E+02 -0.78596347854E+02  0.14078025923E+03  0.91448575017E+02 0.  0.
          5    1    3    3  502    0 -0.21926977866E+02 -0.25958141395E+02  0.15413179486E+02  0.37545385401E+02  0.41800000000E+01 0.  1.
         -5    1    3    3    0  502 -0.17255947133E+02 -0.35226431899E+02 -0.16856568749E+03  0.17311999484E+03  0.41800000000E+01 0.  1.
        -11    1    4    4    0    0 -0.10773456453E+02  0.48904000864E+02 -0.40953704992E+01  0.50243812793E+02  0.00000000000E+00 0.  1.
         11    1    4    4    0    0  0.49956381453E+02  0.12280572431E+02 -0.74500977355E+02  0.90536446439E+02  0.00000000000E+00 0. -1.
</event>
<event>
 8    1  0.6834011E-009  0.1099381E+03  0.7561462E-02  0.1260685E+00
         -4   -1    0    0    0  501 -0.00000000000E+00  0.00000000000E+00  0.98639005473E+02  0.98639005473E+02  0.00000000000E+00 0. -1.
          4   -1    0    0  501    0  0.00000000000E+00 -0.00000000000E+00 -0.15902011026E+03  0.15902011026E+03  0.00000000000E+00 0.  1.
         25    2    1    2    0    0 -0.56127335095E+02 -0.20379373551E+02 -0.10009333535E+02  0.13897402172E+03  0.12509194756E+03 0.  0.
         23    2    1    2    0    0  0.56127335095E+02  0.20379373551E+02 -0.50371771249E+02  0.11868509401E+03  0.89348976430E+02 0.  0.
          5    1    3    3  502    0  0.64464848896E+01  0.46159833688E+02 -0.82836274789E+01  0.47522397853E+02  0.41800000000E+01 0. -1.
         -5    1    3    3    0  502 -0.62573819985E+02 -0.66539207238E+02 -0.17257060558E+01  0.91451623872E+02  0.41800000000E+01 0. -1.
        -11    1    4    4    0    0  0.31645734217E+02  0.39477832512E+02  0.92763320978E+01  0.51439304924E+02  0.00000000000E+00 0. -1.
         11    1    4    4    0    0  0.24481600878E+02 -0.19098458961E+02 -0.59648103347E+02  0.67245789081E+02  0.00000000000E+00 0.  1.
</event>
<event>
 8    1  0.6834011E-009  0.8906883E+02  0.7561462E-02  0.1305122E+00
          2   -1    0    0  501    0  0.00000000000E+00  0.00000000000E+00  0.60111019413E+03  0.60111019413E+03  0.00000000000E+00 0. -1.
         -2   -1    0    0    0  501 -0.00000000000E+00 -0.00000000000E+00 -0.32394875113E+02  0.32394875113E+02  0.00000000000E+00 0.  1.
         25    2    1    2    0    0 -0.64536112459E+02  0.31913986647E+02  0.41135185330E+03  0.43593700556E+03  0.12508922113E+03 0.  0.
         23    2    1    2    0    0  0.64536112459E+02 -0.31913986647E+02  0.15736346572E+03  0.19756806369E+03  0.95322962042E+02 0.  0.
          5    1    3    3  502    0 -0.67051658528E+02  0.40846832724E+02  0.11441625455E+03  0.13882701596E+03  0.41800000000E+01 0. -1.
         -5    1    3    3    0  502  0.25155460692E+01 -0.89328460769E+01  0.29693559875E+03  0.29710998960E+03  0.41800000000E+01 0. -1.
        -11    1    4    4    0    0  0.62187341894E+02 -0.44539791520E+02  0.16552984381E+03  0.18234908202E+03  0.00000000000E+00 0. -1.
         11    1    4    4    0    0  0.23487705657E+01  0.12625804873E+02 -0.81663780965E+01  0.15218981670E+02  0.00000000000E+00 0.  1.
</event>
<event>
 8    1  0.6834011E-009  0.1532010E+03  0.7561462E-02  0.1196594E+00
         -2   -1    0    0    0  501 -0.00000000000E+00  0.00000000000E+00  0.53625145683E+02  0.53625145683E+02  0.00000000000E+00 0.  1.
          2   -1    0    0  501    0  0.00000000000E+00 -0.00000000000E+00 -0.47586787636E+03  0.47586787636E+03  0.00000000000E+00 0. -1.
         25    2    1    2    0    0  0.11509257964E+03 -0.14219414084E+02 -0.24195567638E+03  0.29603780051E+03  0.12508931357E+03 0.  0.
         23    2    1    2    0    0 -0.11509257964E+03  0.14219414084E+02 -0.18028705429E+03  0.23345522154E+03  0.92463100153E+02 0.  0.
          5    1    3    3  502    0  0.17718414885E+02  0.43147865844E+02 -0.29476533709E+02  0.55335512941E+02  0.41800000000E+01 0. -1.
         -5    1    3    3    0  502  0.97374164760E+02 -0.57367279928E+02 -0.21247914267E+03  0.24070228756E+03  0.41800000000E+01 0. -1.
        -11    1    4    4    0    0 -0.41495855458E+02 -0.37976240046E+02 -0.51908155631E+02  0.76541214057E+02  0.00000000000E+00 0.  1.
         11    1    4    4    0    0 -0.73596724186E+02  0.52195654130E+02 -0.12837889866E+03  0.15691400748E+03  0.00000000000E+00 0. -1.
</event>
<event>
 8    1  0.6834011E-009  0.1130533E+03  0.7561462E-02  0.1255018E+00
         -2   -1    0    0    0  501 -0.00000000000E+00  0.00000000000E+00  0.89502653497E+02  0.89502653497E+02  0.00000000000E+00 0.  1.
          2   -1    0    0  501    0  0.00000000000E+00 -0.00000000000E+00 -0.28305113937E+03  0.28305113937E+03  0.00000000000E+00 0. -1.
         25    2    1    2    0    0  0.11038135759E+03  0.45223206090E+01 -0.14539784236E+03  0.22134376332E+03  0.12509210011E+03 0.  0.
         23    2    1    2    0    0 -0.11038135759E+03 -0.45223206090E+01 -0.48150643516E+02  0.15121002955E+03  0.91331774752E+02 0.  0.
          5    1    3    3  502    0  0.62300624370E+02  0.66854578824E+01 -0.15916878042E+03  0.17110884315E+03  0.41800000000E+01 0. -1.
         -5    1    3    3    0  502  0.48080733215E+02 -0.21631372734E+01  0.13770938060E+02  0.50234920169E+02  0.41800000000E+01 0. -1.
        -11    1    4    4    0    0 -0.77721124030E+02 -0.17815109381E+02  0.12835853597E+02  0.80763298474E+02  0.00000000000E+00 0.  1.
         11    1    4    4    0    0 -0.32660233555E+02  0.13292788772E+02 -0.60986497113E+02  0.70446731076E+02  0.00000000000E+00 0. -1.
</event>
<event>
 8    1  0.6834011E-009  0.1878858E+03  0.7561462E-02  0.1160382E+00
          2   -1    0    0  501    0  0.00000000000E+00  0.00000000000E+00  0.15203536543E+03  0.15203536543E+03  0.00000000000E+00 0. -1.
         -2   -1    0    0    0  501 -0.00000000000E+00 -0.00000000000E+00 -0.26501143644E+03  0.26501143644E+03  0.00000000000E+00 0.  1.
         25    2    1    2    0    0 -0.16506394818E+03  0.33609495042E+02 -0.64648959162E+02  0.21956145044E+03  0.12510810306E+03 0.  0.
         23    2    1    2    0    0  0.16506394818E+03 -0.33609495042E+02 -0.48327111847E+02  0.19748535143E+03  0.91045313674E+02 0.  0.
          5    1    3    3  502    0 -0.14185993482E+03  0.73196067462E+02 -0.31403838954E+02  0.16274390588E+03  0.41800000000E+01 0.  1.
         -5    1    3    3    0  502 -0.23204013360E+02 -0.39586572420E+02 -0.33245120208E+02  0.56817544559E+02  0.41800000000E+01 0.  1.
        -11    1    4    4    0    0  0.33640633267E+02  0.24506962498E+01 -0.51039303524E+02  0.61177680758E+02  0.00000000000E+00 0.  1.
         11    1    4    4    0    0  0.13142331491E+03 -0.36060191292E+02  0.27121916766E+01  0.13630767067E+03  0.00000000000E+00 0. -1.
</event>
<event>
 8    1  0.6834011E-009  0.1545860E+03  0.7561462E-02  0.1194948E+00
         -1   -1    0    0    0  501 -0.00000000000E+00  0.00000000000E+00  0.22406128052E+03  0.22406128052E+03  0.00000000000E+00 0.  1.
          1   -1    0    0  501    0  0.00000000000E+00 -0.00000000000E+00 -0.23537981934E+03  0.23537981934E+03  0.00000000000E+00 0. -1.
         25    2    1    2    0    0 -0.70770180567E+02  0.10354542782E+03  0.15293965308E+03  0.23402708216E+03  0.12509222047E+03 0.  0.
         23    2    1    2    0    0  0.70770180567E+02 -0.10354542782E+03 -0.16425819189E+03  0.22541401770E+03  0.90003620457E+02 0.  0.
          5    1    3    3  502    0 -0.10589674309E+03  0.90129475553E+02  0.12452244369E+03  0.18671034771E+03  0.41800000000E+01 0. -1.
         -5    1    3    3    0  502  0.35126562519E+02  0.13415952265E+02  0.28417209390E+02  0.47316734451E+02  0.41800000000E+01 0. -1.
        -11    1    4    4    0    0 -0.14831190534E+01 -0.26689697105E+02  0.37932995682E+01  0.26998679511E+02  0.00000000000E+00 0.  1.
         11    1    4    4    0    0  0.72253299621E+02 -0.76855730712E+02 -0.16805149146E+03  0.19841533819E+03  0.00000000000E+00 0. -1.
</event>
<event>
 8    1  0.6834011E-009  0.1366306E+03  0.7561462E-02  0.1217936E+00
         -1   -1    0    0    0  501 -0.00000000000E+00  0.00000000000E+00  0.55219517371E+02  0.55219517371E+02  0.00000000000E+00 0.  1.
          1   -1    0    0  501    0  0.00000000000E+00 -0.00000000000E+00 -0.57207959368E+03  0.57207959368E+03  0.00000000000E+00 0. -1.
         25    2    1    2    0    0 -0.38677567329E+02 -0.75986001065E+02 -0.47008052883E+03  0.49385519213E+03  0.12508965041E+03 0.  0.
         23    2    1    2    0    0  0.38677567329E+02  0.75986001065E+02 -0.46779547478E+02  0.13344391892E+03  0.91373556687E+02 0.  0.
          5    1    3    3  502    0  0.29225834269E+02  0.16431540657E+02 -0.15189887981E+03  0.15561133315E+03  0.41800000000E+01 0. -1.
         -5    1    3    3    0  502 -0.67903401597E+02 -0.92417541722E+02 -0.31818164902E+03  0.33824385899E+03  0.41800000000E+01 0. -1.
        -11    1    4    4    0    0  0.56075273514E+02  0.10617720379E+02 -0.17126543048E+02  0.59585994684E+02  0.00000000000E+00 0.  1.
         11    1    4    4    0    0 -0.17397706185E+02  0.65368280686E+02 -0.29653004430E+02  0.73857924233E+02  0.00000000000E+00 0. -1.
</event>
<event>
 8    1  0.6834011E-009  0.1220710E+03  0.7561462E-02  0.1239719E+00
          1   -1    0    0  501    0  0.00000000000E+00  0.00000000000E+00  0.19949676684E+03  0.19949676684E+03  0.00000000000E+00 0. -1.
         -1   -1    0    0    0  501 -0.00000000000E+00 -0.00000000000E+00 -0.10644823217E+03  0.10644823217E+03  0.00000000000E+00 0.  1.
         25    2    1    2    0    0 -0.83455242676E+02 -0.47506715943E+02  0.41657661817E+02  0.16310900998E+03  0.12509005859E+03 0.  0.
         23    2    1    2    0    0  0.83455242676E+02  0.47506715943E+02  0.51390872861E+02  0.14283598903E+03  0.92409049122E+02 0.  0.
          5    1    3    3  502    0 -0.16398773433E+02 -0.66616388311E+02 -0.18219670343E+02  0.71106200497E+02  0.41800000000E+01 0. -1.
         -5    1    3    3    0  502 -0.67056469243E+02  0.19109672368E+02  0.59877332159E+02  0.92002809478E+02  0.41800000000E+01 0. -1.
        -11    1    4    4    0    0  0.33792762734E+02  0.44402095778E+02 -0.16934335783E+02  0.58311822568E+02  0.00000000000E+00 0.  1.
         11    1    4    4    0    0  0.49662479942E+02  0.31046201645E+01  0.68325208644E+02  0.84524166465E+02  0.00000000000E+00 0. -1.
</event>
<event>
 8    1  0.6834011E-009  0.8101660E+02  0.7561462E-02  0.1326191E+00
          2   -1    0    0  501    0  0.00000000000E+00  0.00000000000E+00  0.78029735632E+02  0.78029735632E+02  0.00000000000E+00 0. -1.
         -2   -1    0    0    0  501 -0.00000000000E+00 -0.00000000000E+00 -0.15828992751E+03  0.15828992751E+03  0.00000000000E+00 0.  1.
         25    2    1    2    0    0  0.75197721877E+01 -0.34900185464E+02 -0.49381098734E+02  0.13914264281E+03  0.12509041617E+03 0.  0.
         23    2    1    2    0    0 -0.75197721877E+01  0.34900185464E+02 -0.30879093139E+02  0.97177020327E+02  0.84942833525E+02 0.  0.
          5    1    3    3  502    0 -0.37754232287E+02 -0.38383548293E+02  0.18746435897E+02  0.57162750931E+02  0.41800000000E+01 0.  1.
         -5    1    3    3    0  502  0.45274004474E+02  0.34833628290E+01 -0.68127534632E+02  0.81979891880E+02  0.41800000000E+01 0.  1.
        -11    1    4    4    0    0  0.19554429433E+02  0.17526852919E+01  0.21777430832E+02  0.29320711278E+02  0.00000000000E+00 0. -1.
         11    1    4    4    0    0 -0.27074201620E+02  0.33147500172E+02 -0.52656523971E+02  0.67856309049E+02  0.00000000000E+00 0.  1.
</event>
<event>
 8    1  0.6834011E-009  0.1301275E+03  0.7561462E-02  0.1227267E+00
         -2   -1    0    0    0  501 -0.00000000000E+00  0.00000000000E+00  0.13639238626E+03  0.13639238626E+03  0.00000000000E+00 0.  1.
          2   -1    0    0  501    0  0.00000000000E+00 -0.00000000000E+00 -0.16782575898E+03  0.16782575898E+03  0.00000000000E+00 0. -1.
         25    2    1    2    0    0 -0.74979820046E+02 -0.10204193682E+02 -0.88309664774E+02  0.17079814567E+03  0.12508921093E+03 0.  0.
         23    2    1    2    0    0  0.74979820046E+02  0.10204193682E+02  0.56876292056E+02  0.13341999957E+03  0.94020661054E+02 0.  0.
          5    1    3    3  502    0  0.28551482580E+02  0.15614007040E+02 -0.44709449162E+02  0.55456213518E+02  0.41800000000E+01 0.  1.
         -5    1    3    3    0  502 -0.10353130263E+03 -0.25818200722E+02 -0.43600215612E+02  0.11534193216E+03  0.41800000000E+01 0.  1.
        -11    1    4    4    0    0 -0.75943218388E+01 -0.28480208842E+02  0.12669967850E+02  0.32083081292E+02  0.00000000000E+00 0. -1.
         11    1    4    4    0    0  0.82574141885E+02  0.38684402525E+02  0.44206324206E+02  0.10133691828E+03  0.00000000000E+00 0.  1.
</event>
<event>
 8    1  0.6834011E-009  0.1161525E+03  0.7561462E-02  0.1249583E+00
         -1   -1    0    0    0  501 -0.00000000000E+00  0.00000000000E+00  0.23042016565E+03  0.23042016565E+03  0.00000000000E+00 0.  1.
          1   -1    0    0  501    0  0.00000000000E+00 -0.00000000000E+00 -0.62974045072E+02  0.62974045072E+02  0.00000000000E+00 0. -1.
         25    2    1    2    0    0 -0.43790407980E+02 -0.28351336216E+02  0.10684754693E+03  0.17258442013E+03  0.12509031013E+03 0.  0.
         23    2    1    2    0    0  0.43790407980E+02  0.28351336216E+02  0.60598573645E+02  0.12080979060E+03  0.90561693229E+02 0.  0.
          5    1    3    3  502    0 -0.26365062764E+02 -0.76268423652E+02  0.83998120563E+02  0.11655533295E+03  0.41800000000E+01 0. -1.
         -5    1    3    3    0  502 -0.17425345216E+02  0.47917087436E+02  0.22849426372E+02  0.56029087176E+02  0.41800000000E+01 0. -1.
        -11    1    4    4    0    0 -0.11537551818E+02 -0.22441988297E+02  0.31263642521E+02  0.40176775435E+02  0.00000000000E+00 0. -1.
         11    1    4    4    0    0  0.55327959798E+02  0.50793324513E+02  0.29334931124E+02  0.80633015165E+02  0.00000000000E+00 0.  1.
</event>
<event>
 8    1  0.6834011E-009  0.6524030E+02  0.7561462E-02  0.1377070E+00
          1   -1    0    0  501    0  0.00000000000E+00  0.00000000000E+00  0.39685356058E+02  0.39685356058E+02  0.00000000000E+00 0. -1.
         -1   -1    0    0    0  501 -0.00000000000E+00 -0.00000000000E+00 -0.61534106658E+03  0.61534106658E+03  0.00000000000E+00 0.  1.
         25    2    1    2    0    0  0.24390822837E+02  0.29787740875E+01 -0.53897502451E+03  0.55384505350E+03  0.12508589412E+03 0.  0.
         23    2    1    2    0    0 -0.24390822837E+02 -0.29787740875E+01 -0.36680686012E+02  0.10118136914E+03  0.91040712873E+02 0.  0.
          5    1    3    3  502    0  0.28666090000E+02  0.12317566245E+02 -0.54154753775E+03  0.54246168086E+03  0.41800000000E+01 0. -1.
         -5    1    3    3    0  502 -0.42752671634E+01 -0.93387921571E+01  0.25725132443E+01  0.11383372640E+02  0.41800000000E+01 0. -1.
        -11    1    4    4    0    0  0.18925249559E+02  0.28608988516E+02  0.30735027173E+01  0.34439595145E+02  0.00000000000E+00 0. -1.
         11    1    4    4    0    0 -0.43316072396E+02 -0.31587762604E+02 -0.39754188730E+02  0.66741773992E+02  0.00000000000E+00 0.  1.
</event>
<event>
 8    1  0.6834011E-009  0.1206505E+03  0.7561462E-02  0.1242028E+00
          1   -1    0    0  501    0  0.00000000000E+00  0.00000000000E+00  0.14510603615E+03  0.14510603615E+03  0.00000000000E+00 0. -1.
         -1   -1    0    0    0  501 -0.00000000000E+00 -0.00000000000E+00 -0.13420553714E+03  0.13420553714E+03  0.00000000000E+00 0.  1.
         25    2    1    2    0    0  0.78865436195E+02 -0.35567279821E+02 -0.12589887189E+02  0.15261233643E+03  0.12508889460E+03 0.  0.
         23    2    1    2    0    0 -0.78865436195E+02  0.35567279821E+02  0.23490386196E+02  0.12669923685E+03  0.89532731194E+02 0.  0.
          5    1    3    3  502    0 -0.14092874827E+02  0.14064556798E+02 -0.38917835756E+02  0.43914590045E+02  0.41800000000E+01 0. -1.
         -5    1    3    3    0  502  0.92958311021E+02 -0.49631836619E+02  0.26327948568E+02  0.10869774639E+03  0.41800000000E+01 0. -1.
        -11    1    4    4    0    0 -0.35794422061E+02  0.57061482953E+02 -0.99459929719E+01  0.68089472488E+02  0.00000000000E+00 0.  1.
         11    1    4    4    0    0 -0.43071014133E+02 -0.21494203133E+02  0.33436379168E+02  0.58609764363E+02  0.00000000000E+00 0. -1.
</event>
<event>
 8    1  0.6834011E-009  0.1113653E+03  0.7561462E-02  0.1258062E+00
         -1   -1    0    0    0  501 -0.00000000000E+00  0.00000000000E+00  0.47420986596E+02  0.47420986596E+02  0.00000000000E+00 0.  1.
          1   -1    0    0  501    0  0.00000000000E+00 -0.00000000000E+00 -0.30432019205E+03  0.30432019205E+03  0.00000000000E+00 0. -1.
         25    2    1    2    0    0 -0.48983532576E+02  0.24693811164E+02 -0.16344371463E+03  0.21300461348E+03  0.12509175328E+03 0.  0.
         23    2    1    2    0    0  0.48983532576E+02 -0.24693811164E+02 -0.93455490825E+02  0.13873656517E+03  0.86629873460E+02 0.  0.
          5    1    3    3  502    0 -0.89536419209E+02  0.27201047256E+02 -0.95788778921E+02  0.13397622888E+03  0.41800000000E+01 0.  1.
         -5    1    3    3    0  502  0.40552886633E+02 -0.25072360926E+01 -0.67654935708E+02  0.79028384602E+02  0.41800000000E+01 0.  1.
        -11    1    4    4    0    0  0.61136802710E+02 -0.49786986498E+00 -0.26730167356E+02  0.66726744016E+02  0.00000000000E+00 0.  1.
         11    1    4    4    0    0 -0.12153270134E+02 -0.24195941299E+02 -0.66725323469E+02  0.72009821152E+02  0.00000000000E+00 0. -1.
</event>
<event>
 8    1  0.6834011E-009  0.7754950E+02  0.7561462E-02  0.1336153E+00
         -2   -1    0    0    0  501 -0.00000000000E+00  0.00000000000E+00  0.37341083086E+02  0.37341083086E+02  0.00000000000E+00 0. -1.
          2   -1    0    0  501    0  0.00000000000E+00 -0.00000000000E+00 -0.40030379902E+03  0.40030379902E+03  0.00000000000E+00 0.  1.
         25    2    1    2    0    0  0.17994816280E+02 -0.12569832965E+02 -0.11916216619E+03  0.17415660967E+03  0.12509631780E+03 0.  0.
         23    2    1    2    0    0 -0.17994816280E+02  0.12569832965E+02 -0.24380054974E+03  0.26348827243E+03  0.97496397577E+02 0.  0.
          5    1    3    3  502    0  0.37820901415E+02 -0.83150738538E+01  0.12477389178E+02  0.40898883576E+02  0.41800000000E+01 0. -1.
         -5    1    3    3    0  502 -0.19826085136E+02 -0.42547591115E+01 -0.13163955537E+03  0.13325772610E+03  0.41800000000E+01 0. -1.
        -11    1    4    4    0    0 -0.21582202849E+02 -0.38560830119E+02 -0.15261895780E+03  0.15888761871E+03  0.00000000000E+00 0. -1.
         11    1    4    4    0    0  0.35873865692E+01  0.51130663084E+02 -0.91181591938E+02  0.10460065372E+03  0.00000000000E+00 0.  1.
</event>
<event>
 8    1  0.6834011E-009  0.1116920E+03  0.7561462E-02  0.1257468E+00
          3   -1    0    0  501    0  0.00000000000E+00  0.00000000000E+00  0.13634740923E+03  0.13634740923E+03  0.00000000000E+00 0. -1.
         -3   -1    0    0    0  501 -0.00000000000E+00 -0.00000000000E+00 -0.12500522438E+03  0.12500522438E+03  0.00000000000E+00 0.  1.
         25    2    1    2    0    0  0.40323683513E+02  0.56198516327E+02 -0.21169706693E+02  0.14449102452E+03  0.12508088182E+03 0.  0.
         23    2    1    2    0    0 -0.40323683513E+02 -0.56198516327E+02  0.32511891549E+02  0.11686160909E+03  0.88404411075E+02 0.  0.
          5    1    3    3  502    0  0.67741172115E+02  0.47222482982E+02 -0.55403066676E+02  0.99527893053E+02  0.41800000000E+01 0. -1.
         -5    1    3    3    0  502 -0.27417488602E+02  0.89760333444E+01  0.34233359983E+02  0.44963131470E+02  0.41800000000E+01 0. -1.
        -11    1    4    4    0    0 -0.59162482111E+02 -0.78732794911E+01  0.10897556081E+02  0.60670788259E+02  0.00000000000E+00 0.  1.
         11    1    4    4    0    0  0.18838798598E+02 -0.48325236836E+02  0.21614335468E+02  0.56190820830E+02  0.00000000000E+00 0. -1.
</event>
<event>
 8    1  0.6834011E-009  0.1391501E+03  0.7561462E-02  0.1214477E+00
          2   -1    0    0  501    0  0.00000000000E+00  0.00000000000E+00  0.15828886895E+04  0.15828886895E+04  0.00000000000E+00 0. -1.
         -2   -1    0    0    0  501 -0.00000000000E+00 -0.00000000000E+00 -0.15218141392E+02  0.15218141392E+02  0.00000000000E+00 0.  1.
         25    2    1    2    0    0  0.95916918978E+02 -0.18011584942E+02  0.11170263106E+04  0.11282370696E+04  0.12508650596E+03 0.  0.
         23    2    1    2    0    0 -0.95916918978E+02  0.18011584942E+02  0.45064423754E+03  0.46986976138E+03  0.90404044685E+02 0.  0.
          5    1    3    3  502    0  0.11628620994E+03  0.10745343587E+02  0.69834247297E+03  0.70805199455E+03  0.41800000000E+01 0.  1.
         -5    1    3    3    0  502 -0.20369290964E+02 -0.28756928529E+02  0.41868383764E+03  0.42018507500E+03  0.41800000000E+01 0.  1.
        -11    1    4    4    0    0 -0.71795464309E+01  0.34896257035E+02  0.68689523799E+02  0.77379230557E+02  0.00000000000E+00 0.  1.
         11    1    4    4    0    0 -0.88737372547E+02 -0.16884672092E+02  0.38195471374E+03  0.39249053083E+03  0.00000000000E+00 0. -1.
</event>
<event>
 8    1  0.6834011E-009  0.1287114E+03  0.7561462E-02  0.1229380E+00
          1   -1    0    0  501    0  0.00000000000E+00  0.00000000000E+00  0.12712576849E+03  0.12712576849E+03  0.00000000000E+00 0.  1.
         -1   -1    0    0    0  501 -0.00000000000E+00 -0.00000000000E+00 -0.23234711880E+03  0.23234711880E+03  0.00000000000E+00 0. -1.
         25    2    1    2    0    0  0.99622466776E+02 -0.62090834786E+02  0.74811569735E+01  0.17170410726E+03  0.12508567100E+03 0.  0.
         23    2    1    2    0    0 -0.99622466776E+02  0.62090834786E+02 -0.11270250729E+03  0.18776878003E+03  0.93676848542E+02 0.  0.
          5    1    3    3  502    0  0.22858384740E+02 -0.35499397205E+02  0.61019031199E+02  0.74320303574E+02  0.41800000000E+01 0. -1.
         -5    1    3    3    0  502  0.76764082036E+02 -0.26591437581E+02 -0.53537874225E+02  0.97383803685E+02  0.41800000000E+01 0. -1.
        -11    1    4    4    0    0 -0.56846221284E+02 -0.16653886327E+01 -0.72547592404E+01  0.57331474124E+02  0.00000000000E+00 0.  1.
         11    1    4    4    0    0 -0.42776245492E+02  0.63756223419E+02 -0.10544774805E+03  0.13043730590E+03  0.00000000000E+00 0. -1.
</event>
<event>
 8    1  0.6834011E-009  0.1611459E+03  0.7561462E-02  0.1187409E+00
         -2   -1    0    0    0  501 -0.00000000000E+00  0.00000000000E+00  0.78734987458E+02  0.78734987458E+02  0.00000000000E+00 0. -1.
          2   -1    0    0  501    0  0.00000000000E+00 -0.00000000000E+00 -0.46211965961E+03  0.46211965961E+03  0.00000000000E+00 0.  1.
         25    2    1    2    0    0  0.74707164816E+02 -0.13280386275E+03 -0.15399476344E+03  0.25015862509E+03  0.12508766567E+03 0.  0.
         23    2    1    2    0    0 -0.74707164816E+02  0.13280386275E+03 -0.22938990871E+03  0.29069602198E+03  0.93093611704E+02 0.  0.
          5    1    3    3  502    0 -0.67356441641E+01 -0.57939371950E+02  0.24235250631E+01  0.58529356719E+02  0.41800000000E+01 0.  1.
         -5    1    3    3    0  502  0.81442808980E+02 -0.74864490799E+02 -0.15641828850E+03  0.19162926837E+03  0.41800000000E+01 0.  1.
        -11    1    4    4    0    0 -0.34355057938E+02  0.76288210129E+02 -0.47977771974E+02  0.96447019727E+02  0.00000000000E+00 0. -1.
         11    1    4    4    0    0 -0.40352106878E+02  0.56515652620E+02 -0.18141213674E+03  0.19424900225E+03  0.00000000000E+00 0.  1.
</event>
<event>
 8    1  0.6834011E-009  0.1178359E+03  0.7561462E-02  0.1246710E+00
          2   -1    0    0  501    0  0.00000000000E+00  0.00000000000E+00  0.21519907361E+03  0.21519907361E+03  0.00000000000E+00 0. -1.
         -2   -1    0    0    0  501 -0.00000000000E+00 -0.00000000000E+00 -0.82982193466E+02  0.82982193466E+02  0.00000000000E+00 0.  1.
         25    2    1    2    0    0 -0.64916781314E+02  0.23122663681E+02  0.32198627489E+02  0.14640107535E+03  0.12509067583E+03 0.  0.
         23    2    1    2    0    0  0.64916781314E+02 -0.23122663681E+02  0.10001825266E+03  0.15178019173E+03  0.91020490356E+02 0.  0.
          5    1    3    3  502    0  0.25194030250E+02 -0.11532232899E+02 -0.21980658099E+02  0.35613947919E+02  0.41800000000E+01 0.  1.
         -5    1    3    3    0  502 -0.90110811564E+02  0.34654896580E+02  0.54179285589E+02  0.11078712743E+03  0.41800000000E+01 0.  1.
        -11    1    4    4    0    0  0.65126555265E+02  0.19817031410E+02  0.77984148113E+02  0.10351671503E+03  0.00000000000E+00 0. -1.
         11    1    4    4    0    0 -0.20977395041E+00 -0.42939695091E+02  0.22034104546E+02  0.48263476696E+02  0.00000000000E+00 0.  1.
</event>
<event>
 8    1  0.6834011E-009  0.8497638E+02  0.7561462E-02  0.1315494E+00
          2   -1    0    0  501    0  0.00000000000E+00  0.00000000000E+00  0.63162045958E+02  0.63162045958E+02  0.00000000000E+00 0. -1.
         -2   -1    0    0    0  501 -0.00000000000E+00 -0.00000000000E+00 -0.21076715041E+03  0.21076715041E+03  0.00000000000E+00 0.  1.
         25    2    1    2    0    0 -0.34863246003E+02  0.11135116976E+02 -0.10558568063E+03  0.16772598683E+03  0.12507691214E+03 0.  0.
         23    2    1    2    0    0  0.34863246003E+02 -0.11135116976E+02 -0.42019423821E+02  0.10620320954E+03  0.90410469455E+02 0.  0.
          5    1    3    3  502    0 -0.40071417389E+02  0.45072261993E+02 -0.11667247085E+03  0.13140458572E+03  0.41800000000E+01 0.  1.
         -5    1    3    3    0  502  0.52081713867E+01 -0.33937145017E+02  0.11086790221E+02  0.36321401109E+02  0.41800000000E+01 0.  1.
        -11    1    4    4    0    0  0.58444067228E+01 -0.36137148092E+02  0.13273423491E+02  0.38938853775E+02  0.00000000000E+00 0. -1.
         11    1    4    4    0    0  0.29018839280E+02  0.25002031116E+02 -0.55292847311E+02  0.67264355768E+02  0.00000000000E+00 0.  1.
</event>
<event>
 8    1  0.6834011E-009  0.1983860E+03  0.7561462E-02  0.1151108E+00
          1   -1    0    0  501    0  0.00000000000E+00  0.00000000000E+00  0.10913198542E+03  0.10913198542E+03  0.00000000000E+00 0. -1.
         -1   -1    0    0    0  501 -0.00000000000E+00 -0.00000000000E+00 -0.57725754599E+03  0.57725754599E+03  0.00000000000E+00 0.  1.
         25    2    1    2    0    0 -0.16874026239E+03 -0.86252404734E+02 -0.41022194401E+03  0.46887122968E+03  0.12508170609E+03 0.  0.
         23    2    1    2    0    0  0.16874026239E+03  0.86252404734E+02 -0.57903616557E+02  0.21751830173E+03  0.89714153308E+02 0.  0.
          5    1    3    3  502    0 -0.14570137372E+03 -0.83404202826E+02 -0.41230248029E+03  0.44519204733E+03  0.41800000000E+01 0. -1.
         -5    1    3    3    0  502 -0.23038888672E+02 -0.28482019072E+01  0.20805362814E+01  0.23679182346E+02  0.41800000000E+01 0. -1.
        -11    1    4    4    0    0  0.10874926690E+03  0.95276486380E+02 -0.60655521946E+02  0.15679000048E+03  0.00000000000E+00 0.  1.
         11    1    4    4    0    0  0.59990995490E+02 -0.90240816468E+01  0.27519053893E+01  0.60728301250E+02  0.00000000000E+00 0. -1.
</event>
<event>
 8    1  0.6834011E-009  0.1388978E+03  0.7561462E-02  0.1214820E+00
         -1   -1    0    0    0  501 -0.00000000000E+00  0.00000000000E+00  0.18097243804E+03  0.18097243804E+03  0.00000000000E+00 0.  1.
          1   -1    0    0  501    0  0.00000000000E+00 -0.00000000000E+00 -0.16180492336E+03  0.16180492336E+03  0.00000000000E+00 0. -1.
         25    2    1    2    0    0 -0.10096617628E+03  0.85868946400E+02  0.52187620484E-01  0.18225002176E+03  0.12508965983E+03 0.  0.
         23    2    1    2    0    0  0.10096617628E+03 -0.85868946400E+02  0.19115327068E+02  0.16052733964E+03  0.88521106720E+02 0.  0.
          5    1    3    3  502    0 -0.22085135694E+02  0.45802044848E+01 -0.52515109505E+02  0.57306549522E+02  0.41800000000E+01 0. -1.
         -5    1    3    3    0  502 -0.78881040590E+02  0.81288741915E+02  0.52567297126E+02  0.12494347223E+03  0.41800000000E+01 0. -1.
        -11    1    4    4    0    0  0.10482591007E+03 -0.72145131412E+02  0.41620474668E+02  0.13388672570E+03  0.00000000000E+00 0.  1.
         11    1    4    4    0    0 -0.38597337820E+01 -0.13723814988E+02 -0.22505147600E+02  0.26640613942E+02  0.00000000000E+00 0. -1.
</event>
<event>
 8    1  0.6834011E-009  0.1020759E+03  0.7561462E-02  0.1275990E+00
          2   -1    0    0  501    0  0.00000000000E+00  0.00000000000E+00  0.24995857044E+02  0.24995857044E+02  0.00000000000E+00 0. -1.
         -2   -1    0    0    0  501 -0.00000000000E+00 -0.00000000000E+00 -0.50464683245E+03  0.50464683245E+03  0.00000000000E+00 0.  1.
         25    2    1    2    0    0  0.65917586705E+01 -0.25177531512E+01 -0.27012076908E+03  0.29776051045E+03  0.12508517631E+03 0.  0.
         23    2    1    2    0    0 -0.65917586705E+01  0.25177531512E+01 -0.20953020633E+03  0.23188217904E+03  0.99078994904E+02 0.  0.
          5    1    3    3  502    0 -0.23630608551E+02 -0.48424636466E+02 -0.61000652831E+02  0.81497871894E+02  0.41800000000E+01 0.  1.
         -5    1    3    3    0  502  0.30222367222E+02  0.45906883315E+02 -0.20912011625E+03  0.21626263856E+03  0.41800000000E+01 0.  1.
        -11    1    4    4    0    0  0.33291569044E+02 -0.29001166398E+02 -0.13185968239E+03  0.13905528419E+03  0.00000000000E+00 0.  1.
         11    1    4    4    0    0 -0.39883327714E+02  0.31518919549E+02 -0.77670523939E+02  0.92826894853E+02  0.00000000000E+00 0. -1.
</event>
<event>
 8    1  0.6834011E-009  0.1086038E+03  0.7561462E-02  0.1263178E+00
         -2   -1    0    0    0  501 -0.00000000000E+00  0.00000000000E+00  0.51223401372E+02  0.51223401372E+02  0.00000000000E+00 0.  1.
          2   -1    0    0  501    0  0.00000000000E+00 -0.00000000000E+00 -0.30672683778E+03  0.30672683778E+03  0.00000000000E+00 0. -1.
         25    2    1    2    0    0  0.20620091631E+02 -0.50644723309E+02 -0.86984247720E+02  0.16188632106E+03  0.12510333895E+03 0.  0.
         23    2    1    2    0    0 -0.20620091631E+02  0.50644723309E+02 -0.16851918869E+03  0.19606391809E+03  0.83977775896E+02 0.  0.
          5    1    3    3  502    0  0.65054381234E+02 -0.33611359184E+02 -0.87422589830E+02  0.11411387995E+03  0.41800000000E+01 0. -1.
         -5    1    3    3    0  502 -0.44434289603E+02 -0.17033364125E+02  0.43834210970E+00  0.47772441111E+02  0.41800000000E+01 0. -1.
        -11    1    4    4    0    0  0.30416513713E+02  0.22287711328E+02 -0.40373313247E+02  0.55244101995E+02  0.00000000000E+00 0.  1.
         11    1    4    4    0    0 -0.51036605345E+02  0.28357011981E+02 -0.12814587544E+03  0.14081981610E+03  0.00000000000E+00 0. -1.
</event>
<event>
 8    1  0.6834011E-009  0.1400421E+03  0.7561462E-02  0.1213272E+00
          2   -1    0    0  501    0  0.00000000000E+00  0.00000000000E+00  0.53930279247E+02  0.53930279247E+02  0.00000000000E+00 0. -1.
         -2   -1    0    0    0  501 -0.00000000000E+00 -0.00000000000E+00 -0.50164073848E+03  0.50164073848E+03  0.00000000000E+00 0.  1.
         25    2    1    2    0    0  0.62039142750E+02  0.71448235803E+02 -0.37318042191E+03  0.40480251267E+03  0.12509093227E+03 0.  0.
         23    2    1    2    0    0 -0.62039142750E+02 -0.71448235803E+02 -0.74530037324E+02  0.15076850505E+03  0.90679159790E+02 0.  0.
          5    1    3    3  502    0  0.97213186094E+02  0.71671322603E+02 -0.30238360521E+03  0.32563860204E+03  0.41800000000E+01 0. -1.
         -5    1    3    3    0  502 -0.35174043345E+02 -0.22308679948E+00 -0.70796816696E+02  0.79163910637E+02  0.41800000000E+01 0. -1.
        -11    1    4    4    0    0 -0.48612220515E+02  0.24791390528E+01 -0.54367622581E+02  0.72973505458E+02  0.00000000000E+00 0. -1.
         11    1    4    4    0    0 -0.13426922235E+02 -0.73927374856E+02 -0.20162414743E+02  0.77794999596E+02  0.00000000000E+00 0.  1.
</event>
<event>
 8    1  0.6834011E-009  0.7425459E+02  0.7561462E-02  0.1346195E+00
         -2   -1    0    0    0  501 -0.00000000000E+00  0.00000000000E+00  0.12683260245E+02  0.12683260245E+02  0.00000000000E+00 0.  1.
          2   -1    0    0  501    0  0.00000000000E+00 -0.00000000000E+00 -0.92256261904E+03  0.92256261904E+03  0.00000000000E+00 0. -1.
         25    2    1    2    0    0 -0.15543784724E+02 -0.16341495199E+02 -0.66381964038E+03  0.67587800468E+03  0.12508360627E+03 0.  0.
         23    2    1    2    0    0  0.15543784724E+02  0.16341495199E+02 -0.24605971842E+03  0.25936787460E+03  0.78852112455E+02 0.  0.
          5    1    3    3  502    0 -0.43215281169E+02 -0.16262718156E+02 -0.63119223967E+03  0.63289268628E+03  0.41800000000E+01 0.  1.
         -5    1    3    3    0  502  0.27671496445E+02 -0.78777042745E-01 -0.32627400708E+02  0.42985318404E+02  0.41800000000E+01 0.  1.
        -11    1    4    4    0    0  0.22352835805E+02 -0.24262631880E+02 -0.56831642040E+02  0.65712708902E+02  0.00000000000E+00 0.  1.
         11    1    4    4    0    0 -0.68090510808E+01  0.40604127079E+02 -0.18922807638E+03  0.19365516570E+03  0.00000000000E+00 0. -1.
</event>
<event>
 8    1  0.6834011E-009  0.1544849E+03  0.7561462E-02  0.1195068E+00
          1   -1    0    0  501    0  0.00000000000E+00  0.00000000000E+00  0.17710746025E+03  0.17710746025E+03  0.00000000000E+00 0. -1.
         -1   -1    0    0    0  501 -0.00000000000E+00 -0.00000000000E+00 -0.24192348823E+03  0.24192348823E+03  0.00000000000E+00 0.  1.
         25    2    1    2    0    0 -0.11420361047E+03 -0.58670293225E+02 -0.15633495047E+03  0.23785063559E+03  0.12509052785E+03 0.  0.
         23    2    1    2    0    0  0.11420361047E+03  0.58670293225E+02  0.91518922497E+02  0.18118031290E+03  0.89252028860E+02 0.  0.
          5    1    3    3  502    0 -0.12920581869E+03 -0.24286180263E+02 -0.15012441545E+03  0.19959652965E+03  0.41800000000E+01 0.  1.
         -5    1    3    3    0  502  0.15002208213E+02 -0.34384112962E+02 -0.62105350194E+01  0.38254105932E+02  0.41800000000E+01 0.  1.
        -11    1    4    4    0    0  0.83221107712E+02  0.67849414958E+02  0.10109551368E+03  0.14747745172E+03  0.00000000000E+00 0. -1.
         11    1    4    4    0    0  0.30982502761E+02 -0.91791217335E+01 -0.95765911842E+01  0.33702861181E+02  0.00000000000E+00 0.  1.
</event>
<event>
 8    1  0.6834011E-009  0.1384719E+03  0.7561462E-02  0.1215400E+00
          1   -1    0    0  501    0  0.00000000000E+00  0.00000000000E+00  0.22750639696E+03  0.22750639696E+03  0.00000000000E+00 0. -1.
         -1   -1    0    0    0  501 -0.00000000000E+00 -0.00000000000E+00 -0.11190363686E+03  0.11190363686E+03  0.00000000000E+00 0.  1.
         25    2    1    2    0    0  0.28736964220E+02  0.10589591579E+03  0.10941973607E+03  0.19914014048E+03  0.12507741128E+03 0.  0.
         23    2    1    2    0    0 -0.28736964220E+02 -0.10589591579E+03  0.61830240221E+01  0.14026989334E+03  0.87164528901E+02 0.  0.
          5    1    3    3  502    0  0.75440648796E+02  0.40214376674E+02  0.59624074620E+02  0.10431198520E+03  0.41800000000E+01 0.  1.
         -5    1    3    3    0  502 -0.46703684576E+02  0.65681539117E+02  0.49795661450E+02  0.94828155276E+02  0.41800000000E+01 0.  1.
        -11    1    4    4    0    0 -0.12363330321E+02 -0.71437972516E+02 -0.38033075340E+02  0.81870328408E+02  0.00000000000E+00 0. -1.
         11    1    4    4    0    0 -0.16373633899E+02 -0.34457943275E+02  0.44216099362E+02  0.58399564935E+02  0.00000000000E+00 0.  1.
</event>
<event>
 8    1  0.6834011E-009  0.8520059E+02  0.7561462E-02  0.1314909E+00
          2   -1    0    0  501    0  0.00000000000E+00  0.00000000000E+00  0.43379105119E+03  0.43379105119E+03  0.00000000000E+00 0. -1.
         -2   -1    0    0    0  501 -0.00000000000E+00 -0.00000000000E+00 -0.34259058517E+02  0.34259058517E+02  0.00000000000E+00 0.  1.
         25    2    1    2    0    0 -0.20702057740E+02 -0.36110935360E+01  0.32230600714E+03  0.34636807842E+03  0.12509223925E+03 0.  0.
         23    2    1    2    0    0  0.20702057740E+02  0.36110935360E+01  0.77225985537E+02  0.12168203129E+03  0.91657234875E+02 0.  0.
          5    1    3    3  502    0 -0.48685560775E+02  0.33828604001E+01  0.41918515841E+02  0.64469852976E+02  0.41800000000E+01 0.  1.
         -5    1    3    3    0  502  0.27983503034E+02 -0.69939539361E+01  0.28038749130E+03  0.28189822545E+03  0.41800000000E+01 0.  1.
        -11    1    4    4    0    0  0.78747631241E+01 -0.43110351382E+02  0.25042159182E+02  0.50473993571E+02  0.00000000000E+00 0.  1.
         11    1    4    4    0    0  0.12827294616E+02  0.46721444918E+02  0.52183826355E+02  0.71208037716E+02  0.00000000000E+00 0. -1.
</event>
<event>
 8    1  0.6834011E-009  0.1048365E+03  0.7561462E-02  0.1270442E+00
         -1   -1    0    0    0  501 -0.00000000000E+00  0.00000000000E+00  0.32020245880E+02  0.32020245880E+02  0.00000000000E+00 0.  1.
          1   -1    0    0  501    0  0.00000000000E+00 -0.00000000000E+00 -0.73102437393E+03  0.73102437393E+03  0.00000000000E+00 0. -1.
         25    2    1    2    0    0  0.88940560503E+02  0.16117053581E+02 -0.50744447125E+03  0.53039512662E+03  0.12509562831E+03 0.  0.
         23    2    1    2    0    0 -0.88940560503E+02 -0.16117053581E+02 -0.19155965680E+03  0.23264949319E+03  0.96231501336E+02 0.  0.
          5    1    3    3  502    0  0.67994248061E+02  0.36349687652E+01 -0.93656164823E+02  0.11586794370E+03  0.41800000000E+01 0. -1.
         -5    1    3    3    0  502  0.20946312442E+02  0.12482084816E+02 -0.41378830643E+03  0.41452718292E+03  0.41800000000E+01 0. -1.
        -11    1    4    4    0    0  0.99634756361E+01 -0.14751244216E+02 -0.85781514922E+00  0.17821501045E+02  0.00000000000E+00 0.  1.
         11    1    4    4    0    0 -0.98904036139E+02 -0.13658093654E+01 -0.19070184165E+03  0.21482799215E+03  0.00000000000E+00 0. -1.
</event>
<event>
 8    1  0.6834011E-009  0.1015113E+03  0.7561462E-02  0.1277150E+00
          1   -1    0    0  501    0  0.00000000000E+00  0.00000000000E+00  0.21550914178E+03  0.21550914178E+03  0.00000000000E+00 0. -1.
         -1   -1    0    0    0  501 -0.00000000000E+00 -0.00000000000E+00 -0.56986565443E+02  0.56986565443E+02  0.00000000000E+00 0.  1.
         25    2    1    2    0    0 -0.20554441707E+02 -0.10279380018E+02  0.77472756455E+02  0.14892187817E+03  0.12509015580E+03 0.  0.
         23    2    1    2    0    0  0.20554441707E+02  0.10279380018E+02  0.81049819883E+02  0.12357382905E+03  0.90406123665E+02 0.  0.
          5    1    3    3  502    0 -0.35799948734E+02 -0.54266323012E+02  0.86354971665E+01  0.65715404236E+02  0.41800000000E+01 0.  1.
         -5    1    3    3    0  502  0.15245507028E+02  0.43986942994E+02  0.68837259288E+02  0.83206473936E+02  0.41800000000E+01 0.  1.
        -11    1    4    4    0    0  0.50908195960E+02 -0.13395277122E+02  0.33505582496E+02  0.62399534641E+02  0.00000000000E+00 0. -1.
         11    1    4    4    0    0 -0.30353754253E+02  0.23674657140E+02  0.47544237387E+02  0.61174294411E+02  0.00000000000E+00 0.  1.
</event>
<event>
 8    1  0.6834011E-009  0.1588440E+03  0.7561462E-02  0.1190008E+00
          1   -1    0    0  501    0  0.00000000000E+00  0.00000000000E+00  0.68283153697E+03  0.68283153697E+03  0.00000000000E+00 0. -1.
         -1   -1    0    0    0  501 -0.00000000000E+00 -0.00000000000E+00 -0.46080114602E+02  0.46080114602E+02  0.00000000000E+00 0.  1.
         25    2    1    2    0    0  0.16375584191E+02 -0.13511614344E+03  0.40204386206E+03  0.44250670763E+03  0.12509351423E+03 0.  0.
         23    2    1    2    0    0 -0.16375584191E+02  0.13511614344E+03  0.23470756031E+03  0.28640494394E+03  0.91736694259E+02 0.  0.
          5    1    3    3  502    0 -0.40059372638E+02 -0.10128474427E+03  0.17577343867E+03  0.20682632062E+03  0.41800000000E+01 0. -1.
         -5    1    3    3    0  502  0.56434956829E+02 -0.33831399167E+02  0.22627042338E+03  0.23568038701E+03  0.41800000000E+01 0. -1.
        -11    1    4    4    0    0 -0.27347999128E+02  0.12457648289E+03  0.23873295617E+03  0.27066702331E+03  0.00000000000E+00 0. -1.
         11    1    4    4    0    0  0.10972414937E+02  0.10539660548E+02 -0.40253958615E+01  0.15737920633E+02  0.00000000000E+00 0.  1.
</event>
<event>
 8    1  0.6834011E-009  0.1311235E+03  0.7561462E-02  0.1225798E+00
          2   -1    0    0  501    0  0.00000000000E+00  0.00000000000E+00  0.20472875604E+02  0.20472875604E+02  0.00000000000E+00 0. -1.
         -2   -1    0    0    0  501 -0.00000000000E+00 -0.00000000000E+00 -0.12034153910E+04  0.12034153910E+04  0.00000000000E+00 0.  1.
         25    2    1    2    0    0  0.16368786606E+01 -0.87977121572E+02 -0.92433748596E+03  0.93690415151E+03  0.12508776070E+03 0.  0.
         23    2    1    2    0    0 -0.16368786606E+01  0.87977121572E+02 -0.25860502944E+03  0.28698411510E+03  0.87981064863E+02 0.  0.
          5    1    3    3  502    0 -0.58403115594E+02 -0.19607703156E+02 -0.35675833676E+03  0.36206265919E+03  0.41800000000E+01 0.  1.
         -5    1    3    3    0  502  0.60039994255E+02 -0.68369418416E+02 -0.56757914920E+03  0.57484149232E+03  0.41800000000E+01 0.  1.
        -11    1    4    4    0    0  0.30875084556E+02  0.30632793607E+02 -0.41588471726E+02  0.60176738621E+02  0.00000000000E+00 0. -1.
         11    1    4    4    0    0 -0.32511963217E+02  0.57344327965E+02 -0.21701655772E+03  0.22680737648E+03  0.00000000000E+00 0.  1.
</event>
<event>
 8    1  0.6834011E-009  0.9472428E+02  0.7561462E-02  0.1291798E+00
          2   -1    0    0  501    0  0.00000000000E+00  0.00000000000E+00  0.18126898042E+03  0.18126898042E+03  0.00000000000E+00 0.  1.
         -2   -1    0    0    0  501 -0.00000000000E+00 -0.00000000000E+00 -0.11035497373E+03  0.11035497373E+03  0.00000000000E+00 0. -1.
         25    2    1    2    0    0 -0.11878893857E+02  0.84472282737E+02  0.11347303402E+02  0.15182306592E+03  0.12507920443E+03 0.  0.
         23    2    1    2    0    0  0.11878893857E+02 -0.84472282737E+02  0.59566703283E+02  0.13980088822E+03  0.93377842862E+02 0.  0.
          5    1    3    3  502    0 -0.39397289500E+00  0.74057046415E+02 -0.49313805186E+02  0.89072583438E+02  0.41800000000E+01 0. -1.
         -5    1    3    3    0  502 -0.11484920962E+02  0.10415236321E+02  0.60661108587E+02  0.62750482486E+02  0.41800000000E+01 0. -1.
        -11    1    4    4    0    0  0.31773046404E+02 -0.57568226238E+02  0.77663011395E+02  0.10176035814E+03  0.00000000000E+00 0.  1.
         11    1    4    4    0    0 -0.19894152547E+02 -0.26904056499E+02 -0.18096308111E+02  0.38040530082E+02  0.00000000000E+00 0. -1.
</event>
<event>
 8    1  0.6834011E-009  0.8474145E+02  0.7561462E-02  0.1316110E+00
         -3   -1    0    0    0  501 -0.00000000000E+00  0.00000000000E+00  0.90931411774E+02  0.90931411774E+02  0.00000000000E+00 0.  1.
          3   -1    0    0  501    0  0.00000000000E+00 -0.00000000000E+00 -0.16307834957E+03  0.16307834957E+03  0.00000000000E+00 0. -1.
         25    2    1    2    0    0  0.41939960025E+02  0.28553984254E+02 -0.64905452887E+02  0.14977786368E+03  0.12508557220E+03 0.  0.
         23    2    1    2    0    0 -0.41939960025E+02 -0.28553984254E+02 -0.72414849062E+01  0.10423189766E+03  0.90761000005E+02 0.  0.
          5    1    3    3  502    0 -0.45489685521E+01  0.23277876515E+02 -0.92306326010E+02  0.95396451042E+02  0.41800000000E+01 0. -1.
         -5    1    3    3    0  502  0.46488928577E+02  0.52761077393E+01  0.27400873122E+02  0.54381412643E+02  0.41800000000E+01 0. -1.
        -11    1    4    4    0    0  0.20589530295E+02 -0.29397018366E+02  0.13502096687E+02  0.38346056662E+02  0.00000000000E+00 0.  1.
         11    1    4    4    0    0 -0.62529490321E+02  0.84303411223E+00 -0.20743581593E+02  0.65885840995E+02  0.00000000000E+00 0. -1.
</event>
<event>
 8    1  0.6834011E-009  0.1065262E+03  0.7561462E-02  0.1267141E+00
         -2   -1    0    0    0  501 -0.00000000000E+00  0.00000000000E+00  0.47884047301E+03  0.47884047301E+03  0.00000000000E+00 0.  1.
          2   -1    0    0  501    0  0.00000000000E+00 -0.00000000000E+00 -0.44478557850E+02  0.44478557850E+02  0.00000000000E+00 0. -1.
         25    2    1    2    0    0  0.96681382890E+02  0.41093079299E+01  0.24339471696E+03  0.29026247624E+03  0.12508853128E+03 0.  0.
         23    2    1    2    0    0 -0.96681382890E+02 -0.41093079299E+01  0.19096719820E+03  0.23305655462E+03  0.92101632206E+02 0.  0.
          5    1    3    3  502    0  0.45476779193E+02 -0.26924535183E+02  0.16439657897E+02  0.55504979888E+02  0.41800000000E+01 0. -1.
         -5    1    3    3    0  502  0.51204603697E+02  0.31033843113E+02  0.22695505907E+03  0.23475749635E+03  0.41800000000E+01 0. -1.
        -11    1    4    4    0    0 -0.86957501957E+02  0.44381079020E+01  0.19941671818E+03  0.21759671744E+03  0.00000000000E+00 0.  1.
         11    1    4    4    0    0 -0.97238809330E+01 -0.85474158319E+01 -0.84495199845E+01  0.15459837184E+02  0.00000000000E+00 0. -1.
</event>
<event>
 8    1  0.6834011E-009  0.1405668E+03  0.7561462E-02  0.1212568E+00
         -2   -1    0    0    0  501 -0.00000000000E+00  0.00000000000E+00  0.43368916619E+02  0.43368916619E+02  0.00000000000E+00 0. -1.
          2   -1    0    0  501    0  0.00000000000E+00 -0.00000000000E+00 -0.62096008705E+03  0.62096008705E+03  0.00000000000E+00 0.  1.
         25    2    1    2    0    0  0.85293768630E+02  0.74028333122E+02 -0.20749505216E+03  0.26731557899E+03  0.12509276968E+03 0.  0.
         23    2    1    2    0    0 -0.85293768630E+02 -0.74028333122E+02 -0.37009611827E+03  0.39701342467E+03  0.88844254427E+02 0.  0.
          5    1    3    3  502    0  0.28299882130E+02  0.10096860965E+03 -0.12035133304E+03  0.15967923856E+03  0.41800000000E+01 0.  1.
         -5    1    3    3    0  502  0.56993886499E+02 -0.26940276532E+02 -0.87143719125E+02  0.10763634043E+03  0.41800000000E+01 0.  1.
        -11    1    4    4    0    0 -0.71280175246E+02 -0.63801468198E+02 -0.36716040831E+03  0.37941831289E+03  0.00000000000E+00 0.  1.
         11    1    4    4    0    0 -0.14013593384E+02 -0.10226864924E+02 -0.29357099555E+01  0.17595111783E+02  0.00000000000E+00 0. -1.
</event>
<event>
 8    1  0.6834011E-009  0.9482872E+02  0.7561462E-02  0.1291562E+00
          2   -1    0    0  501    0  0.00000000000E+00  0.00000000000E+00  0.95973180676E+02  0.95973180676E+02  0.00000000000E+00 0. -1.
         -2   -1    0    0    0  501 -0.00000000000E+00 -0.00000000000E+00 -0.15576375594E+03  0.15576375594E+03  0.00000000000E+00 0.  1.
         25    2    1    2    0    0 -0.21315776236E+02  0.45914945771E+02 -0.53491993790E+01  0.13504892869E+03  0.12508818747E+03 0.  0.
         23    2    1    2    0    0  0.21315776236E+02 -0.45914945771E+02 -0.54441375887E+02  0.11668800792E+03  0.89942666310E+02 0.  0.
          5    1    3    3  502    0  0.48417171547E+02 -0.44702935663E+01 -0.12334109471E+01  0.48818026668E+02  0.41800000000E+01 0.  1.
         -5    1    3    3    0  502 -0.69732947784E+02  0.50385239337E+02 -0.41157884319E+01  0.86230902025E+02  0.41800000000E+01 0.  1.
        -11    1    4    4    0    0  0.31622875872E+01 -0.31184078663E+02 -0.77655096128E+02  0.83742228174E+02  0.00000000000E+00 0.  1.
         11    1    4    4    0    0  0.18153488649E+02 -0.14730867108E+02  0.23213720241E+02  0.32945779750E+02  0.00000000000E+00 0. -1.
</event>
<event>
 8    1  0.6834011E-009  0.1114427E+03  0.7561462E-02  0.1257921E+00
         -2   -1    0    0    0  501 -0.00000000000E+00  0.00000000000E+00  0.62116472714E+03  0.62116472714E+03  0.00000000000E+00 0.  1.
          2   -1    0    0  501    0  0.00000000000E+00 -0.00000000000E+00 -0.23836471343E+02  0.23836471343E+02  0.00000000000E+00 0. -1.
         25    2    1    2    0    0  0.54660380054E+02 -0.16529696981E+02  0.30278516039E+03  0.33254721327E+03  0.12509119741E+03 0.  0.
         23    2    1    2    0    0 -0.54660380054E+02  0.16529696981E+02  0.29454309541E+03  0.31245398521E+03  0.87240299147E+02 0.  0.
          5    1    3    3  502    0  0.23442738899E+02  0.54668377175E+02  0.12811056420E+03  0.14130811204E+03  0.41800000000E+01 0.  1.
         -5    1    3    3    0  502  0.31217641155E+02 -0.71198074155E+02  0.17467459620E+03  0.19123910123E+03  0.41800000000E+01 0.  1.
        -11    1    4    4    0    0 -0.36806667592E+02 -0.22039936403E+02  0.23736075641E+03  0.24120658834E+03  0.00000000000E+00 0.  1.
         11    1    4    4    0    0 -0.17853712462E+02  0.38569633384E+02  0.57182338992E+02  0.71247396869E+02  0.00000000000E+00 0. -1.
</event>
<event>
 8    1  0.6834011E-009  0.1365292E+03  0.7561462E-02  0.1218077E+00
         -1   -1    0    0    0  501 -0.00000000000E+00  0.00000000000E+00  0.20182991288E+02  0.20182991288E+02  0.00000000000E+00 0.  1.
          1   -1    0    0  501    0  0.00000000000E+00 -0.00000000000E+00 -0.11161664448E+04  0.11161664448E+04  0.00000000000E+00 0. -1.
         25    2    1    2    0    0  0.97608533910E+02 -0.32503208442E+02 -0.65435527087E+03  0.67410169019E+03  0.12509350001E+03 0.  0.
         23    2    1    2    0    0 -0.97608533910E+02  0.32503208442E+02 -0.44162818263E+03  0.46224774589E+03  0.89742088432E+02 0.  0.
          5    1    3    3  502    0  0.10305106965E+03  0.16685437124E+02 -0.33518064203E+03  0.35108611758E+03  0.41800000000E+01 0.  1.
         -5    1    3    3    0  502 -0.54425357434E+01 -0.49188645566E+02 -0.31917462885E+03  0.32301557261E+03  0.41800000000E+01 0.  1.
        -11    1    4    4    0    0 -0.41600336846E+02  0.45259830160E+02 -0.11302053626E+03  0.12865722626E+03  0.00000000000E+00 0. -1.
         11    1    4    4    0    0 -0.56008197064E+02 -0.12756621718E+02 -0.32860764636E+03  0.33359051963E+03  0.00000000000E+00 0.  1.
</event>
<event>
 8    1  0.6834011E-009  0.9033172E+02  0.7561462E-02  0.1302050E+00
         -4   -1    0    0    0  501 -0.00000000000E+00  0.00000000000E+00  0.25508321687E+03  0.25508321687E+03  0.00000000000E+00 0.  1.
          4   -1    0    0  501    0  0.00000000000E+00 -0.00000000000E+00 -0.61682841265E+02  0.61682841265E+02  0.00000000000E+00 0. -1.
         25    2    1    2    0    0  0.42236137593E+02 -0.37309977888E+02  0.81727579884E+02  0.15969660700E+03  0.12509069991E+03 0.  0.
         23    2    1    2    0    0 -0.42236137593E+02  0.37309977888E+02  0.11167279572E+03  0.15706945114E+03  0.94995123069E+02 0.  0.
          5    1    3    3  502    0  0.53162408936E+02 -0.18609857563E+02 -0.16644441087E+02  0.58881901646E+02  0.41800000000E+01 0. -1.
         -5    1    3    3    0  502 -0.10926271343E+02 -0.18700120325E+02  0.98372020971E+02  0.10081470535E+03  0.41800000000E+01 0. -1.
        -11    1    4    4    0    0  0.89377499268E+01 -0.22025802733E+02  0.56332280908E+02  0.61142008734E+02  0.00000000000E+00 0.  1.
         11    1    4    4    0    0 -0.51173887520E+02  0.59335780621E+02  0.55340514815E+02  0.95927442402E+02  0.00000000000E+00 0. -1.
</event>
<event>
 8    1  0.6834011E-009  0.1519811E+03  0.7561462E-02  0.1198060E+00
          1   -1    0    0  501    0  0.00000000000E+00  0.00000000000E+00  0.50722997790E+03  0.50722997790E+03  0.00000000000E+00 0. -1.
         -1   -1    0    0    0  501 -0.00000000000E+00 -0.00000000000E+00 -0.72124361324E+02  0.72124361324E+02  0.00000000000E+00 0.  1.
         25    2    1    2    0    0 -0.41839270040E+02 -0.14063216522E+03  0.31659284543E+03  0.37068367596E+03  0.12508967757E+03 0.  0.
         23    2    1    2    0    0  0.41839270040E+02  0.14063216522E+03  0.11851277115E+03  0.20867066327E+03  0.89276191521E+02 0.  0.
          5    1    3    3  502    0 -0.55302861364E+02 -0.10486855969E+03  0.11417824492E+03  0.16465104099E+03  0.41800000000E+01 0.  1.
         -5    1    3    3    0  502  0.13463591324E+02 -0.35763605521E+02  0.20241460051E+03  0.20603263496E+03  0.41800000000E+01 0.  1.
        -11    1    4    4    0    0  0.20684574001E+02  0.81613055497E+02  0.11956704619E+02  0.85038257358E+02  0.00000000000E+00 0.  1.
         11    1    4    4    0    0  0.21154696039E+02  0.59019109719E+02  0.10655606653E+03  0.12363240591E+03  0.00000000000E+00 0. -1.
</event>
<event>
 8    1  0.6834011E-009  0.1031897E+03  0.7561462E-02  0.1273728E+00
         -2   -1    0    0    0  501 -0.00000000000E+00  0.00000000000E+00  0.28707533004E+02  0.28707533004E+02  0.00000000000E+00 0.  1.
          2   -1    0    0  501    0  0.00000000000E+00 -0.00000000000E+00 -0.67450551154E+03  0.67450551154E+03  0.00000000000E+00 0. -1.
         25    2    1    2    0    0 -0.32955142092E+02 -0.44550994768E+02 -0.52492025579E+03  0.54245824777E+03  0.12509533608E+03 0.  0.
         23    2    1    2    0    0  0.32955142092E+02  0.44550994768E+02 -0.12087772274E+03  0.16075479677E+03  0.90331878671E+02 0.  0.
          5    1    3    3  502    0  0.38719495514E+02 -0.26886211754E+02 -0.34043031585E+03  0.34370385518E+03  0.41800000000E+01 0.  1.
         -5    1    3    3    0  502 -0.71674637607E+02 -0.17664783013E+02 -0.18448993994E+03  0.19875439259E+03  0.41800000000E+01 0.  1.
        -11    1    4    4    0    0  0.40124307026E+02  0.57618659989E+02 -0.44929570998E+02  0.83357881111E+02  0.00000000000E+00 0.  1.
         11    1    4    4    0    0 -0.71691649337E+01 -0.13067665222E+02 -0.75948151746E+02  0.77396915661E+02  0.00000000000E+00 0. -1.
</event>
<event>
 8    1  0.6834011E-009  0.1171236E+03  0.7561462E-02  0.1247919E+00
         -2   -1    0    0    0  501 -0.00000000000E+00  0.00000000000E+00  0.51918656527E+02  0.51918656527E+02  0.00000000000E+00 0. -1.
          2   -1    0    0  501    0  0.00000000000E+00 -0.00000000000E+00 -0.28650398075E+03  0.28650398075E+03  0.00000000000E+00 0.  1.
         25    2    1    2    0    0  0.44357702320E+02 -0.27792754264E+02 -0.15634078076E+03  0.20695364689E+03  0.12508928526E+03 0.  0.
         23    2    1    2    0    0 -0.44357702320E+02  0.27792754264E+02 -0.78244543462E+02  0.13146899039E+03  0.91770604813E+02 0.  0.
          5    1    3    3  502    0 -0.33394209507E+02 -0.44111124627E+02 -0.55100461388E+02  0.78195254265E+02  0.41800000000E+01 0. -1.
         -5    1    3    3    0  502  0.77751911827E+02  0.16318370363E+02 -0.10124031937E+03  0.12875839262E+03  0.41800000000E+01 0. -1.
        -11    1    4    4    0    0 -0.56172846380E+02 -0.12220398254E+02 -0.66953963926E+02  0.88247153434E+02  0.00000000000E+00 0.  1.
         11    1    4    4    0    0  0.11815144059E+02  0.40013152517E+02 -0.11290579537E+02  0.43221836955E+02  0.00000000000E+00 0. -1.
</event>
<event>
 8    1  0.6834011E-009  0.9051075E+02  0.7561462E-02  0.1301620E+00
          2   -1    0    0  501    0  0.00000000000E+00  0.00000000000E+00  0.16060551808E+04  0.16060551808E+04  0.00000000000E+00 0.  1.
         -2   -1    0    0    0  501 -0.00000000000E+00 -0.00000000000E+00 -0.10586275634E+02  0.10586275634E+02  0.00000000000E+00 0. -1.
         25    2    1    2    0    0  0.69896402771E+02  0.34849854800E+01  0.10247759223E+04  0.10347512147E+04  0.12508690311E+03 0.  0.
         23    2    1    2    0    0 -0.69896402771E+02 -0.34849854800E+01  0.57069298290E+03  0.58189024168E+03  0.89488101955E+02 0.  0.
          5    1    3    3  502    0  0.19251386915E+02 -0.13183474929E+01  0.89614844338E+03  0.89636591798E+03  0.41800000000E+01 0.  1.
         -5    1    3    3    0  502  0.50645015856E+02  0.48033329729E+01  0.12862747889E+03  0.13838529677E+03  0.41800000000E+01 0.  1.
        -11    1    4    4    0    0 -0.72760817596E+02  0.28483380875E+02  0.46186284605E+03  0.46842579788E+03  0.00000000000E+00 0.  1.
         11    1    4    4    0    0  0.28644148242E+01 -0.31968366355E+02  0.10883013685E+03  0.11346444380E+03  0.00000000000E+00 0. -1.
</event>
<event>
 8    1  0.6834011E-009  0.1129109E+03  0.7561462E-02  0.1255272E+00
         -1   -1    0    0    0  501 -0.00000000000E+00  0.00000000000E+00  0.24895432290E+02  0.24895432290E+02  0.00000000000E+00 0.  1.
          1   -1    0    0  501    0  0.00000000000E+00 -0.00000000000E+00 -0.69473977326E+03  0.69473977326E+03  0.00000000000E+00 0. -1.
         25    2    1    2    0    0 -0.61919553814E+02  0.38854913124E+02 -0.40451745915E+03  0.42968129588E+03  0.12509158988E+03 0.  0.
         23    2    1    2    0    0  0.61919553814E+02 -0.38854913124E+02 -0.26532688183E+03  0.28995390967E+03  0.91275298386E+02 0.  0.
          5    1    3    3  502    0 -0.43560354020E+02  0.70640409996E+02 -0.36967390086E+03  0.37889818862E+03  0.41800000000E+01 0.  1.
         -5    1    3    3    0  502 -0.18359199794E+02 -0.31785496873E+02 -0.34843558288E+02  0.50783107257E+02  0.41800000000E+01 0.  1.
        -11    1    4    4    0    0  0.22542595238E+02 -0.57831834173E+02 -0.90465148140E+02  0.10971158859E+03  0.00000000000E+00 0.  1.
         11    1    4    4    0    0  0.39376958575E+02  0.18976921050E+02 -0.17486173369E+03  0.18024232108E+03  0.00000000000E+00 0. -1.
</event>
<event>
 8    1  0.6834011E-009  0.3030550E+03  0.7561462E-02  0.1083723E+00
          1   -1    0    0  501    0  0.00000000000E+00  0.00000000000E+00  0.71524187047E+03  0.71524187047E+03  0.00000000000E+00 0. -1.
         -1   -1    0    0    0  501 -0.00000000000E+00 -0.00000000000E+00 -0.13631519443E+03  0.13631519443E+03  0.00000000000E+00 0.  1.
         25    2    1    2    0    0 -0.20584143566E+03 -0.20581962986E+03  0.26213009357E+03  0.41120830714E+03  0.12509064408E+03 0.  0.
         23    2    1    2    0    0  0.20584143566E+03  0.20581962986E+03  0.31679658247E+03  0.44034875776E+03  0.93885766353E+02 0.  0.
          5    1    3    3  502    0 -0.67461061982E+02 -0.16722745292E+02  0.16188361690E+02  0.71485526843E+02  0.41800000000E+01 0. -1.
         -5    1    3    3    0  502 -0.13838037368E+03 -0.18909688457E+03  0.24594173188E+03  0.33972278030E+03  0.41800000000E+01 0. -1.
        -11    1    4    4    0    0  0.20069752765E+03  0.16177995632E+03  0.24302993746E+03  0.35428209434E+03  0.00000000000E+00 0.  1.
         11    1    4    4    0    0  0.51439080134E+01  0.44039673545E+02  0.73766645011E+02  0.86066663418E+02  0.00000000000E+00 0. -1.
</event>
<event>
 8    1  0.6834011E-009  0.1879289E+03  0.7561462E-02  0.1160343E+00
          2   -1    0    0  501    0  0.00000000000E+00  0.00000000000E+00  0.12353772289E+03  0.12353772289E+03  0.00000000000E+00 0. -1.
         -2   -1    0    0    0  501 -0.00000000000E+00 -0.00000000000E+00 -0.36220455770E+03  0.36220455770E+03  0.00000000000E+00 0.  1.
         25    2    1    2    0    0 -0.15337537080E+03 -0.63715365186E+02 -0.40481671102E+02  0.21182305159E+03  0.12508631964E+03 0.  0.
         23    2    1    2    0    0  0.15337537080E+03  0.63715365186E+02 -0.19818516370E+03  0.27391922900E+03  0.90392105726E+02 0.  0.
          5    1    3    3  502    0 -0.93443667227E+02  0.14043331497E+02  0.19672021480E+02  0.96609497118E+02  0.41800000000E+01 0. -1.
         -5    1    3    3    0  502 -0.59931703570E+02 -0.77758696683E+02 -0.60153692581E+02  0.11521355447E+03  0.41800000000E+01 0. -1.
        -11    1    4    4    0    0  0.35774962526E+02 -0.17761442899E+02 -0.75661509215E+02  0.85556886188E+02  0.00000000000E+00 0.  1.
         11    1    4    4    0    0  0.11760040827E+03  0.81476808085E+02 -0.12252365449E+03  0.18836234281E+03  0.00000000000E+00 0. -1.
</event>
<event>
 8    1  0.6834011E-009  0.8806166E+02  0.7561462E-02  0.1307615E+00
          2   -1    0    0  501    0  0.00000000000E+00  0.00000000000E+00  0.48589289542E+02  0.48589289542E+02  0.00000000000E+00 0. -1.
         -2   -1    0    0    0  501 -0.00000000000E+00 -0.00000000000E+00 -0.32640523086E+03  0.32640523086E+03  0.00000000000E+00 0.  1.
         25    2    1    2    0    0 -0.53403946962E+01 -0.55981230828E+02 -0.10830367350E+03  0.17474991220E+03  0.12508168571E+03 0.  0.
         23    2    1    2    0    0  0.53403946962E+01  0.55981230828E+02 -0.16951226781E+03  0.20024460820E+03  0.90559793246E+02 0.  0.
          5    1    3    3  502    0  0.22369766682E+02 -0.48479510772E+02  0.86525112229E+01  0.54249495634E+02  0.41800000000E+01 0.  1.
         -5    1    3    3    0  502 -0.27710161378E+02 -0.75017200558E+01 -0.11695618473E+03  0.12050041657E+03  0.41800000000E+01 0.  1.
        -11    1    4    4    0    0  0.39563723034E+02  0.21727219064E+02 -0.34499898471E+02  0.56811998936E+02  0.00000000000E+00 0. -1.
         11    1    4    4    0    0 -0.34223328338E+02  0.34254011764E+02 -0.13501236934E+03  0.14343260926E+03  0.00000000000E+00 0.  1.
</event>
<event>
 8    1  0.6834011E-009  0.8116820E+02  0.7561462E-02  0.1325769E+00
         -4   -1    0    0    0  501 -0.00000000000E+00  0.00000000000E+00  0.10479047525E+03  0.10479047525E+03  0.00000000000E+00 0.  1.
          4   -1    0    0  501    0  0.00000000000E+00 -0.00000000000E+00 -0.12299677497E+03  0.12299677497E+03  0.00000000000E+00 0. -1.
         25    2    1    2    0    0  0.14593992203E+02  0.21330151122E+02 -0.29900901956E+02  0.13118695924E+03  0.12509194371E+03 0.  0.
         23    2    1    2    0    0 -0.14593992203E+02 -0.21330151122E+02  0.11694602232E+02  0.96600290990E+02  0.92341174687E+02 0.  0.
          5    1    3    3  502    0  0.78779805082E+01  0.61199540631E+02  0.21661849519E+02  0.65529798374E+02  0.41800000000E+01 0. -1.
         -5    1    3    3    0  502  0.67160116944E+01 -0.39869389509E+02 -0.51562751474E+02  0.65657160862E+02  0.41800000000E+01 0. -1.
        -11    1    4    4    0    0 -0.25788383554E+02  0.91574827796E+01  0.43338528654E+02  0.51255519537E+02  0.00000000000E+00 0.  1.
         11    1    4    4    0    0  0.11194391351E+02 -0.30487633902E+02 -0.31643926422E+02  0.45344771452E+02  0.00000000000E+00 0. -1.
</event>
<event>
 8    1  0.6834011E-009  0.1003165E+03  0.7561462E-02  0.1279632E+00
         -3   -1    0    0    0  501 -0.00000000000E+00  0.00000000000E+00  0.29772664820E+03  0.29772664820E+03  0.00000000000E+00 0.  1.
          3   -1    0    0  501    0  0.00000000000E+00 -0.00000000000E+00 -0.50960697635E+02  0.50960697635E+02  0.00000000000E+00 0. -1.
         25    2    1    2    0    0 -0.46063947225E+01  0.55867457444E+02  0.11621966558E+03  0.17971289149E+03  0.12508925224E+03 0.  0.
         23    2    1    2    0    0  0.46063947225E+01 -0.55867457444E+02  0.13054628499E+03  0.16897445435E+03  0.91474816341E+02 0.  0.
          5    1    3    3  502    0  0.12714014279E+01 -0.39299767282E+02  0.20490486421E+02  0.44535610513E+02  0.41800000000E+01 0. -1.
         -5    1    3    3    0  502 -0.58777961505E+01  0.95167224726E+02  0.95729179157E+02  0.13517728097E+03  0.41800000000E+01 0. -1.
        -11    1    4    4    0    0  0.15085144320E+02 -0.52530782772E+02  0.14256598559E+03  0.15268302121E+03  0.00000000000E+00 0.  1.
         11    1    4    4    0    0 -0.10478749597E+02 -0.33366746715E+01 -0.12019700606E+02  0.16291433137E+02  0.00000000000E+00 0. -1.
</event>
<event>
 8    1  0.6834011E-009  0.9918981E+02  0.7561462E-02  0.1282009E+00
         -2   -1    0    0    0  501 -0.00000000000E+00  0.00000000000E+00  0.58262401462E+02  0.58262401462E+02  0.00000000000E+00 0.  1.
          2   -1    0    0  501    0  0.00000000000E+00 -0.00000000000E+00 -0.25005634642E+03  0.25005634642E+03  0.00000000000E+00 0. -1.
         25    2    1    2    0    0 -0.19073045689E+02 -0.19699939336E+02 -0.49861351680E+02  0.13743023989E+03  0.12509615408E+03 0.  0.
         23    2    1    2    0    0  0.19073045689E+02  0.19699939336E+02 -0.14193259328E+03  0.17088850799E+03  0.91138095470E+02 0.  0.
          5    1    3    3  502    0 -0.12421461464E+02 -0.61648119132E+02 -0.66502275645E+02  0.91623186821E+02  0.41800000000E+01 0. -1.
         -5    1    3    3    0  502 -0.66515842250E+01  0.41948179795E+02  0.16640923965E+02  0.45807053073E+02  0.41800000000E+01 0. -1.
        -11    1    4    4    0    0  0.36643160518E+02  0.47376508037E+02 -0.10929059576E+03  0.12462619728E+03  0.00000000000E+00 0.  1.
         11    1    4    4    0    0 -0.17570114829E+02 -0.27676568701E+02 -0.32641997516E+02  0.46262310707E+02  0.00000000000E+00 0. -1.
</event>
<event>
 8    1  0.6834011E-009  0.9316360E+02  0.7561462E-02  0.1295367E+00
         -1   -1    0    0    0  501 -0.00000000000E+00  0.00000000000E+00  0.34152812231E+02  0.34152812231E+02  0.00000000000E+00 0.  1.
          1   -1    0    0  501    0  0.00000000000E+00 -0.00000000000E+00 -0.42867589838E+03  0.42867589838E+03  0.00000000000E+00 0. -1.
         25    2    1    2    0    0  0.17113693321E+02  0.49698997194E+02 -0.20475818447E+03  0.24563497547E+03  0.12509099986E+03 0.  0.
         23    2    1    2    0    0 -0.17113693321E+02 -0.49698997194E+02 -0.18976490167E+03  0.21719373514E+03  0.91648959916E+02 0.  0.
          5    1    3    3  502    0  0.29010309617E+02  0.65648247696E+02 -0.45496026818E+02  0.85080264138E+02  0.41800000000E+01 0. -1.
         -5    1    3    3    0  502 -0.11896616296E+02 -0.15949250502E+02 -0.15926215766E+03  0.16055471134E+03  0.41800000000E+01 0. -1.
        -11    1    4    4    0    0 -0.44459262062E+02 -0.49796407399E+02 -0.80595500224E+02  0.10465153047E+03  0.00000000000E+00 0.  1.
         11    1    4    4    0    0  0.27345568741E+02  0.97410204674E-01 -0.10916940145E+03  0.11254220467E+03  0.00000000000E+00 0. -1.
</event>
<event>
 8    1  0.6834011E-009  0.1094661E+03  0.7561462E-02  0.1261562E+00
          1   -1    0    0  501    0  0.00000000000E+00  0.00000000000E+00  0.11105766950E+04  0.11105766950E+04  0.00000000000E+00 0. -1.
         -1   -1    0    0    0  501 -0.00000000000E+00 -0.00000000000E+00 -0.10983793886E+02  0.10983793886E+02  0.00000000000E+00 0.  1.
         25    2    1    2    0    0  0.13829935325E+02  0.20310571938E+02  0.63994788176E+03  0.65252163844E+03  0.12508961118E+03 0.  0.
         23    2    1    2    0    0 -0.13829935325E+02 -0.20310571938E+02  0.45964501939E+03  0.46903885047E+03  0.90111669404E+02 0.  0.
          5    1    3    3  502    0  0.62818371079E+02 -0.16226405520E+02  0.37413581153E+03  0.37974270480E+03  0.41800000000E+01 0. -1.
         -5    1    3    3    0  502 -0.48988435754E+02  0.36536977458E+02  0.26581207023E+03  0.27277893364E+03  0.41800000000E+01 0. -1.
        -11    1    4    4    0    0 -0.93052811297E+01 -0.55958813577E+02  0.30930986769E+03  0.31446871279E+03  0.00000000000E+00 0. -1.
         11    1    4    4    0    0 -0.45246541956E+01  0.35648241639E+02  0.15033515169E+03  0.15457013768E+03  0.00000000000E+00 0.  1.
</event>
<event>
 8    1  0.6834011E-009  0.1804478E+03  0.7561462E-02  0.1167370E+00
         -1   -1    0    0    0  501 -0.00000000000E+00  0.00000000000E+00  0.33880136600E+03  0.33880136600E+03  0.00000000000E+00 0.  1.
          1   -1    0    0  501    0  0.00000000000E+00 -0.00000000000E+00 -0.11056291714E+03  0.11056291714E+03  0.00000000000E+00 0. -1.
         25    2    1    2    0    0 -0.14961024162E+03  0.59537227341E+02  0.12927100591E+03  0.24142577159E+03  0.12508998514E+03 0.  0.
         23    2    1    2    0    0  0.14961024162E+03 -0.59537227341E+02  0.98967442944E+02  0.20793851155E+03  0.86694659497E+02 0.  0.
          5    1    3    3  502    0  0.12259755500E+02  0.32324855703E+02  0.44903229287E+02  0.56824029262E+02  0.41800000000E+01 0.  1.
         -5    1    3    3    0  502 -0.16186999712E+03  0.27212371638E+02  0.84367776625E+02  0.18460174233E+03  0.41800000000E+01 0.  1.
        -11    1    4    4    0    0  0.10714283537E+03 -0.50553145226E+02  0.11157263465E+03  0.16273801174E+03  0.00000000000E+00 0.  1.
         11    1    4    4    0    0  0.42467406252E+02 -0.89840821149E+01 -0.12605191702E+02  0.45200499810E+02  0.00000000000E+00 0. -1.
</event>
<event>
 8    1  0.6834011E-009  0.1438521E+03  0.7561462E-02  0.1208238E+00
          1   -1    0    0  501    0  0.00000000000E+00  0.00000000000E+00  0.21203188047E+03  0.21203188047E+03  0.00000000000E+00 0.  1.
         -1   -1    0    0    0  501 -0.00000000000E+00 -0.00000000000E+00 -0.16634573480E+03  0.16634573480E+03  0.00000000000E+00 0. -1.
         25    2    1    2    0    0 -0.65302096569E+02 -0.82807839571E+02  0.13514064123E+03  0.21220705435E+03  0.12508932365E+03 0.  0.
         23    2    1    2    0    0  0.65302096569E+02  0.82807839571E+02 -0.89454495565E+02  0.16617056091E+03  0.92136021330E+02 0.  0.
          5    1    3    3  502    0 -0.84955404008E+02 -0.10124887677E+03  0.91717006755E+02  0.16092929331E+03  0.41800000000E+01 0. -1.
         -5    1    3    3    0  502  0.19653307439E+02  0.18441037195E+02  0.43423634479E+02  0.51277761042E+02  0.41800000000E+01 0. -1.
        -11    1    4    4    0    0  0.81133559046E+02  0.75229980740E+02 -0.96926138180E+02  0.14709480164E+03  0.00000000000E+00 0. -1.
         11    1    4    4    0    0 -0.15831462477E+02  0.75778588307E+01  0.74716426152E+01  0.19075759277E+02  0.00000000000E+00 0.  1.
</event>
<event>
 8    1  0.6834011E-009  0.5033828E+02  0.7561462E-02  0.1443525E+00
          1   -1    0    0  501    0  0.00000000000E+00  0.00000000000E+00  0.15391395513E+03  0.15391395513E+03  0.00000000000E+00 0. -1.
         -1   -1    0    0    0  501 -0.00000000000E+00 -0.00000000000E+00 -0.79182070352E+02  0.79182070352E+02  0.00000000000E+00 0.  1.
         25    2    1    2    0    0  0.12034952902E+02  0.98459730477E+01  0.64794297085E+02  0.14172882530E+03  0.12508787195E+03 0.  0.
         23    2    1    2    0    0 -0.12034952902E+02 -0.98459730477E+01  0.99375876974E+01  0.91367200192E+02  0.89484224001E+02 0.  0.
          5    1    3    3  502    0  0.90120086095E+01  0.38803864860E+02  0.92824478942E+02  0.10109803420E+03  0.41800000000E+01 0. -1.
         -5    1    3    3    0  502  0.30229442925E+01 -0.28957891813E+02 -0.28030181857E+02  0.40630791100E+02  0.41800000000E+01 0. -1.
        -11    1    4    4    0    0 -0.80652312082E+01  0.89203792928E+01  0.47603137284E+02  0.49098674122E+02  0.00000000000E+00 0. -1.
         11    1    4    4    0    0 -0.39697216938E+01 -0.18766352340E+02 -0.37665549587E+02  0.42268526071E+02  0.00000000000E+00 0.  1.
</event>
<event>
 8    1  0.6834011E-009  0.1075404E+03  0.7561462E-02  0.1265194E+00
         -1   -1    0    0    0  501 -0.00000000000E+00  0.00000000000E+00  0.98822770402E+02  0.98822770402E+02  0.00000000000E+00 0.  1.
          1   -1    0    0  501    0  0.00000000000E+00 -0.00000000000E+00 -0.13134898315E+03  0.13134898315E+03  0.00000000000E+00 0. -1.
         25    2    1    2    0    0  0.97709945693E+01 -0.21883140034E+02 -0.47557399959E+02  0.13595629629E+03  0.12509222221E+03 0.  0.
         23    2    1    2    0    0 -0.97709945693E+01  0.21883140034E+02  0.15031187210E+02  0.94215457267E+02  0.89868079130E+02 0.  0.
          5    1    3    3  502    0 -0.75766694378E+01  0.49377398466E+02 -0.33991879699E+01  0.50245002516E+02  0.41800000000E+01 0.  1.
         -5    1    3    3    0  502  0.17347664007E+02 -0.71260538500E+02 -0.44158211989E+02  0.85711293771E+02  0.41800000000E+01 0.  1.
        -11    1    4    4    0    0  0.23625782099E+02 -0.24695018115E+02 -0.25348062389E+01  0.34270201957E+02  0.00000000000E+00 0. -1.
         11    1    4    4    0    0 -0.33396776668E+02  0.46578158149E+02  0.17565993449E+02  0.59945255310E+02  0.00000000000E+00 0.  1.
</event>
<event>
 8    1  0.6834011E-009  0.1547931E+03  0.7561462E-02  0.1194704E+00
          1   -1    0    0  501    0  0.00000000000E+00  0.00000000000E+00  0.82149620038E+03  0.82149620038E+03  0.00000000000E+00 0. -1.
         -1   -1    0    0    0  501 -0.00000000000E+00 -0.00000000000E+00 -0.44920915753E+02  0.44920915753E+02  0.00000000000E+00 0.  1.
         25    2    1    2    0    0 -0.96591806177E+01  0.12732977142E+03  0.19780206202E+03  0.26661093094E+03  0.12509821061E+03 0.  0.
         23    2    1    2    0    0  0.96591806177E+01 -0.12732977142E+03  0.57877322260E+03  0.59980618519E+03  0.92102367689E+02 0.  0.
          5    1    3    3  502    0  0.38619141999E+02  0.54013205767E+02  0.15537886525E+03  0.16902345604E+03  0.41800000000E+01 0.  1.
         -5    1    3    3    0  502 -0.48278322616E+02  0.73316565649E+02  0.42423196778E+02  0.97587474904E+02  0.41800000000E+01 0.  1.
        -11    1    4    4    0    0 -0.20873966678E+02 -0.12249151457E+03  0.49937236744E+03  0.51459950932E+03  0.00000000000E+00 0. -1.
         11    1    4    4    0    0  0.30533147296E+02 -0.48382568426E+01  0.79400855165E+02  0.85206675877E+02  0.00000000000E+00 0.  1.
</event>
<event>
 8    1  0.6834011E-009  0.1354990E+03  0.7561462E-02  0.1219517E+00
          2   -1    0    0  501    0  0.00000000000E+00  0.00000000000E+00  0.23719419514E+03  0.23719419514E+03  0.00000000000E+00 0.  1.
         -2   -1    0    0    0  501 -0.00000000000E+00 -0.00000000000E+00 -0.84429672984E+02  0.84429672984E+02  0.00000000000E+00 0. -1.
         25    2    1    2    0    0 -0.82680201298E+02 -0.35884568065E+02  0.71626554828E+02  0.17000309378E+03  0.12508785164E+03 0.  0.
         23    2    1    2    0    0  0.82680201298E+02  0.35884568065E+02  0.81137967330E+02  0.15162077434E+03  0.91004239230E+02 0.  0.
          5    1    3    3  502    0 -0.80524288766E+02  0.31079068133E+02  0.32635110157E+02  0.92372032414E+02  0.41800000000E+01 0. -1.
         -5    1    3    3    0  502 -0.21559125312E+01 -0.66963636198E+02  0.38991444671E+02  0.77631061369E+02  0.41800000000E+01 0. -1.
        -11    1    4    4    0    0  0.52319527360E+02  0.59323620384E+02  0.23735871594E+02  0.82583391060E+02  0.00000000000E+00 0. -1.
         11    1    4    4    0    0  0.30360673937E+02 -0.23439052319E+02  0.57402095736E+02  0.69037383282E+02  0.00000000000E+00 0.  1.
</event>
<event>
 8    1  0.6834011E-009  0.8408562E+02  0.7561462E-02  0.1317841E+00
          2   -1    0    0  501    0  0.00000000000E+00  0.00000000000E+00  0.43406343039E+03  0.43406343039E+03  0.00000000000E+00 0. -1.
         -2   -1    0    0    0  501 -0.00000000000E+00 -0.00000000000E+00 -0.55097860899E+02  0.55097860899E+02  0.00000000000E+00 0.  1.
         25    2    1    2    0    0 -0.20633323150E+02  0.48261047591E+02  0.55987600212E+02  0.14675602949E+03  0.12509139889E+03 0.  0.
         23    2    1    2    0    0  0.20633323150E+02 -0.48261047591E+02  0.32297796928E+03  0.34240526180E+03  0.10085500449E+03 0.  0.
          5    1    3    3  502    0 -0.23036440306E+02  0.43712543224E+02 -0.31676542348E+02  0.58841649808E+02  0.41800000000E+01 0. -1.
         -5    1    3    3    0  502  0.24031171552E+01  0.45485043666E+01  0.87664142560E+02  0.87914379681E+02  0.41800000000E+01 0. -1.
        -11    1    4    4    0    0  0.14253058849E+02 -0.79145433375E+02  0.20291748802E+03  0.21827197771E+03  0.00000000000E+00 0.  1.
         11    1    4    4    0    0  0.63802643011E+01  0.30884385784E+02  0.12006048126E+03  0.12413328409E+03  0.00000000000E+00 0. -1.
</event>
<event>
 8    1  0.6834011E-009  0.1544433E+03  0.7561462E-02  0.1195117E+00
         -2   -1    0    0    0  501 -0.00000000000E+00  0.00000000000E+00  0.23868561170E+03  0.23868561170E+03  0.00000000000E+00 0.  1.
          2   -1    0    0  501    0  0.00000000000E+00 -0.00000000000E+00 -0.11359241743E+03  0.11359241743E+03  0.00000000000E+00 0. -1.
         25    2    1    2    0    0 -0.55514747414E+02  0.10576107440E+03  0.33445688442E+02  0.17616312269E+03  0.12509012624E+03 0.  0.
         23    2    1    2    0    0  0.55514747414E+02 -0.10576107440E+03  0.91647505831E+02  0.17611490644E+03  0.91377803136E+02 0.  0.
          5    1    3    3  502    0  0.20850721168E+02  0.74268390606E+02 -0.17246479647E+02  0.79154657959E+02  0.41800000000E+01 0.  1.
         -5    1    3    3    0  502 -0.76365468582E+02  0.31492683797E+02  0.50692168089E+02  0.97008464734E+02  0.41800000000E+01 0.  1.
        -11    1    4    4    0    0  0.49526046726E+02 -0.70432734454E+01  0.19475383760E+02  0.53681724802E+02  0.00000000000E+00 0.  1.
         11    1    4    4    0    0  0.59887006881E+01 -0.98717800957E+02  0.72172122072E+02  0.12243318164E+03  0.00000000000E+00 0. -1.
</event>
<event>
 8    1  0.6834011E-009  0.1252523E+03  0.7561462E-02  0.1234676E+00
         -2   -1    0    0    0  501 -0.00000000000E+00  0.00000000000E+00  0.13391249909E+03  0.13391249909E+03  0.00000000000E+00 0.  1.
          2   -1    0    0  501    0  0.00000000000E+00 -0.00000000000E+00 -0.13205931496E+03  0.13205931496E+03  0.00000000000E+00 0. -1.
         25    2    1    2    0    0  0.71764129274E+01  0.65718291320E+02  0.38231805982E+02  0.14656963504E+03  0.12510232696E+03 0.  0.
         23    2    1    2    0    0 -0.71764129274E+01 -0.65718291320E+02 -0.36378621851E+02  0.11940217901E+03  0.92536919700E+02 0.  0.
          5    1    3    3  502    0  0.60681034345E+02  0.63200386970E+02  0.21746387774E+02  0.90370651339E+02  0.41800000000E+01 0.  1.
         -5    1    3    3    0  502 -0.53504621418E+02  0.25179043503E+01  0.16485418208E+02  0.56198983699E+02  0.41800000000E+01 0.  1.
        -11    1    4    4    0    0 -0.41508968124E+01 -0.87235288814E+02 -0.42072636709E+02  0.96939838655E+02  0.00000000000E+00 0. -1.
         11    1    4    4    0    0 -0.30255161149E+01  0.21516997494E+02  0.56940148578E+01  0.22462340353E+02  0.00000000000E+00 0.  1.
</event>
<event>
 8    1  0.6834011E-009  0.1431359E+03  0.7561462E-02  0.1209171E+00
          2   -1    0    0  501    0  0.00000000000E+00  0.00000000000E+00  0.11377333764E+03  0.11377333764E+03  0.00000000000E+00 0. -1.
         -2   -1    0    0    0  501 -0.00000000000E+00 -0.00000000000E+00 -0.21264654873E+03  0.21264654873E+03  0.00000000000E+00 0.  1.
         25    2    1    2    0    0  0.18448092839E+02 -0.10607488770E+03 -0.71175855646E+02  0.17973996382E+03  0.12509291842E+03 0.  0.
         23    2    1    2    0    0 -0.18448092839E+02  0.10607488770E+03 -0.27697355442E+02  0.14667992254E+03  0.95685120306E+02 0.  0.
          5    1    3    3  502    0  0.47303311462E+02 -0.20144492209E+02  0.15898364905E+02  0.53978090447E+02  0.41800000000E+01 0. -1.
         -5    1    3    3    0  502 -0.28855218623E+02 -0.85930395491E+02 -0.87074220551E+02  0.12576187338E+03  0.41800000000E+01 0. -1.
        -11    1    4    4    0    0  0.39361422618E+02  0.46726423576E+02 -0.14393171708E+02  0.62768173803E+02  0.00000000000E+00 0.  1.
         11    1    4    4    0    0 -0.57809515457E+02  0.59348464124E+02 -0.13304183734E+02  0.83911748737E+02  0.00000000000E+00 0. -1.
</event>
<event>
 8    1  0.6834011E-009  0.9058485E+02  0.7561462E-02  0.1301442E+00
         -1   -1    0    0    0  501 -0.00000000000E+00  0.00000000000E+00  0.41450764451E+02  0.41450764451E+02  0.00000000000E+00 0.  1.
          1   -1    0    0  501    0  0.00000000000E+00 -0.00000000000E+00 -0.31321105116E+03  0.31321105116E+03  0.00000000000E+00 0. -1.
         25    2    1    2    0    0  0.15220669726E+02  0.15036429458E+02 -0.20126637382E+03  0.23793703845E+03  0.12509243797E+03 0.  0.
         23    2    1    2    0    0 -0.15220669726E+02 -0.15036429458E+02 -0.70493912895E+02  0.11672477717E+03  0.90540150498E+02 0.  0.
          5    1    3    3  502    0 -0.23371814708E+02  0.38261567506E+02 -0.16890578658E+02  0.48093173301E+02  0.41800000000E+01 0.  1.
         -5    1    3    3    0  502  0.38592484435E+02 -0.23225138048E+02 -0.18437579516E+03  0.18984386515E+03  0.41800000000E+01 0.  1.
        -11    1    4    4    0    0 -0.21743446923E+02 -0.50428502242E+02 -0.30098884035E+02  0.62623910310E+02  0.00000000000E+00 0.  1.
         11    1    4    4    0    0  0.65227771966E+01  0.35392072783E+02 -0.40395028860E+02  0.54100866859E+02  0.00000000000E+00 0. -1.
</event>
<event>
 8    1  0.6834011E-009  0.8178482E+02  0.7561462E-02  0.1324061E+00
          2   -1    0    0  501    0  0.00000000000E+00  0.00000000000E+00  0.20186159589E+03  0.20186159589E+03  0.00000000000E+00 0. -1.
         -2   -1    0    0    0  501 -0.00000000000E+00 -0.00000000000E+00 -0.58912427934E+02  0.58912427934E+02  0.00000000000E+00 0.  1.
         25    2    1    2    0    0  0.17552229062E+01  0.95438096656E+01  0.97518996507E+02  0.15890750718E+03  0.12508987188E+03 0.  0.
         23    2    1    2    0    0 -0.17552229062E+01 -0.95438096656E+01  0.45430171449E+02  0.10186651665E+03  0.90657165327E+02 0.  0.
          5    1    3    3  502    0  0.69114675545E+01 -0.45805543268E+02  0.91747046907E+02  0.10286354648E+03  0.41800000000E+01 0. -1.
         -5    1    3    3    0  502 -0.51562446483E+01  0.55349352933E+02  0.57719496002E+01  0.56043960702E+02  0.41800000000E+01 0. -1.
        -11    1    4    4    0    0 -0.27920255830E+02 -0.18684865174E+02 -0.13918847932E+02  0.36364807162E+02  0.00000000000E+00 0.  1.
         11    1    4    4    0    0  0.26165032924E+02  0.91410555086E+01  0.59349019381E+02  0.65501709483E+02  0.00000000000E+00 0. -1.
</event>
<event>
 8    1  0.6834011E-009  0.9316627E+02  0.7561462E-02  0.1295360E+00
         -3   -1    0    0    0  501 -0.00000000000E+00  0.00000000000E+00  0.51017826043E+02  0.51017826043E+02  0.00000000000E+00 0. -1.
          3   -1    0    0  501    0  0.00000000000E+00 -0.00000000000E+00 -0.32609615791E+03  0.32609615791E+03  0.00000000000E+00 0.  1.
         25    2    1    2    0    0 -0.23056775055E+02 -0.30816777467E+02 -0.23566288252E+03  0.26956657168E+03  0.12509138148E+03 0.  0.
         23    2    1    2    0    0  0.23056775055E+02  0.30816777467E+02 -0.39415449341E+02  0.10754741227E+03  0.92366550166E+02 0.  0.
          5    1    3    3  502    0 -0.27459189097E+02 -0.77928932887E+02 -0.13651278888E+03  0.15962499671E+03  0.41800000000E+01 0.  1.
         -5    1    3    3    0  502  0.44024140414E+01  0.47112155420E+02 -0.99150093642E+02  0.10994157497E+03  0.41800000000E+01 0.  1.
        -11    1    4    4    0    0 -0.53512057423E+01  0.26895478440E+02 -0.64093542641E+02  0.69713588143E+02  0.00000000000E+00 0.  1.
         11    1    4    4    0    0  0.28407980798E+02  0.39212990271E+01  0.24678093300E+02  0.37833824126E+02  0.00000000000E+00 0. -1.
</event>
<event>
 8    1  0.6834011E-009  0.1888549E+03  0.7561462E-02  0.1159498E+00
          2   -1    0    0  501    0  0.00000000000E+00  0.00000000000E+00  0.20941038962E+04  0.20941038962E+04  0.00000000000E+00 0. -1.
         -2   -1    0    0    0  501 -0.00000000000E+00 -0.00000000000E+00 -0.18475122958E+02  0.18475122958E+02  0.00000000000E+00 0.  1.
         25    2    1    2    0    0 -0.74606272390E+02 -0.14559147015E+03  0.10745636995E+04  0.10941199529E+04  0.12509338578E+03 0.  0.
         23    2    1    2    0    0  0.74606272390E+02  0.14559147015E+03  0.10010650738E+04  0.10184590662E+04  0.91458272202E+02 0.  0.
          5    1    3    3  502    0 -0.97001191042E+02 -0.94282155179E+02  0.91530349886E+03  0.92525473426E+03  0.41800000000E+01 0.  1.
         -5    1    3    3    0  502  0.22394918653E+02 -0.51309314971E+02  0.15926020060E+03  0.16886521868E+03  0.41800000000E+01 0.  1.
        -11    1    4    4    0    0  0.94988885488E+02  0.11111089056E+03  0.82936170049E+03  0.84214568134E+03  0.00000000000E+00 0. -1.
         11    1    4    4    0    0 -0.20382613098E+02  0.34480579588E+02  0.17170337327E+03  0.17631338485E+03  0.00000000000E+00 0.  1.
</event>
<event>
 8    1  0.6834011E-009  0.1794112E+03  0.7561462E-02  0.1168374E+00
          2   -1    0    0  501    0  0.00000000000E+00  0.00000000000E+00  0.12804148248E+04  0.12804148248E+04  0.00000000000E+00 0. -1.
         -2   -1    0    0    0  501 -0.00000000000E+00 -0.00000000000E+00 -0.25829285675E+02  0.25829285675E+02  0.00000000000E+00 0.  1.
         25    2    1    2    0    0 -0.41334209079E+02 -0.13922235319E+03  0.63850391681E+03  0.66665263745E+03  0.12508839581E+03 0.  0.
         23    2    1    2    0    0  0.41334209079E+02  0.13922235319E+03  0.61608162228E+03  0.63959147299E+03  0.91811254989E+02 0.  0.
          5    1    3    3  502    0 -0.21873339477E+02  0.17999381891E+02  0.16131112679E+03  0.16383275849E+03  0.41800000000E+01 0.  1.
         -5    1    3    3    0  502 -0.19460869602E+02 -0.15722173508E+03  0.47719279002E+03  0.50281987896E+03  0.41800000000E+01 0.  1.
        -11    1    4    4    0    0  0.70434961110E+02  0.10882773504E+03  0.45534656252E+03  0.47343959664E+03  0.00000000000E+00 0.  1.
         11    1    4    4    0    0 -0.29100752031E+02  0.30394618154E+02  0.16073505976E+03  0.16615187636E+03  0.00000000000E+00 0. -1.
</event>
<event>
 8    1  0.6834011E-009  0.1200688E+03  0.7561462E-02  0.1242984E+00
         -2   -1    0    0    0  501 -0.00000000000E+00  0.00000000000E+00  0.20378843483E+03  0.20378843483E+03  0.00000000000E+00 0.  1.
          2   -1    0    0  501    0  0.00000000000E+00 -0.00000000000E+00 -0.95529889572E+02  0.95529889572E+02  0.00000000000E+00 0. -1.
         25    2    1    2    0    0  0.15703400494E+02  0.85017072709E+02  0.73627319246E+02  0.16894676791E+03  0.12509008277E+03 0.  0.
         23    2    1    2    0    0 -0.15703400494E+02 -0.85017072709E+02  0.34631226015E+02  0.13037155650E+03  0.91230047074E+02 0.  0.
          5    1    3    3  502    0  0.50657248420E+01  0.11061301397E+03  0.26213361176E+02  0.11386620716E+03  0.41800000000E+01 0. -1.
         -5    1    3    3    0  502  0.10637675652E+02 -0.25595941265E+02  0.47413958070E+02  0.55080560749E+02  0.41800000000E+01 0. -1.
        -11    1    4    4    0    0 -0.33472147042E+01 -0.88418675857E+02 -0.50956748792E+01  0.88628618341E+02  0.00000000000E+00 0. -1.
         11    1    4    4    0    0 -0.12356185790E+02  0.34016031481E+01  0.39726900894E+02  0.41742938156E+02  0.00000000000E+00 0.  1.
</event>
<event>
 8    1  0.6834011E-009  0.9484330E+02  0.7561462E-02  0.1291529E+00
         -2   -1    0    0    0  501 -0.00000000000E+00  0.00000000000E+00  0.18972751855E+03  0.18972751855E+03  0.00000000000E+00 0.  1.
          2   -1    0    0  501    0  0.00000000000E+00 -0.00000000000E+00 -0.84820065362E+02  0.84820065362E+02  0.00000000000E+00 0. -1.
         25    2    1    2    0    0  0.19668736019E+02 -0.61368596322E+02  0.53237468984E+02  0.15044841381E+03  0.12509010082E+03 0.  0.
         23    2    1    2    0    0 -0.19668736019E+02  0.61368596322E+02  0.51669984202E+02  0.12409917010E+03  0.92616699142E+02 0.  0.
          5    1    3    3  502    0 -0.79866245098E+01 -0.71242569232E+02 -0.17354692520E+02  0.73877923592E+02  0.41800000000E+01 0. -1.
         -5    1    3    3    0  502  0.27655360529E+02  0.98739729096E+01  0.70592161503E+02  0.76570490221E+02  0.41800000000E+01 0. -1.
        -11    1    4    4    0    0  0.45047386474E+01  0.63764010724E+02 -0.32926583360E+01  0.64007681827E+02  0.00000000000E+00 0. -1.
         11    1    4    4    0    0 -0.24173474667E+02 -0.23954144023E+01  0.54962642538E+02  0.60091488269E+02  0.00000000000E+00 0.  1.
</event>
<event>
 8    1  0.6834011E-009  0.1326691E+03  0.7561462E-02  0.1223548E+00
          2   -1    0    0  501    0  0.00000000000E+00  0.00000000000E+00  0.67470344002E+02  0.67470344002E+02  0.00000000000E+00 0. -1.
         -2   -1    0    0    0  501 -0.00000000000E+00 -0.00000000000E+00 -0.40872697013E+03  0.40872697013E+03  0.00000000000E+00 0.  1.
         25    2    1    2    0    0  0.98555747496E+02 -0.69186718324E+02 -0.12856636645E+03  0.21604862706E+03  0.12509061243E+03 0.  0.
         23    2    1    2    0    0 -0.98555747496E+02  0.69186718324E+02 -0.21269025968E+03  0.26014868706E+03  0.89107549968E+02 0.  0.
          5    1    3    3  502    0  0.88612436829E+01 -0.49041273239E+02 -0.11184645492E+03  0.12251803948E+03  0.41800000000E+01 0. -1.
         -5    1    3    3    0  502  0.89694503813E+02 -0.20145445085E+02 -0.16719911525E+02  0.93530587582E+02  0.41800000000E+01 0. -1.
        -11    1    4    4    0    0 -0.62561374218E+02  0.58760863609E+02 -0.64690790503E+02  0.10747866305E+03  0.00000000000E+00 0. -1.
         11    1    4    4    0    0 -0.35994373278E+02  0.10425854714E+02 -0.14799946918E+03  0.15267002401E+03  0.00000000000E+00 0.  1.
</event>
<event>
 8    1  0.6834011E-009  0.8007192E+02  0.7561462E-02  0.1328847E+00
         -1   -1    0    0    0  501 -0.00000000000E+00  0.00000000000E+00  0.65523302524E+03  0.65523302524E+03  0.00000000000E+00 0.  1.
          1   -1    0    0  501    0  0.00000000000E+00 -0.00000000000E+00 -0.25796220627E+02  0.25796220627E+02  0.00000000000E+00 0. -1.
         25    2    1    2    0    0  0.44160676826E+02 -0.50325506465E+02  0.39022484024E+03  0.41521730455E+03  0.12508861690E+03 0.  0.
         23    2    1    2    0    0 -0.44160676826E+02  0.50325506465E+02  0.23921196437E+03  0.26581194131E+03  0.94608679674E+02 0.  0.
          5    1    3    3  502    0  0.23374852030E-01 -0.13691001263E+02 -0.54999415982E+01  0.15335117200E+02  0.41800000000E+01 0.  1.
         -5    1    3    3    0  502  0.44137301974E+02 -0.36634505202E+02  0.39572478184E+03  0.39988218735E+03  0.41800000000E+01 0.  1.
        -11    1    4    4    0    0 -0.12880581452E+02  0.55178850018E+02  0.22331231225E+03  0.23038880978E+03  0.00000000000E+00 0.  1.
         11    1    4    4    0    0 -0.31280095374E+02 -0.48533435532E+01  0.15899652114E+02  0.35423131533E+02  0.00000000000E+00 0. -1.
</event>
<event>
 8    1  0.6834011E-009  0.4480622E+03  0.7561462E-02  0.1028301E+00
         -2   -1    0    0    0  501 -0.00000000000E+00  0.00000000000E+00  0.77407399309E+02  0.77407399309E+02  0.00000000000E+00 0.  1.
          2   -1    0    0  501    0  0.00000000000E+00 -0.00000000000E+00 -0.32136696555E+04  0.32136696555E+04  0.00000000000E+00 0. -1.
         25    2    1    2    0    0  0.26189183469E+03  0.36144431741E+03 -0.22183472953E+04  0.22662620389E+04  0.12509827601E+03 0.  0.
         23    2    1    2    0    0 -0.26189183469E+03 -0.36144431741E+03 -0.91791496090E+03  0.10248150159E+04  0.91916341186E+02 0.  0.
          5    1    3    3  502    0  0.11305902690E+03  0.16284092861E+03 -0.69138900407E+03  0.71926055011E+03  0.41800000000E+01 0. -1.
         -5    1    3    3    0  502  0.14883280779E+03  0.19860338879E+03 -0.15269582912E+04  0.15470014888E+04  0.41800000000E+01 0. -1.
        -11    1    4    4    0    0 -0.14474056498E+03 -0.24424377702E+03 -0.49573634360E+03  0.57127872018E+03  0.00000000000E+00 0.  1.
         11    1    4    4    0    0 -0.11715126971E+03 -0.11720054038E+03 -0.42217861730E+03  0.45353629575E+03  0.00000000000E+00 0. -1.
</event>
<event>
 8    1  0.6834011E-009  0.1071490E+03  0.7561462E-02  0.1265942E+00
          1   -1    0    0  501    0  0.00000000000E+00  0.00000000000E+00  0.26914351958E+03  0.26914351958E+03  0.00000000000E+00 0. -1.
         -1   -1    0    0    0  501 -0.00000000000E+00 -0.00000000000E+00 -0.73764424559E+02  0.73764424559E+02  0.00000000000E+00 0.  1.
         25    2    1    2    0    0  0.47611284350E+02  0.47526817807E+02  0.17916121594E+03  0.22863110243E+03  0.12509119431E+03 0.  0.
         23    2    1    2    0    0 -0.47611284350E+02 -0.47526817807E+02  0.16217879087E+02  0.11427684171E+03  0.90942532084E+02 0.  0.
          5    1    3    3  502    0  0.73763567231E+02  0.68145178747E+02  0.16271383825E+03  0.19125400596E+03  0.41800000000E+01 0. -1.
         -5    1    3    3    0  502 -0.26152282882E+02 -0.20618360940E+02  0.16447377688E+02  0.37377096471E+02  0.41800000000E+01 0. -1.
        -11    1    4    4    0    0 -0.37640635105E+02 -0.67440340983E+01  0.48180000915E+02  0.61511071322E+02  0.00000000000E+00 0. -1.
         11    1    4    4    0    0 -0.99706492446E+01 -0.40782783709E+02 -0.31962121827E+02  0.52765770392E+02  0.00000000000E+00 0.  1.
</event>
<event>
 8    1  0.6834011E-009  0.1124417E+03  0.7561462E-02  0.1256114E+00
          1   -1    0    0  501    0  0.00000000000E+00  0.00000000000E+00  0.34319151941E+02  0.34319151941E+02  0.00000000000E+00 0. -1.
         -1   -1    0    0    0  501 -0.00000000000E+00 -0.00000000000E+00 -0.57393853473E+03  0.57393853473E+03  0.00000000000E+00 0.  1.
         25    2    1    2    0    0  0.19508469391E+02 -0.78137838706E+02 -0.37940340432E+03  0.40753058937E+03  0.12509250915E+03 0.  0.
         23    2    1    2    0    0 -0.19508469391E+02  0.78137838706E+02 -0.16021597847E+03  0.20072709730E+03  0.90200363741E+02 0.  0.
          5    1    3    3  502    0  0.44276645792E+02 -0.31846818277E+01 -0.42927253053E+02  0.61893335793E+02  0.41800000000E+01 0.  1.
         -5    1    3    3    0  502 -0.24768176401E+02 -0.74953156879E+02 -0.33647615126E+03  0.34563725357E+03  0.41800000000E+01 0.  1.
        -11    1    4    4    0    0  0.73429377149E+00  0.80822635094E+02 -0.16115230249E+03  0.18028561265E+03  0.00000000000E+00 0.  1.
         11    1    4    4    0    0 -0.20242763163E+02 -0.26847963879E+01  0.93632402094E+00  0.20441484652E+02  0.00000000000E+00 0. -1.
</event>
<event>
 8    1  0.6834011E-009  0.1035852E+03  0.7561462E-02  0.1272933E+00
         -1   -1    0    0    0  501 -0.00000000000E+00  0.00000000000E+00  0.62646099225E+02  0.62646099225E+02  0.00000000000E+00 0.  1.
          1   -1    0    0  501    0  0.00000000000E+00 -0.00000000000E+00 -0.19855130863E+03  0.19855130863E+03  0.00000000000E+00 0. -1.
         25    2    1    2    0    0 -0.11287352500E+02 -0.13378891178E+02 -0.87841778960E+02  0.15385023233E+03  0.12508923535E+03 0.  0.
         23    2    1    2    0    0  0.11287352500E+02  0.13378891178E+02 -0.48063430441E+02  0.10734717552E+03  0.94376499679E+02 0.  0.
          5    1    3    3  502    0 -0.58999404031E+02 -0.25211295631E+02 -0.15248861668E+02  0.66079794836E+02  0.41800000000E+01 0. -1.
         -5    1    3    3    0  502  0.47712051531E+02  0.11832404453E+02 -0.72592917293E+02  0.87770437492E+02  0.41800000000E+01 0. -1.
        -11    1    4    4    0    0 -0.15681492528E+02  0.47514712047E+02 -0.13611701700E+02  0.51853982412E+02  0.00000000000E+00 0.  1.
         11    1    4    4    0    0  0.26968845028E+02 -0.34135820869E+02 -0.34451728740E+02  0.55493193112E+02  0.00000000000E+00 0. -1.
</event>
<event>
 8    1  0.6834011E-009  0.1254538E+03  0.7561462E-02  0.1234362E+00
          1   -1    0    0  501    0  0.00000000000E+00  0.00000000000E+00  0.12495339914E+04  0.12495339914E+04  0.00000000000E+00 0. -1.
         -1   -1    0    0    0  501 -0.00000000000E+00 -0.00000000000E+00 -0.19366920700E+02  0.19366920700E+02  0.00000000000E+00 0.  1.
         25    2    1    2    0    0  0.10695371111E+03 -0.13287813533E+02  0.77069060310E+03  0.78817897634E+03  0.12508569357E+03 0.  0.
         23    2    1    2    0    0 -0.10695371111E+03  0.13287813533E+02  0.45947646758E+03  0.48072193574E+03  0.91429168927E+02 0.  0.
          5    1    3    3  502    0  0.12189860144E+02 -0.80397640355E+01  0.41113815356E+01  0.15735512518E+02  0.41800000000E+01 0. -1.
         -5    1    3    3    0  502  0.94763850964E+02 -0.52480494974E+01  0.76657922157E+03  0.77244346383E+03  0.41800000000E+01 0. -1.
        -11    1    4    4    0    0 -0.43506878352E+02 -0.39056082723E+02  0.16915823879E+03  0.17897691419E+03  0.00000000000E+00 0. -1.
         11    1    4    4    0    0 -0.63446832756E+02  0.52343896256E+02  0.29031822879E+03  0.30174502155E+03  0.00000000000E+00 0.  1.
</event>
<event>
 8    1  0.6834011E-009  0.1133081E+03  0.7561462E-02  0.1254564E+00
          2   -1    0    0  501    0  0.00000000000E+00  0.00000000000E+00  0.11399481102E+04  0.11399481102E+04  0.00000000000E+00 0. -1.
         -2   -1    0    0    0  501 -0.00000000000E+00 -0.00000000000E+00 -0.22786357212E+02  0.22786357212E+02  0.00000000000E+00 0.  1.
         25    2    1    2    0    0  0.21214893243E+02  0.92123021590E+02  0.85301434444E+03  0.86730498189E+03  0.12509091489E+03 0.  0.
         23    2    1    2    0    0 -0.21214893243E+02 -0.92123021590E+02  0.26414740859E+03  0.29542948557E+03  0.92563516972E+02 0.  0.
          5    1    3    3  502    0  0.16998959888E+02  0.11865096194E+02  0.16224905047E+02  0.26654550995E+02  0.41800000000E+01 0. -1.
         -5    1    3    3    0  502  0.42159333544E+01  0.80257925396E+02  0.83678943939E+03  0.84065043089E+03  0.41800000000E+01 0. -1.
        -11    1    4    4    0    0 -0.52190575096E+02 -0.68061385201E+02  0.13063213391E+03  0.15627207906E+03  0.00000000000E+00 0.  1.
         11    1    4    4    0    0  0.30975681853E+02 -0.24061636389E+02  0.13351527468E+03  0.13915740650E+03  0.00000000000E+00 0. -1.
</event>
<event>
 8    1  0.6834011E-009  0.2517406E+03  0.7561462E-02  0.1112210E+00
         -2   -1    0    0    0  501 -0.00000000000E+00  0.00000000000E+00  0.55757574455E+02  0.55757574455E+02  0.00000000000E+00 0.  1.
          2   -1    0    0  501    0  0.00000000000E+00 -0.00000000000E+00 -0.12712978782E+04  0.12712978782E+04  0.00000000000E+00 0. -1.
         25    2    1    2    0    0 -0.85341066517E+02  0.21656325641E+03 -0.79665094714E+03  0.83933374191E+03  0.12508260099E+03 0.  0.
         23    2    1    2    0    0  0.85341066517E+02 -0.21656325641E+03 -0.41888935662E+03  0.48772171076E+03  0.90672114775E+02 0.  0.
          5    1    3    3  502    0  0.33172603328E+01  0.12983342134E+03 -0.52230694519E+03  0.53822833343E+03  0.41800000000E+01 0. -1.
         -5    1    3    3    0  502 -0.88658326850E+02  0.86729835063E+02 -0.27434400194E+03  0.30110540847E+03  0.41800000000E+01 0. -1.
        -11    1    4    4    0    0 -0.11124747521E+02 -0.88060390546E+02 -0.16187249978E+03  0.18461066755E+03  0.00000000000E+00 0. -1.
         11    1    4    4    0    0  0.96465814038E+02 -0.12850286586E+03 -0.25701685684E+03  0.30311104320E+03  0.00000000000E+00 0.  1.
</event>
<event>
 8    1  0.6834011E-009  0.3151604E+03  0.7561462E-02  0.1077898E+00
          1   -1    0    0  501    0  0.00000000000E+00  0.00000000000E+00  0.22035852596E+04  0.22035852596E+04  0.00000000000E+00 0. -1.
         -1   -1    0    0    0  501 -0.00000000000E+00 -0.00000000000E+00 -0.47345122819E+02  0.47345122819E+02  0.00000000000E+00 0.  1.
         25    2    1    2    0    0 -0.86701311154E+02  0.28441190629E+03  0.13120544189E+04  0.13511257794E+04  0.12508726454E+03 0.  0.
         23    2    1    2    0    0  0.86701311154E+02 -0.28441190629E+03  0.84418571780E+03  0.89980460296E+03  0.92690601325E+02 0.  0.
          5    1    3    3  502    0  0.25285585554E+02  0.11273958380E+03  0.40412216483E+03  0.42033530794E+03  0.41800000000E+01 0. -1.
         -5    1    3    3    0  502 -0.11198689671E+03  0.17167232249E+03  0.90793225411E+03  0.93079047148E+03  0.41800000000E+01 0. -1.
        -11    1    4    4    0    0  0.95769931883E+02 -0.17158987444E+03  0.58031535862E+03  0.61268334424E+03  0.00000000000E+00 0. -1.
         11    1    4    4    0    0 -0.90686207291E+01 -0.11282203185E+03  0.26387035918E+03  0.28712125872E+03  0.00000000000E+00 0.  1.
</event>
<event>
 8    1  0.6834011E-009  0.1109016E+03  0.7561462E-02  0.1258909E+00
         -1   -1    0    0    0  501 -0.00000000000E+00  0.00000000000E+00  0.28174382141E+02  0.28174382141E+02  0.00000000000E+00 0.  1.
          1   -1    0    0  501    0  0.00000000000E+00 -0.00000000000E+00 -0.73958069837E+03  0.73958069837E+03  0.00000000000E+00 0. -1.
         25    2    1    2    0    0  0.90026157255E+02  0.17152952883E+02 -0.36118291410E+03  0.39306488174E+03  0.12509185039E+03 0.  0.
         23    2    1    2    0    0 -0.90026157255E+02 -0.17152952883E+02 -0.35022340213E+03  0.37469019878E+03  0.96630124065E+02 0.  0.
          5    1    3    3  502    0  0.43622859058E+02  0.26456359920E+02 -0.31777802458E+02  0.60251090792E+02  0.41800000000E+01 0. -1.
         -5    1    3    3    0  502  0.46403298197E+02 -0.93034070365E+01 -0.32940511164E+03  0.33281379094E+03  0.41800000000E+01 0. -1.
        -11    1    4    4    0    0 -0.89899926698E+02 -0.41315995270E+02 -0.32514459978E+03  0.33986470698E+03  0.00000000000E+00 0. -1.
         11    1    4    4    0    0 -0.12623055715E+00  0.24163042386E+02 -0.25078802354E+02  0.34825491799E+02  0.00000000000E+00 0.  1.
</event>
<event>
 8    1  0.6834011E-009  0.1092812E+03  0.7561462E-02  0.1261907E+00
          2   -1    0    0  501    0  0.00000000000E+00  0.00000000000E+00  0.25680271571E+03  0.25680271571E+03  0.00000000000E+00 0. -1.
         -2   -1    0    0    0  501 -0.00000000000E+00 -0.00000000000E+00 -0.59858267897E+02  0.59858267897E+02  0.00000000000E+00 0.  1.
         25    2    1    2    0    0  0.54981891707E+02 -0.17121547312E+02  0.11709645194E+03  0.18076503969E+03  0.12509302426E+03 0.  0.
         23    2    1    2    0    0 -0.54981891707E+02  0.17121547312E+02  0.79847995877E+02  0.13589594392E+03  0.93679503262E+02 0.  0.
          5    1    3    3  502    0  0.54967755059E+02 -0.65370129641E+02  0.94111778998E+02  0.12715819789E+03  0.41800000000E+01 0.  1.
         -5    1    3    3    0  502  0.14136648406E-01  0.48248582330E+02  0.22984672942E+02  0.53606841792E+02  0.41800000000E+01 0.  1.
        -11    1    4    4    0    0 -0.64795199439E+02 -0.10601149609E+00  0.12890928945E+02  0.66065158426E+02  0.00000000000E+00 0.  1.
         11    1    4    4    0    0  0.98133077322E+01  0.17227558808E+02  0.66957066933E+02  0.69830785499E+02  0.00000000000E+00 0. -1.
</event>
<event>
 8    1  0.6834011E-009  0.1450070E+03  0.7561462E-02  0.1206746E+00
         -2   -1    0    0    0  501 -0.00000000000E+00  0.00000000000E+00  0.48342326435E+02  0.48342326435E+02  0.00000000000E+00 0. -1.
          2   -1    0    0  501    0  0.00000000000E+00 -0.00000000000E+00 -0.67421652775E+03  0.67421652775E+03  0.00000000000E+00 0.  1.
         25    2    1    2    0    0 -0.12595193453E+03  0.36301393172E+02 -0.21227650258E+03  0.27908925205E+03  0.12509123113E+03 0.  0.
         23    2    1    2    0    0  0.12595193453E+03 -0.36301393172E+02 -0.41359769873E+03  0.44346960213E+03  0.91763558461E+02 0.  0.
          5    1    3    3  502    0 -0.10190656795E+03  0.14505026945E+02 -0.22217982985E+03  0.24490139565E+03  0.41800000000E+01 0. -1.
         -5    1    3    3    0  502 -0.24045366578E+02  0.21796366227E+02  0.99033272672E+01  0.34187856404E+02  0.41800000000E+01 0. -1.
        -11    1    4    4    0    0  0.74680473229E+02  0.20808337810E+02 -0.26659198549E+03  0.27763545654E+03  0.00000000000E+00 0.  1.
         11    1    4    4    0    0  0.51271461299E+02 -0.57109730982E+02 -0.14700571325E+03  0.16583414559E+03  0.00000000000E+00 0. -1.
</event>
<event>
 8    1  0.6834011E-009  0.8634071E+02  0.7561462E-02  0.1311963E+00
          1   -1    0    0  501    0  0.00000000000E+00  0.00000000000E+00  0.27589275236E+03  0.27589275236E+03  0.00000000000E+00 0. -1.
         -1   -1    0    0    0  501 -0.00000000000E+00 -0.00000000000E+00 -0.64119181389E+02  0.64119181389E+02  0.00000000000E+00 0.  1.
         25    2    1    2    0    0 -0.10204217292E+02 -0.55335913676E+02  0.17005451435E+03  0.21847629433E+03  0.12508862434E+03 0.  0.
         23    2    1    2    0    0  0.10204217292E+02  0.55335913676E+02  0.41719056619E+02  0.12153563942E+03  0.99318893328E+02 0.  0.
          5    1    3    3  502    0  0.62996231743E+01 -0.42040268089E+02  0.18649880512E+03  0.19132784979E+03  0.41800000000E+01 0.  1.
         -5    1    3    3    0  502 -0.16503840466E+02 -0.13295645587E+02 -0.16444290771E+02  0.27148444535E+02  0.41800000000E+01 0.  1.
        -11    1    4    4    0    0  0.22518825607E+02  0.78752090373E+02  0.13783320783E+02  0.83060033570E+02  0.00000000000E+00 0.  1.
         11    1    4    4    0    0 -0.12314608315E+02 -0.23416176697E+02  0.27935735836E+02  0.38475605853E+02  0.00000000000E+00 0. -1.
</event>
<event>
 8    1  0.6834011E-009  0.1666958E+03  0.7561462E-02  0.1181338E+00
          2   -1    0    0  501    0  0.00000000000E+00  0.00000000000E+00  0.58070041133E+03  0.58070041133E+03  0.00000000000E+00 0.  1.
         -2   -1    0    0    0  501 -0.00000000000E+00 -0.00000000000E+00 -0.96194330167E+02  0.96194330167E+02  0.00000000000E+00 0. -1.
         25    2    1    2    0    0 -0.10453691800E+03  0.11140553666E+03  0.44454224027E+02  0.20239515709E+03  0.12509380782E+03 0.  0.
         23    2    1    2    0    0  0.10453691800E+03 -0.11140553666E+03  0.44005185713E+03  0.47449958440E+03  0.90360709429E+02 0.  0.
          5    1    3    3  502    0 -0.95596598302E+02  0.11963326762E+03  0.74034112067E+02  0.17014508656E+03  0.41800000000E+01 0.  1.
         -5    1    3    3    0  502 -0.89403196977E+01 -0.82277309608E+01 -0.29579888040E+02  0.32250070535E+02  0.41800000000E+01 0.  1.
        -11    1    4    4    0    0  0.10874920766E+03 -0.78369239442E+02  0.27267647011E+03  0.30384302725E+03  0.00000000000E+00 0. -1.
         11    1    4    4    0    0 -0.42122896574E+01 -0.33036297221E+02  0.16737538703E+03  0.17065655716E+03  0.00000000000E+00 0.  1.
</event>
<event>
 8    1  0.6834011E-009  0.1043681E+03  0.7561462E-02  0.1271370E+00
         -2   -1    0    0    0  501 -0.00000000000E+00  0.00000000000E+00  0.89268226042E+02  0.89268226042E+02  0.00000000000E+00 0.  1.
          2   -1    0    0  501    0  0.00000000000E+00 -0.00000000000E+00 -0.15649484883E+03  0.15649484883E+03  0.00000000000E+00 0. -1.
         25    2    1    2    0    0 -0.41358507705E+02 -0.41314440726E+01 -0.12395928151E+02  0.13239496829E+03  0.12508866297E+03 0.  0.
         23    2    1    2    0    0  0.41358507705E+02  0.41314440726E+01 -0.54830694638E+02  0.11336810658E+03  0.90101762059E+02 0.  0.
          5    1    3    3  502    0 -0.23907077685E+02 -0.55741116896E+02 -0.38373999602E+02  0.71893370499E+02  0.41800000000E+01 0. -1.
         -5    1    3    3    0  502 -0.17451430020E+02  0.51609672823E+02  0.25978071452E+02  0.60501597789E+02  0.41800000000E+01 0. -1.
        -11    1    4    4    0    0  0.56387706078E+02  0.29632562603E+02 -0.18152823503E+02  0.66235845011E+02  0.00000000000E+00 0.  1.
         11    1    4    4    0    0 -0.15029198372E+02 -0.25501118531E+02 -0.36677871134E+02  0.47132261573E+02  0.00000000000E+00 0. -1.
</event>
<event>
 8    1  0.6834011E-009  0.7968422E+02  0.7561462E-02  0.1329950E+00
          1   -1    0    0  501    0  0.00000000000E+00  0.00000000000E+00  0.84591305397E+02  0.84591305397E+02  0.00000000000E+00 0. -1.
         -1   -1    0    0    0  501 -0.00000000000E+00 -0.00000000000E+00 -0.19982498592E+03  0.19982498592E+03  0.00000000000E+00 0.  1.
         25    2    1    2    0    0 -0.27562783188E+02 -0.44180415341E+02 -0.11832473873E+03  0.17988748098E+03  0.12508855224E+03 0.  0.
         23    2    1    2    0    0  0.27562783188E+02  0.44180415341E+02  0.30910582002E+01  0.10452881034E+03  0.90582014955E+02 0.  0.
          5    1    3    3  502    0 -0.47420821774E+02  0.59920731617E+01 -0.11620964943E+03  0.12572507426E+03  0.41800000000E+01 0.  1.
         -5    1    3    3    0  502  0.19858038586E+02 -0.50172488503E+02 -0.21150893024E+01  0.54162406721E+02  0.41800000000E+01 0.  1.
        -11    1    4    4    0    0  0.42945438719E+01  0.29376282996E+02  0.45268390694E+02  0.54135351719E+02  0.00000000000E+00 0. -1.
         11    1    4    4    0    0  0.23268239316E+02  0.14804132345E+02 -0.42177332494E+02  0.50393458620E+02  0.00000000000E+00 0.  1.
</event>
<event>
 8    1  0.6834011E-009  0.1291877E+03  0.7561462E-02  0.1228666E+00
         -2   -1    0    0    0  501 -0.00000000000E+00  0.00000000000E+00  0.61136761163E+02  0.61136761163E+02  0.00000000000E+00 0.  1.
          2   -1    0    0  501    0  0.00000000000E+00 -0.00000000000E+00 -0.34097521325E+03  0.34097521325E+03  0.00000000000E+00 0. -1.
         25    2    1    2    0    0 -0.57291132342E+02  0.42692104874E+02 -0.68604558566E+02  0.15957135461E+03  0.12510612332E+03 0.  0.
         23    2    1    2    0    0  0.57291132342E+02 -0.42692104874E+02 -0.21123389352E+03  0.24254061980E+03  0.95400759011E+02 0.  0.
          5    1    3    3  502    0 -0.89452459837E+02  0.42986086568E+01 -0.25103048596E+02  0.93101321452E+02  0.41800000000E+01 0.  1.
         -5    1    3    3    0  502  0.32161327495E+02  0.38393496218E+02 -0.43501509970E+02  0.66470033156E+02  0.41800000000E+01 0.  1.
        -11    1    4    4    0    0  0.33958186391E+02 -0.72825193644E+02 -0.15531495077E+03  0.17486966914E+03  0.00000000000E+00 0. -1.
         11    1    4    4    0    0  0.23332945951E+02  0.30133088770E+02 -0.55918942745E+02  0.67670950660E+02  0.00000000000E+00 0.  1.
</event>
<event>
 8    1  0.6834011E-009  0.1432403E+03  0.7561462E-02  0.1209034E+00
          1   -1    0    0  501    0  0.00000000000E+00  0.00000000000E+00  0.81412293231E+03  0.81412293231E+03  0.00000000000E+00 0. -1.
         -1   -1    0    0    0  501 -0.00000000000E+00 -0.00000000000E+00 -0.31278511241E+02  0.31278511241E+02  0.00000000000E+00 0.  1.
         25    2    1    2    0    0  0.66703804885E+01  0.11718395253E+03  0.42491753346E+03  0.45823695923E+03  0.12509847262E+03 0.  0.
         23    2    1    2    0    0 -0.66703804885E+01 -0.11718395253E+03  0.35792688761E+03  0.38716448432E+03  0.89488034635E+02 0.  0.
          5    1    3    3  502    0  0.58376136021E+02  0.26671783160E+02  0.20454436669E+03  0.21441788083E+03  0.41800000000E+01 0.  1.
         -5    1    3    3    0  502 -0.51705755532E+02  0.90512169370E+02  0.22037316677E+03  0.24381907840E+03  0.41800000000E+01 0.  1.
        -11    1    4    4    0    0 -0.77229668336E+01 -0.45650032776E+02  0.39681704528E+02  0.60977105404E+02  0.00000000000E+00 0.  1.
         11    1    4    4    0    0  0.10525863451E+01 -0.71533919753E+02  0.31824518308E+03  0.32618737892E+03  0.00000000000E+00 0. -1.
</event>
<event>
 8    1  0.6834011E-009  0.1463415E+03  0.7561462E-02  0.1205042E+00
         -2   -1    0    0    0  501 -0.00000000000E+00  0.00000000000E+00  0.74790034382E+02  0.74790034382E+02  0.00000000000E+00 0.  1.
          2   -1    0    0  501    0  0.00000000000E+00 -0.00000000000E+00 -0.35499046634E+03  0.35499046634E+03  0.00000000000E+00 0. -1.
         25    2    1    2    0    0  0.10464511858E+03 -0.53518084957E+02 -0.18858017591E+03  0.25499936799E+03  0.12508960256E+03 0.  0.
         23    2    1    2    0    0 -0.10464511858E+03  0.53518084957E+02 -0.91620256053E+02  0.17478113274E+03  0.91320243003E+02 0.  0.
          5    1    3    3  502    0  0.70204163412E+02 -0.93093336560E+02 -0.10950921430E+03  0.16001479397E+03  0.41800000000E+01 0. -1.
         -5    1    3    3    0  502  0.34440955165E+02  0.39575251602E+02 -0.79070961605E+02  0.94984574017E+02  0.41800000000E+01 0. -1.
        -11    1    4    4    0    0 -0.14085715630E+02  0.24545728786E+02 -0.72457732216E+02  0.77788322674E+02  0.00000000000E+00 0. -1.
         11    1    4    4    0    0 -0.90559402947E+02  0.28972356171E+02 -0.19162523836E+02  0.96992810063E+02  0.00000000000E+00 0.  1.
</event>
<event>
 8    1  0.6834011E-009  0.1506798E+03  0.7561462E-02  0.1199640E+00
          1   -1    0    0  501    0  0.00000000000E+00  0.00000000000E+00  0.67467592132E+02  0.67467592132E+02  0.00000000000E+00 0. -1.
         -1   -1    0    0    0  501 -0.00000000000E+00 -0.00000000000E+00 -0.36037926595E+03  0.36037926595E+03  0.00000000000E+00 0.  1.
         25    2    1    2    0    0  0.43654572461E+01  0.10998226836E+03 -0.12858152401E+03  0.21046551924E+03  0.12508944761E+03 0.  0.
         23    2    1    2    0    0 -0.43654572461E+01 -0.10998226836E+03 -0.16433014981E+03  0.21738133884E+03  0.90194743569E+02 0.  0.
          5    1    3    3  502    0 -0.37947697041E+02  0.11085301479E+03 -0.65241796576E+02  0.13417295934E+03  0.41800000000E+01 0.  1.
         -5    1    3    3    0  502  0.42313154287E+02 -0.87074642390E+00 -0.63339727430E+02  0.76292559899E+02  0.41800000000E+01 0.  1.
        -11    1    4    4    0    0 -0.46099075213E+02 -0.69842689274E+02 -0.86276845550E+02  0.12019492526E+03  0.00000000000E+00 0. -1.
         11    1    4    4    0    0  0.41733617967E+02 -0.40139579089E+02 -0.78053304257E+02  0.97186413575E+02  0.00000000000E+00 0.  1.
</event>
<event>
 8    1  0.6834011E-009  0.1548023E+03  0.7561462E-02  0.1194693E+00
          1   -1    0    0  501    0  0.00000000000E+00  0.00000000000E+00  0.11079146544E+03  0.11079146544E+03  0.00000000000E+00 0. -1.
         -1   -1    0    0    0  501 -0.00000000000E+00 -0.00000000000E+00 -0.47832504700E+03  0.47832504700E+03  0.00000000000E+00 0.  1.
         25    2    1    2    0    0 -0.99634452780E+02  0.83656234030E+02 -0.38892235737E+03  0.42875895689E+03  0.12509297891E+03 0.  0.
         23    2    1    2    0    0  0.99634452780E+02 -0.83656234030E+02  0.21388775810E+02  0.16035755556E+03  0.91278016091E+02 0.  0.
          5    1    3    3  502    0 -0.82932673052E+02 -0.29434861569E+01 -0.12196121461E+03  0.14757541339E+03  0.41800000000E+01 0.  1.
         -5    1    3    3    0  502 -0.16701779728E+02  0.86599720187E+02 -0.26696114277E+03  0.28118354349E+03  0.41800000000E+01 0.  1.
        -11    1    4    4    0    0  0.86787900053E+02 -0.88996039802E+02  0.45621633471E+02  0.13241513560E+03  0.00000000000E+00 0. -1.
         11    1    4    4    0    0  0.12846552727E+02  0.53398057716E+01 -0.24232857661E+02  0.27942419957E+02  0.00000000000E+00 0.  1.
</event>
<event>
 8    1  0.6834011E-009  0.6516934E+02  0.7561462E-02  0.1377336E+00
         -1   -1    0    0    0  501 -0.00000000000E+00  0.00000000000E+00  0.47887108239E+02  0.47887108239E+02  0.00000000000E+00 0.  1.
          1   -1    0    0  501    0  0.00000000000E+00 -0.00000000000E+00 -0.29378732230E+03  0.29378732230E+03  0.00000000000E+00 0. -1.
         25    2    1    2    0    0 -0.47056537266E+02 -0.86118263805E+01 -0.12488493363E+03  0.18311610647E+03  0.12508709185E+03 0.  0.
         23    2    1    2    0    0  0.47056537266E+02  0.86118263805E+01 -0.12101528043E+03  0.15855832407E+03  0.90595600231E+02 0.  0.
          5    1    3    3  502    0 -0.74847558954E+01  0.21247729333E+02  0.19696784181E+02  0.30214620297E+02  0.41800000000E+01 0. -1.
         -5    1    3    3    0  502 -0.39571781371E+02 -0.29859555714E+02 -0.14458171781E+03  0.15290148617E+03  0.41800000000E+01 0. -1.
        -11    1    4    4    0    0  0.20978707660E+02 -0.12239686596E+02  0.77812980040E+01  0.25504209490E+02  0.00000000000E+00 0.  1.
         11    1    4    4    0    0  0.26077829606E+02  0.20851512976E+02 -0.12879657844E+03  0.13305411458E+03  0.00000000000E+00 0. -1.
</event>
<event>
 8    1  0.6834011E-009  0.9334149E+02  0.7561462E-02  0.1294956E+00
         -2   -1    0    0    0  501 -0.00000000000E+00  0.00000000000E+00  0.10268906139E+03  0.10268906139E+03  0.00000000000E+00 0.  1.
          2   -1    0    0  501    0  0.00000000000E+00 -0.00000000000E+00 -0.15546849466E+03  0.15546849466E+03  0.00000000000E+00 0. -1.
         25    2    1    2    0    0 -0.56798983294E+02 -0.23602738272E+02 -0.15568448967E+02  0.14025874011E+03  0.12508766452E+03 0.  0.
         23    2    1    2    0    0  0.56798983294E+02  0.23602738272E+02 -0.37210984304E+02  0.11789881595E+03  0.93446560626E+02 0.  0.
          5    1    3    3  502    0 -0.51342342086E+01 -0.28253986793E+02 -0.63304832905E+02  0.69639230321E+02  0.41800000000E+01 0.  1.
         -5    1    3    3    0  502 -0.51664749086E+02  0.46512485209E+01  0.47736383938E+02  0.70619509785E+02  0.41800000000E+01 0.  1.
        -11    1    4    4    0    0  0.63398487674E+02 -0.16070382400E+02 -0.41490061520E+02  0.77453538555E+02  0.00000000000E+00 0. -1.
         11    1    4    4    0    0 -0.65995043795E+01  0.39673120672E+02  0.42790772160E+01  0.40445277397E+02  0.00000000000E+00 0.  1.
</event>
<event>
 8    1  0.6834011E-009  0.1076765E+03  0.7561462E-02  0.1264934E+00
          2   -1    0    0  501    0  0.00000000000E+00  0.00000000000E+00  0.14519958684E+03  0.14519958684E+03  0.00000000000E+00 0.  1.
         -2   -1    0    0    0  501 -0.00000000000E+00 -0.00000000000E+00 -0.93149665666E+02  0.93149665666E+02  0.00000000000E+00 0. -1.
         25    2    1    2    0    0 -0.38004106790E+02  0.17530035670E+02  0.20985295414E+02  0.13356361468E+03  0.12508893740E+03 0.  0.
         23    2    1    2    0    0  0.38004106790E+02 -0.17530035670E+02  0.31064625758E+02  0.10478563782E+03  0.90903270769E+02 0.  0.
          5    1    3    3  502    0  0.44181328236E+02  0.21892365477E+02  0.87746623110E+01  0.50256666518E+02  0.41800000000E+01 0.  1.
         -5    1    3    3    0  502 -0.82185435026E+02 -0.43623298072E+01  0.12210633103E+02  0.83306948164E+02  0.41800000000E+01 0.  1.
        -11    1    4    4    0    0  0.92800767672E+01 -0.43656752876E+02 -0.12577628154E+02  0.46370557754E+02  0.00000000000E+00 0. -1.
         11    1    4    4    0    0  0.28724030023E+02  0.26126717206E+02  0.43642253911E+02  0.58415080066E+02  0.00000000000E+00 0.  1.
</event>
<event>
 8    1  0.6834011E-009  0.1663037E+03  0.7561462E-02  0.1181758E+00
         -2   -1    0    0    0  501 -0.00000000000E+00  0.00000000000E+00  0.94821837036E+02  0.94821837036E+02  0.00000000000E+00 0.  1.
          2   -1    0    0  501    0  0.00000000000E+00 -0.00000000000E+00 -0.73600493217E+03  0.73600493217E+03  0.00000000000E+00 0. -1.
         25    2    1    2    0    0  0.10977449305E+03  0.89942401750E+02 -0.63524702179E+03  0.66281657931E+03  0.12508782577E+03 0.  0.
         23    2    1    2    0    0 -0.10977449305E+03 -0.89942401750E+02 -0.59360733460E+01  0.16801018990E+03  0.89733561096E+02 0.  0.
          5    1    3    3  502    0  0.62379914451E+02  0.11685055365E+03 -0.49067091662E+03  0.50825262068E+03  0.41800000000E+01 0. -1.
         -5    1    3    3    0  502  0.47394578597E+02 -0.26908151903E+02 -0.14457610517E+03  0.15456395862E+03  0.41800000000E+01 0. -1.
        -11    1    4    4    0    0 -0.68411606070E+02 -0.74820874079E+02  0.35621481713E+02  0.10745790340E+03  0.00000000000E+00 0.  1.
         11    1    4    4    0    0 -0.41362886978E+02 -0.15121527671E+02 -0.41557555059E+02  0.60552286503E+02  0.00000000000E+00 0. -1.
</event>
<event>
 8    1  0.6834011E-009  0.8834182E+02  0.7561462E-02  0.1306918E+00
         -4   -1    0    0    0  501 -0.00000000000E+00  0.00000000000E+00  0.14310370611E+02  0.14310370611E+02  0.00000000000E+00 0.  1.
          4   -1    0    0  501    0  0.00000000000E+00 -0.00000000000E+00 -0.96927312968E+03  0.96927312968E+03  0.00000000000E+00 0. -1.
         25    2    1    2    0    0  0.40329741715E+02  0.23073692939E+02 -0.53354975811E+03  0.54998345309E+03  0.12509025108E+03 0.  0.
         23    2    1    2    0    0 -0.40329741715E+02 -0.23073692939E+02 -0.42141300095E+03  0.43360004720E+03  0.90891144712E+02 0.  0.
          5    1    3    3  502    0  0.42268225609E+02 -0.80696093176E+01 -0.50688766520E+03  0.50872811896E+03  0.41800000000E+01 0.  1.
         -5    1    3    3    0  502 -0.19384838935E+01  0.31143302257E+02 -0.26662092912E+02  0.41255334125E+02  0.41800000000E+01 0.  1.
        -11    1    4    4    0    0 -0.65958265848E+02  0.21701285814E+01 -0.28229486360E+03  0.28990617846E+03  0.00000000000E+00 0. -1.
         11    1    4    4    0    0  0.25628524133E+02 -0.25243821521E+02 -0.13911813735E+03  0.14369386874E+03  0.00000000000E+00 0.  1.
</event>
<event>
 8    1  0.6834011E-009  0.1504741E+03  0.7561462E-02  0.1199892E+00
          2   -1    0    0  501    0  0.00000000000E+00  0.00000000000E+00  0.17962963485E+04  0.17962963485E+04  0.00000000000E+00 0. -1.
         -2   -1    0    0    0  501 -0.00000000000E+00 -0.00000000000E+00 -0.26627029493E+02  0.26627029493E+02  0.00000000000E+00 0.  1.
         25    2    1    2    0    0  0.14839904602E+03  0.17777439403E+02  0.14074237849E+04  0.14208545762E+04  0.12509077550E+03 0.  0.
         23    2    1    2    0    0 -0.14839904602E+03 -0.17777439403E+02  0.36224553414E+03  0.40206880185E+03  0.89995445490E+02 0.  0.
          5    1    3    3  502    0  0.52721958511E+02  0.82180104517E+01  0.14160626431E+03  0.15138344393E+03  0.41800000000E+01 0. -1.
         -5    1    3    3    0  502  0.95677087508E+02  0.95594289513E+01  0.12658175206E+04  0.12694711322E+04  0.41800000000E+01 0. -1.
        -11    1    4    4    0    0 -0.91775868941E+02  0.19093861806E+00  0.11165297380E+03  0.14453108017E+03  0.00000000000E+00 0.  1.
         11    1    4    4    0    0 -0.56623177078E+02 -0.17968378021E+02  0.25059256034E+03  0.25753772168E+03  0.00000000000E+00 0. -1.
</event>
<event>
 8    1  0.6834011E-009  0.7846833E+02  0.7561462E-02  0.1333455E+00
         -4   -1    0    0    0  501 -0.00000000000E+00  0.00000000000E+00  0.66646679386E+02  0.66646679386E+02  0.00000000000E+00 0.  1.
          4   -1    0    0  501    0  0.00000000000E+00 -0.00000000000E+00 -0.19463326392E+03  0.19463326392E+03  0.00000000000E+00 0. -1.
         25    2    1    2    0    0 -0.34655449976E+02  0.21600885213E+02 -0.86738648037E+02  0.15760324193E+03  0.12509032875E+03 0.  0.
         23    2    1    2    0    0  0.34655449976E+02 -0.21600885213E+02 -0.41247936496E+02  0.10367670138E+03  0.85906156291E+02 0.  0.
          5    1    3    3  502    0 -0.62291502241E+02 -0.19891234076E+02 -0.10417396756E+02  0.66346718078E+02  0.41800000000E+01 0.  1.
         -5    1    3    3    0  502  0.27636052265E+02  0.41492119289E+02 -0.76321251282E+02  0.91256523849E+02  0.41800000000E+01 0.  1.
        -11    1    4    4    0    0  0.67578513625E+01 -0.76031036514E+01  0.26879351780E+02  0.28739785878E+02  0.00000000000E+00 0.  1.
         11    1    4    4    0    0  0.27897598614E+02 -0.13997781562E+02 -0.68127288276E+02  0.74936915502E+02  0.00000000000E+00 0. -1.
</event>
<event>
 8    1  0.6834011E-009  0.1743634E+03  0.7561462E-02  0.1173372E+00
          2   -1    0    0  501    0  0.00000000000E+00  0.00000000000E+00  0.35234704326E+03  0.35234704326E+03  0.00000000000E+00 0.  1.
         -2   -1    0    0    0  501 -0.00000000000E+00 -0.00000000000E+00 -0.92335553459E+02  0.92335553459E+02  0.00000000000E+00 0. -1.
         25    2    1    2    0    0  0.60998737344E+00 -0.14234498298E+03  0.15926009979E+03  0.24753687701E+03  0.12509300473E+03 0.  0.
         23    2    1    2    0    0 -0.60998737344E+00  0.14234498298E+03  0.10075139001E+03  0.19714571971E+03  0.91940882875E+02 0.  0.
          5    1    3    3  502    0  0.58519809419E+02 -0.10345068593E+03  0.11034417613E+03  0.16223415830E+03  0.41800000000E+01 0.  1.
         -5    1    3    3    0  502 -0.57909822045E+02 -0.38894297056E+02  0.48915923662E+02  0.85302718717E+02  0.41800000000E+01 0.  1.
        -11    1    4    4    0    0 -0.24715218254E+02  0.12213049682E+02 -0.46492910157E+01  0.27957405151E+02  0.00000000000E+00 0. -1.
         11    1    4    4    0    0  0.24105230880E+02  0.13013193330E+03  0.10540068103E+03  0.16918831455E+03  0.00000000000E+00 0.  1.
</event>
<event>
 8    1  0.6834011E-009  0.8293639E+02  0.7561462E-02  0.1320919E+00
          2   -1    0    0  501    0  0.00000000000E+00  0.00000000000E+00  0.35694877990E+02  0.35694877990E+02  0.00000000000E+00 0. -1.
         -2   -1    0    0    0  501 -0.00000000000E+00 -0.00000000000E+00 -0.38132981121E+03  0.38132981121E+03  0.00000000000E+00 0.  1.
         25    2    1    2    0    0  0.12780533626E+02  0.42455736158E+02 -0.17798658372E+03  0.22201879969E+03  0.12508913566E+03 0.  0.
         23    2    1    2    0    0 -0.12780533626E+02 -0.42455736158E+02 -0.16764834951E+03  0.19500588951E+03  0.89193588783E+02 0.  0.
          5    1    3    3  502    0  0.13484358627E+02 -0.79450759957E+01 -0.17005153007E+03  0.17082139046E+03  0.41800000000E+01 0.  1.
         -5    1    3    3    0  502 -0.70382500143E+00  0.50400812153E+02 -0.79350536469E+01  0.51197409229E+02  0.41800000000E+01 0.  1.
        -11    1    4    4    0    0 -0.42018920906E+01 -0.70061063989E+02 -0.12736472897E+03  0.14542346018E+03  0.00000000000E+00 0.  1.
         11    1    4    4    0    0 -0.85786415353E+01  0.27605327831E+02 -0.40283620533E+02  0.49582429333E+02  0.00000000000E+00 0. -1.
</event>
<event>
 8    1  0.6834011E-009  0.1047327E+03  0.7561462E-02  0.1270647E+00
         -2   -1    0    0    0  501 -0.00000000000E+00  0.00000000000E+00  0.16819296520E+02  0.16819296520E+02  0.00000000000E+00 0. -1.
          2   -1    0    0  501    0  0.00000000000E+00 -0.00000000000E+00 -0.79453166216E+03  0.79453166216E+03  0.00000000000E+00 0.  1.
         25    2    1    2    0    0  0.16385188809E+02 -0.40731243519E+02 -0.44604371597E+03  0.46532830417E+03  0.12509166837E+03 0.  0.
         23    2    1    2    0    0 -0.16385188809E+02  0.40731243519E+02 -0.33166864967E+03  0.34602265451E+03  0.88318036937E+02 0.  0.
          5    1    3    3  502    0  0.40871472172E+01  0.37004264982E+02 -0.26819483381E+03  0.27079874756E+03  0.41800000000E+01 0. -1.
         -5    1    3    3    0  502  0.12298041592E+02 -0.77735508501E+02 -0.17784888216E+03  0.19452955661E+03  0.41800000000E+01 0. -1.
        -11    1    4    4    0    0 -0.42415824021E+02 -0.27571778795E+01 -0.20930886524E+03  0.21358114436E+03  0.00000000000E+00 0.  1.
         11    1    4    4    0    0  0.26030635212E+02  0.43488421398E+02 -0.12235978443E+03  0.13244151015E+03  0.00000000000E+00 0. -1.
</event>
<event>
 8    1  0.6834011E-009  0.1813889E+03  0.7561462E-02  0.1166466E+00
          3   -1    0    0  501    0  0.00000000000E+00  0.00000000000E+00  0.31818921745E+03  0.31818921745E+03  0.00000000000E+00 0. -1.
         -3   -1    0    0    0  501 -0.00000000000E+00 -0.00000000000E+00 -0.18868066216E+03  0.18868066216E+03  0.00000000000E+00 0.  1.
         25    2    1    2    0    0 -0.15456097891E+03  0.79408771404E+02  0.20827401018E+03  0.29869709334E+03  0.12508813323E+03 0.  0.
         23    2    1    2    0    0  0.15456097891E+03 -0.79408771404E+02 -0.78765454896E+02  0.20817278627E+03  0.83289032177E+02 0.  0.
          5    1    3    3  502    0 -0.77833765538E+02 -0.45767900753E+00  0.15966608497E+03  0.17767677287E+03  0.41800000000E+01 0. -1.
         -5    1    3    3    0  502 -0.76727213374E+02  0.79866450411E+02  0.48607925208E+02  0.12102032047E+03  0.41800000000E+01 0. -1.
        -11    1    4    4    0    0  0.91192506492E+02 -0.51817820121E+02 -0.89931121136E+02  0.13816210143E+03  0.00000000000E+00 0.  1.
         11    1    4    4    0    0  0.63368472420E+02 -0.27590951283E+02  0.11165666240E+02  0.70010684842E+02  0.00000000000E+00 0. -1.
</event>
<event>
 8    1  0.6834011E-009  0.1402338E+03  0.7561462E-02  0.1213015E+00
          2   -1    0    0  501    0  0.00000000000E+00  0.00000000000E+00  0.65640946776E+03  0.65640946776E+03  0.00000000000E+00 0. -1.
         -2   -1    0    0    0  501 -0.00000000000E+00 -0.00000000000E+00 -0.49010784793E+02  0.49010784793E+02  0.00000000000E+00 0.  1.
         25    2    1    2    0    0  0.10176370259E+03  0.60309159467E+02  0.47476909832E+03  0.50502161578E+03  0.12509232511E+03 0.  0.
         23    2    1    2    0    0 -0.10176370259E+03 -0.60309159467E+02  0.13262958464E+03  0.20039863677E+03  0.92606484750E+02 0.  0.
          5    1    3    3  502    0  0.97280263046E+02  0.82192704243E+02  0.46136367751E+03  0.47863661115E+03  0.41800000000E+01 0. -1.
         -5    1    3    3    0  502  0.44834395410E+01 -0.21883544776E+02  0.13405420815E+02  0.26385004629E+02  0.41800000000E+01 0. -1.
        -11    1    4    4    0    0 -0.42000612863E+02  0.44046043297E+01  0.12852340660E+01  0.42250489308E+02  0.00000000000E+00 0.  1.
         11    1    4    4    0    0 -0.59763089725E+02 -0.64713763797E+02  0.13134435057E+03  0.15814814746E+03  0.00000000000E+00 0. -1.
</event>
<event>
 8    1  0.6834011E-009  0.1045676E+03  0.7561462E-02  0.1270974E+00
          3   -1    0    0  501    0  0.00000000000E+00  0.00000000000E+00  0.11289013804E+03  0.11289013804E+03  0.00000000000E+00 0. -1.
         -3   -1    0    0    0  501 -0.00000000000E+00 -0.00000000000E+00 -0.47167429559E+03  0.47167429559E+03  0.00000000000E+00 0.  1.
         25    2    1    2    0    0  0.33565139040E+02  0.62333066846E+02  0.55933686240E+02  0.15423508251E+03  0.12509138116E+03 0.  0.
         23    2    1    2    0    0 -0.33565139040E+02 -0.62333066846E+02 -0.41471784379E+03  0.43032935112E+03  0.90445733434E+02 0.  0.
          5    1    3    3  502    0  0.31136808706E+02 -0.48584251418E+00  0.80651249491E+02  0.86555377325E+02  0.41800000000E+01 0.  1.
         -5    1    3    3    0  502  0.24283303337E+01  0.62818909360E+02 -0.24717563251E+02  0.67679705189E+02  0.41800000000E+01 0.  1.
        -11    1    4    4    0    0 -0.17196187078E+02 -0.85016252666E+02 -0.32269044156E+03  0.33414456923E+03  0.00000000000E+00 0.  1.
         11    1    4    4    0    0 -0.16368951962E+02  0.22683185820E+02 -0.92027402231E+02  0.96184781897E+02  0.00000000000E+00 0. -1.
</event>
<event>
 8    1  0.6834011E-009  0.8144790E+02  0.7561462E-02  0.1324992E+00
         -2   -1    0    0    0  501 -0.00000000000E+00  0.00000000000E+00  0.54282756372E+02  0.54282756372E+02  0.00000000000E+00 0.  1.
          2   -1    0    0  501    0  0.00000000000E+00 -0.00000000000E+00 -0.23687978233E+03  0.23687978233E+03  0.00000000000E+00 0. -1.
         25    2    1    2    0    0 -0.55973910825E+01 -0.30767852330E+02 -0.11952760915E+03  0.17581374833E+03  0.12508250568E+03 0.  0.
         23    2    1    2    0    0  0.55973910825E+01  0.30767852330E+02 -0.63069416811E+02  0.11534879038E+03  0.91376148861E+02 0.  0.
          5    1    3    3  502    0  0.74376806821E+01 -0.52314500110E+02  0.59469241409E+00  0.53008981076E+02  0.41800000000E+01 0.  1.
         -5    1    3    3    0  502 -0.13035071765E+02  0.21546647780E+02 -0.12012230156E+03  0.12280476725E+03  0.41800000000E+01 0.  1.
        -11    1    4    4    0    0  0.25631034337E+02 -0.18213241790E+02 -0.52782862740E+02  0.61438609169E+02  0.00000000000E+00 0. -1.
         11    1    4    4    0    0 -0.20033643254E+02  0.48981094120E+02 -0.10286554071E+02  0.53910181208E+02  0.00000000000E+00 0.  1.
</event>
<event>
 8    1  0.6834011E-009  0.1395722E+03  0.7561462E-02  0.1213906E+00
          1   -1    0    0  501    0  0.00000000000E+00  0.00000000000E+00  0.17772199959E+04  0.17772199959E+04  0.00000000000E+00 0. -1.
         -1   -1    0    0    0  501 -0.00000000000E+00 -0.00000000000E+00 -0.18829695308E+02  0.18829695308E+02  0.00000000000E+00 0.  1.
         25    2    1    2    0    0  0.92990632692E+02  0.45319953398E+02  0.14513912811E+04  0.14604399300E+04  0.12508789832E+03 0.  0.
         23    2    1    2    0    0 -0.92990632692E+02 -0.45319953398E+02  0.30699901952E+03  0.33560976125E+03  0.87660469509E+02 0.  0.
          5    1    3    3  502    0  0.84707201964E+02 -0.23136078067E+02  0.62277313321E+03  0.62894708523E+03  0.41800000000E+01 0.  1.
         -5    1    3    3    0  502  0.82834307273E+01  0.68456031466E+02  0.82861814788E+03  0.83149284474E+03  0.41800000000E+01 0.  1.
        -11    1    4    4    0    0 -0.58056969272E+02 -0.60690185802E+02  0.13167717387E+03  0.15618190821E+03  0.00000000000E+00 0.  1.
         11    1    4    4    0    0 -0.34933663419E+02  0.15370232404E+02  0.17532184564E+03  0.17942785303E+03  0.00000000000E+00 0. -1.
</event>
<event>
 8    1  0.6834011E-009  0.1123953E+03  0.7561462E-02  0.1256197E+00
          2   -1    0    0  501    0  0.00000000000E+00  0.00000000000E+00  0.88186992026E+02  0.88186992026E+02  0.00000000000E+00 0. -1.
         -2   -1    0    0    0  501 -0.00000000000E+00 -0.00000000000E+00 -0.16254803531E+03  0.16254803531E+03  0.00000000000E+00 0.  1.
         25    2    1    2    0    0  0.85819408380E+01  0.34910519471E+02 -0.38438864441E+01  0.13020490395E+03  0.12508456128E+03 0.  0.
         23    2    1    2    0    0 -0.85819408380E+01 -0.34910519471E+02 -0.70517156844E+02  0.12053012339E+03  0.90898004145E+02 0.  0.
          5    1    3    3  502    0  0.62780786760E+02 -0.42755989322E-01  0.11051581296E+02  0.63883009192E+02  0.41800000000E+01 0. -1.
         -5    1    3    3    0  502 -0.54198845922E+02  0.34953275460E+02 -0.14895467740E+02  0.66321894755E+02  0.41800000000E+01 0. -1.
        -11    1    4    4    0    0 -0.45538328040E+02 -0.39137897749E+02 -0.49409293540E+02  0.77761125564E+02  0.00000000000E+00 0.  1.
         11    1    4    4    0    0  0.36956387202E+02  0.42273782775E+01 -0.21107863304E+02  0.42768997830E+02  0.00000000000E+00 0. -1.
</event>
<event>
 8    1  0.6834011E-009  0.1349838E+03  0.7561462E-02  0.1220243E+00
          1   -1    0    0  501    0  0.00000000000E+00  0.00000000000E+00  0.10644867399E+03  0.10644867399E+03  0.00000000000E+00 0. -1.
         -1   -1    0    0    0  501 -0.00000000000E+00 -0.00000000000E+00 -0.24053900829E+03  0.24053900829E+03  0.00000000000E+00 0.  1.
         25    2    1    2    0    0  0.64529163993E+02 -0.83297106544E+02 -0.12266945002E+03  0.20444540266E+03  0.12509079796E+03 0.  0.
         23    2    1    2    0    0 -0.64529163993E+02  0.83297106544E+02 -0.11420884275E+02  0.14254227962E+03  0.95317595001E+02 0.  0.
          5    1    3    3  502    0  0.45209221937E+02 -0.94856582679E+02 -0.14044754624E+03  0.17545549485E+03  0.41800000000E+01 0.  1.
         -5    1    3    3    0  502  0.19319942056E+02  0.11559476135E+02  0.17778096224E+02  0.28989907811E+02  0.41800000000E+01 0.  1.
        -11    1    4    4    0    0 -0.83850097092E+02  0.36829045934E+02 -0.10774625838E+02  0.92213393652E+02  0.00000000000E+00 0. -1.
         11    1    4    4    0    0  0.19320933099E+02  0.46468060609E+02 -0.64625843675E+00  0.50328885966E+02  0.00000000000E+00 0.  1.
</event>
<event>
 8    1  0.6834011E-009  0.2887155E+03  0.7561462E-02  0.1091022E+00
          4   -1    0    0  501    0  0.00000000000E+00  0.00000000000E+00  0.22363964611E+03  0.22363964611E+03  0.00000000000E+00 0. -1.
         -4   -1    0    0    0  501 -0.00000000000E+00 -0.00000000000E+00 -0.45688325194E+03  0.45688325194E+03  0.00000000000E+00 0.  1.
         25    2    1    2    0    0  0.20487539391E+03  0.19409677166E+03 -0.23170210752E+03  0.38598622479E+03  0.12510801455E+03 0.  0.
         23    2    1    2    0    0 -0.20487539391E+03 -0.19409677166E+03 -0.15414983222E+01  0.29453667326E+03  0.84273316538E+02 0.  0.
          5    1    3    3  502    0  0.32864680946E+02 -0.63935300263E-01 -0.77265817895E+02  0.84068842959E+02  0.41800000000E+01 0. -1.
         -5    1    3    3    0  502  0.17201071297E+03  0.19416070696E+03 -0.15443628962E+03  0.30191738183E+03  0.41800000000E+01 0. -1.
        -11    1    4    4    0    0 -0.93283858085E+02 -0.62280521821E+02 -0.37226502033E+02  0.11818017613E+03  0.00000000000E+00 0.  1.
         11    1    4    4    0    0 -0.11159153583E+03 -0.13181624983E+03  0.35685003710E+02  0.17635649713E+03  0.00000000000E+00 0. -1.
</event>
<event>
 8    1  0.6834011E-009  0.9379246E+02  0.7561462E-02  0.1293919E+00
         -2   -1    0    0    0  501 -0.00000000000E+00  0.00000000000E+00  0.18927727137E+03  0.18927727137E+03  0.00000000000E+00 0. -1.
          2   -1    0    0  501    0  0.00000000000E+00 -0.00000000000E+00 -0.82634190136E+02  0.82634190136E+02  0.00000000000E+00 0.  1.
         25    2    1    2    0    0  0.31224493264E+02  0.44113558384E+02  0.27464715894E+02  0.13900987993E+03  0.12509380914E+03 0.  0.
         23    2    1    2    0    0 -0.31224493264E+02 -0.44113558384E+02  0.79178365339E+02  0.13290158157E+03  0.92046954507E+02 0.  0.
          5    1    3    3  502    0  0.23866867797E+02  0.61126492391E+02 -0.34459399179E+02  0.74236096626E+02  0.41800000000E+01 0. -1.
         -5    1    3    3    0  502  0.73576254674E+01 -0.17012934007E+02  0.61924115073E+02  0.64773783305E+02  0.41800000000E+01 0. -1.
        -11    1    4    4    0    0 -0.61618127175E+02 -0.36033323730E+02  0.37328123651E+02  0.80551740086E+02  0.00000000000E+00 0.  1.
         11    1    4    4    0    0  0.30393633911E+02 -0.80802346543E+01  0.41850241688E+02  0.52349841487E+02  0.00000000000E+00 0. -1.
</event>
<event>
 8    1  0.6834011E-009  0.1269497E+03  0.7561462E-02  0.1232053E+00
         -1   -1    0    0    0  501 -0.00000000000E+00  0.00000000000E+00  0.18937341474E+02  0.18937341474E+02  0.00000000000E+00 0.  1.
          1   -1    0    0  501    0  0.00000000000E+00 -0.00000000000E+00 -0.97283490269E+03  0.97283490269E+03  0.00000000000E+00 0. -1.
         25    2    1    2    0    0 -0.36888982267E+02 -0.65545958718E+02 -0.41200498814E+03  0.43709514926E+03  0.12508792722E+03 0.  0.
         23    2    1    2    0    0  0.36888982267E+02  0.65545958718E+02 -0.54189257307E+03  0.55467709490E+03  0.91444240608E+02 0.  0.
          5    1    3    3  502    0  0.34432338831E+01 -0.94372938830E+02 -0.29994128564E+03  0.31448426777E+03  0.41800000000E+01 0. -1.
         -5    1    3    3    0  502 -0.40332216150E+02  0.28826980112E+02 -0.11206370251E+03  0.12261088150E+03  0.41800000000E+01 0. -1.
        -11    1    4    4    0    0  0.59050764047E+01  0.76522194162E+02 -0.46126389372E+03  0.46760549160E+03  0.00000000000E+00 0. -1.
         11    1    4    4    0    0  0.30983905862E+02 -0.10976235443E+02 -0.80628679350E+02  0.87071603297E+02  0.00000000000E+00 0.  1.
</event>
<event>
 8    1  0.6834011E-009  0.1637007E+03  0.7561462E-02  0.1184581E+00
         -4   -1    0    0    0  501 -0.00000000000E+00  0.00000000000E+00  0.22092929389E+03  0.22092929389E+03  0.00000000000E+00 0.  1.
          4   -1    0    0  501    0  0.00000000000E+00 -0.00000000000E+00 -0.13330599045E+03  0.13330599045E+03  0.00000000000E+00 0. -1.
         25    2    1    2    0    0 -0.12884137844E+03 -0.23137475188E+02  0.24520968353E+02  0.18271302553E+03  0.12508928112E+03 0.  0.
         23    2    1    2    0    0  0.12884137844E+03  0.23137475188E+02  0.63102335081E+02  0.17152225881E+03  0.91118258427E+02 0.  0.
          5    1    3    3  502    0 -0.14375242935E+03 -0.46498595201E+02  0.30160998185E+02  0.15412345218E+03  0.41800000000E+01 0. -1.
         -5    1    3    3    0  502  0.14911050911E+02  0.23361120013E+02 -0.56400298320E+01  0.28589573345E+02  0.41800000000E+01 0. -1.
        -11    1    4    4    0    0  0.82218351191E+02 -0.20104903533E+02  0.66800167679E+02  0.10782544607E+03  0.00000000000E+00 0.  1.
         11    1    4    4    0    0  0.46623027250E+02  0.43242378722E+02 -0.36978325971E+01  0.63696812741E+02  0.00000000000E+00 0. -1.
</event>
<event>
 8    1  0.6834011E-009  0.1171760E+03  0.7561462E-02  0.1247830E+00
          2   -1    0    0  501    0  0.00000000000E+00  0.00000000000E+00  0.22686990939E+03  0.22686990939E+03  0.00000000000E+00 0. -1.
         -2   -1    0    0    0  501 -0.00000000000E+00 -0.00000000000E+00 -0.65778718618E+02  0.65778718618E+02  0.00000000000E+00 0.  1.
         25    2    1    2    0    0 -0.24555886136E+01 -0.51130690528E+02  0.87045984587E+02  0.16076106126E+03  0.12508692159E+03 0.  0.
         23    2    1    2    0    0  0.24555886136E+01  0.51130690528E+02  0.74045206187E+02  0.13188756675E+03  0.96391183599E+02 0.  0.
          5    1    3    3  502    0  0.35204694011E+02  0.26737893137E+02  0.49137698473E+02  0.66228930393E+02  0.41800000000E+01 0. -1.
         -5    1    3    3    0  502 -0.37660282624E+02 -0.77868583665E+02  0.37908286114E+02  0.94532130863E+02  0.41800000000E+01 0. -1.
        -11    1    4    4    0    0  0.77732864671E+00 -0.26094293775E+02  0.18711957911E+01  0.26172844346E+02  0.00000000000E+00 0.  1.
         11    1    4    4    0    0  0.16782599668E+01  0.77224984304E+02  0.72174010396E+02  0.10571472241E+03  0.00000000000E+00 0. -1.
</event>
<event>
 8    1  0.6834011E-009  0.7911751E+02  0.7561462E-02  0.1331575E+00
         -1   -1    0    0    0  501 -0.00000000000E+00  0.00000000000E+00  0.10433348190E+03  0.10433348190E+03  0.00000000000E+00 0.  1.
          1   -1    0    0  501    0  0.00000000000E+00 -0.00000000000E+00 -0.17137491080E+03  0.17137491080E+03  0.00000000000E+00 0. -1.
         25    2    1    2    0    0  0.76503728209E+01  0.19339231307E+02  0.40525347287E+02  0.13311501680E+03  0.12507905442E+03 0.  0.
         23    2    1    2    0    0 -0.76503728209E+01 -0.19339231307E+02 -0.10756677619E+03  0.14259337589E+03  0.91267329517E+02 0.  0.
          5    1    3    3  502    0  0.23964588857E+02 -0.42659862226E+02 -0.11510645469E+02  0.50439396541E+02  0.41800000000E+01 0.  1.
         -5    1    3    3    0  502 -0.16314216036E+02  0.61999093533E+02  0.52035992755E+02  0.82675620263E+02  0.41800000000E+01 0.  1.
        -11    1    4    4    0    0  0.15346392906E+02 -0.84428001842E+00  0.11961612897E+02  0.19475748178E+02  0.00000000000E+00 0.  1.
         11    1    4    4    0    0 -0.22996765727E+02 -0.18494951288E+02 -0.11952838908E+03  0.12311762772E+03  0.00000000000E+00 0. -1.
</event>
<event>
 8    1  0.6834011E-009  0.1238310E+03  0.7561462E-02  0.1236908E+00
         -2   -1    0    0    0  501 -0.00000000000E+00  0.00000000000E+00  0.77242739800E+02  0.77242739800E+02  0.00000000000E+00 0. -1.
          2   -1    0    0  501    0  0.00000000000E+00 -0.00000000000E+00 -0.22725706686E+03  0.22725706686E+03  0.00000000000E+00 0.  1.
         25    2    1    2    0    0 -0.20408692955E+02 -0.72111867660E+02 -0.74867588525E+02  0.16392932868E+03  0.12510408780E+03 0.  0.
         23    2    1    2    0    0  0.20408692955E+02  0.72111867660E+02 -0.75146738535E+02  0.14057047798E+03  0.92175868652E+02 0.  0.
          5    1    3    3  502    0  0.32833652206E+02  0.96210234563E+01  0.85487825297E+01  0.35512911627E+02  0.41800000000E+01 0.  1.
         -5    1    3    3    0  502 -0.53242345161E+02 -0.81732891116E+02 -0.83416371054E+02  0.12841641705E+03  0.41800000000E+01 0.  1.
        -11    1    4    4    0    0  0.24387636688E+02 -0.14818996667E+02 -0.33769362520E+02  0.44212321026E+02  0.00000000000E+00 0.  1.
         11    1    4    4    0    0 -0.39789437333E+01  0.86930864327E+02 -0.41377376015E+02  0.96358156955E+02  0.00000000000E+00 0. -1.
</event>
<event>
 8    1  0.6834011E-009  0.6889556E+02  0.7561462E-02  0.1363890E+00
         -1   -1    0    0    0  501 -0.00000000000E+00  0.00000000000E+00  0.34437958407E+03  0.34437958407E+03  0.00000000000E+00 0.  1.
          1   -1    0    0  501    0  0.00000000000E+00 -0.00000000000E+00 -0.47340640859E+02  0.47340640859E+02  0.00000000000E+00 0. -1.
         25    2    1    2    0    0  0.51927127721E+02 -0.21873904604E+02  0.10839156374E+03  0.17484726660E+03  0.12509173135E+03 0.  0.
         23    2    1    2    0    0 -0.51927127721E+02  0.21873904604E+02  0.18864737948E+03  0.21687295833E+03  0.90945873884E+02 0.  0.
          5    1    3    3  502    0  0.14300064709E+02 -0.12144172706E+02  0.12916091960E+03  0.13058326207E+03  0.41800000000E+01 0.  1.
         -5    1    3    3    0  502  0.37627063012E+02 -0.97297318982E+01 -0.20769355863E+02  0.44264004527E+02  0.41800000000E+01 0.  1.
        -11    1    4    4    0    0 -0.50745232618E+02  0.37947248335E+02  0.19039454642E+03  0.20066179406E+03  0.00000000000E+00 0.  1.
         11    1    4    4    0    0 -0.11818951038E+01 -0.16073343731E+02 -0.17471669422E+01  0.16211164272E+02  0.00000000000E+00 0. -1.
</event>
<event>
 8    1  0.6834011E-009  0.1124753E+03  0.7561462E-02  0.1256053E+00
         -1   -1    0    0    0  501 -0.00000000000E+00  0.00000000000E+00  0.22704878646E+03  0.22704878646E+03  0.00000000000E+00 0.  1.
          1   -1    0    0  501    0  0.00000000000E+00 -0.00000000000E+00 -0.11288723918E+03  0.11288723918E+03  0.00000000000E+00 0. -1.
         25    2    1    2    0    0 -0.75075602540E+02  0.53033532165E+02  0.13809640374E+03  0.20776847593E+03  0.12509285045E+03 0.  0.
         23    2    1    2    0    0  0.75075602540E+02 -0.53033532165E+02 -0.23934856457E+02  0.13216754971E+03  0.91904745323E+02 0.  0.
          5    1    3    3  502    0  0.24057644096E+01 -0.53282284936E+01  0.10491779472E+03  0.10516365232E+03  0.41800000000E+01 0.  1.
         -5    1    3    3    0  502 -0.77481366950E+02  0.58361760658E+02  0.33178609023E+02  0.10260482361E+03  0.41800000000E+01 0.  1.
        -11    1    4    4    0    0  0.56828751934E+02 -0.73723916539E+02 -0.38780498500E+02  0.10083972422E+03  0.00000000000E+00 0. -1.
         11    1    4    4    0    0  0.18246850606E+02  0.20690384375E+02  0.14845642043E+02  0.31327825495E+02  0.00000000000E+00 0.  1.
</event>
<event>
 8    1  0.6834011E-009  0.1140717E+03  0.7561462E-02  0.1253210E+00
          2   -1    0    0  501    0  0.00000000000E+00  0.00000000000E+00  0.59321130473E+03  0.59321130473E+03  0.00000000000E+00 0. -1.
         -2   -1    0    0    0  501 -0.00000000000E+00 -0.00000000000E+00 -0.23568799576E+02  0.23568799576E+02  0.00000000000E+00 0.  1.
         25    2    1    2    0    0 -0.30110689261E+02  0.22380559385E+02  0.24596658038E+03  0.27848914369E+03  0.12509636862E+03 0.  0.
         23    2    1    2    0    0  0.30110689261E+02 -0.22380559385E+02  0.32367592477E+03  0.33829096061E+03  0.90923741191E+02 0.  0.
          5    1    3    3  502    0 -0.36254722875E+02 -0.47364162293E+02  0.12731458663E+03  0.14065647930E+03  0.41800000000E+01 0. -1.
         -5    1    3    3    0  502  0.61440336133E+01  0.69744721678E+02  0.11865199376E+03  0.13783266439E+03  0.41800000000E+01 0. -1.
        -11    1    4    4    0    0  0.62858115222E+02 -0.13737273809E+02  0.20304245176E+03  0.21299317491E+03  0.00000000000E+00 0. -1.
         11    1    4    4    0    0 -0.32747425960E+02 -0.86432855766E+01  0.12063347301E+03  0.12529778570E+03  0.00000000000E+00 0.  1.
</event>
<event>
 8    1  0.6834011E-009  0.1856177E+03  0.7561462E-02  0.1162474E+00
         -2   -1    0    0    0  501 -0.00000000000E+00  0.00000000000E+00  0.38717126730E+02  0.38717126730E+02  0.00000000000E+00 0.  1.
          2   -1    0    0  501    0  0.00000000000E+00 -0.00000000000E+00 -0.12124645223E+04  0.12124645223E+04  0.00000000000E+00 0. -1.
         25    2    1    2    0    0 -0.10803589622E+03  0.11487742242E+03 -0.90232284232E+03  0.92450103399E+03  0.12508826092E+03 0.  0.
         23    2    1    2    0    0  0.10803589622E+03 -0.11487742242E+03 -0.27142455328E+03  0.32668061507E+03  0.90445337569E+02 0.  0.
          5    1    3    3  502    0 -0.41135027668E+02 -0.14434608951E+02 -0.37099329076E+03  0.37356919390E+03  0.41800000000E+01 0. -1.
         -5    1    3    3    0  502 -0.66900868550E+02  0.12931203137E+03 -0.53132955156E+03  0.55093184009E+03  0.41800000000E+01 0. -1.
        -11    1    4    4    0    0  0.61257774931E+02 -0.39312216920E+01 -0.90469381866E+02  0.10932830626E+03  0.00000000000E+00 0. -1.
         11    1    4    4    0    0  0.46778121287E+02 -0.11094620073E+03 -0.18095517142E+03  0.21735230882E+03  0.00000000000E+00 0.  1.
</event>
<event>
 8    1  0.6834011E-009  0.1856927E+03  0.7561462E-02  0.1162405E+00
          1   -1    0    0  501    0  0.00000000000E+00  0.00000000000E+00  0.13584583932E+04  0.13584583932E+04  0.00000000000E+00 0. -1.
         -1   -1    0    0    0  501 -0.00000000000E+00 -0.00000000000E+00 -0.28768377698E+02  0.28768377698E+02  0.00000000000E+00 0.  1.
         25    2    1    2    0    0 -0.10078196325E+03 -0.12775016093E+03  0.60863721892E+03  0.64231175152E+03  0.12509202274E+03 0.  0.
         23    2    1    2    0    0  0.10078196325E+03  0.12775016093E+03  0.72105279662E+03  0.74491501941E+03  0.92217909855E+02 0.  0.
          5    1    3    3  502    0 -0.18712674078E+02 -0.12106733614E+03  0.37836198914E+03  0.39772192707E+03  0.41800000000E+01 0.  1.
         -5    1    3    3    0  502 -0.82069289177E+02 -0.66828247957E+01  0.23027522978E+03  0.24458982445E+03  0.41800000000E+01 0.  1.
        -11    1    4    4    0    0  0.36856667962E+02  0.22386492363E+02  0.69363710493E+02  0.81675537017E+02  0.00000000000E+00 0.  1.
         11    1    4    4    0    0  0.63925295293E+02  0.10536366857E+03  0.65168908613E+03  0.66323948240E+03  0.00000000000E+00 0. -1.
</event>
<event>
 8    1  0.6834011E-009  0.1828726E+03  0.7561462E-02  0.1165052E+00
         -1   -1    0    0    0  501 -0.00000000000E+00  0.00000000000E+00  0.22925078255E+03  0.22925078255E+03  0.00000000000E+00 0. -1.
          1   -1    0    0  501    0  0.00000000000E+00 -0.00000000000E+00 -0.16719342054E+03  0.16719342054E+03  0.00000000000E+00 0.  1.
         25    2    1    2    0    0  0.99325675374E+02 -0.12969580896E+03  0.21779577638E+02  0.20690143713E+03  0.12508901644E+03 0.  0.
         23    2    1    2    0    0 -0.99325675374E+02  0.12969580896E+03  0.40277784381E+02  0.18954276596E+03  0.87278677584E+02 0.  0.
          5    1    3    3  502    0  0.22486712692E+02 -0.12239900758E+03  0.32943032038E+02  0.12880172772E+03  0.41800000000E+01 0.  1.
         -5    1    3    3    0  502  0.76838962682E+02 -0.72968013859E+01 -0.11163454400E+02  0.78099709415E+02  0.41800000000E+01 0.  1.
        -11    1    4    4    0    0 -0.72901207587E+02  0.10451817752E+03  0.67317584963E+02  0.14411902285E+03  0.00000000000E+00 0. -1.
         11    1    4    4    0    0 -0.26424467787E+02  0.25177631439E+02 -0.27039800582E+02  0.45423743112E+02  0.00000000000E+00 0.  1.
</event>
<event>
 8    1  0.6834011E-009  0.1802119E+03  0.7561462E-02  0.1167598E+00
          2   -1    0    0  501    0  0.00000000000E+00  0.00000000000E+00  0.17774429517E+03  0.17774429517E+03  0.00000000000E+00 0. -1.
         -2   -1    0    0    0  501 -0.00000000000E+00 -0.00000000000E+00 -0.21751659072E+03  0.21751659072E+03  0.00000000000E+00 0.  1.
         25    2    1    2    0    0 -0.90477375100E+02  0.13567218056E+03 -0.35648540791E+02  0.20859417659E+03  0.12509043153E+03 0.  0.
         23    2    1    2    0    0  0.90477375100E+02 -0.13567218056E+03 -0.41237547523E+01  0.18666670930E+03  0.90743369037E+02 0.  0.
          5    1    3    3  502    0 -0.25683955675E+02  0.12850458651E+03  0.57832173124E+01  0.13124028473E+03  0.41800000000E+01 0.  1.
         -5    1    3    3    0  502 -0.64793419425E+02  0.71675940511E+01 -0.41431758103E+02  0.77353891853E+02  0.41800000000E+01 0.  1.
        -11    1    4    4    0    0  0.58638678509E+02 -0.72491680699E+02 -0.46506310046E+02  0.10419393102E+03  0.00000000000E+00 0.  1.
         11    1    4    4    0    0  0.31838696591E+02 -0.63180499866E+02  0.42382555294E+02  0.82472778280E+02  0.00000000000E+00 0. -1.
</event>
<event>
 8    1  0.6834011E-009  0.1006456E+03  0.7561462E-02  0.1278944E+00
          2   -1    0    0  501    0  0.00000000000E+00  0.00000000000E+00  0.77559889219E+03  0.77559889219E+03  0.00000000000E+00 0. -1.
         -2   -1    0    0    0  501 -0.00000000000E+00 -0.00000000000E+00 -0.27085389709E+02  0.27085389709E+02  0.00000000000E+00 0.  1.
         25    2    1    2    0    0 -0.61091392162E+02  0.89908857648E+01  0.61299181195E+03  0.62866465155E+03  0.12508912170E+03 0.  0.
         23    2    1    2    0    0  0.61091392162E+02 -0.89908857648E+01  0.13552169053E+03  0.17401963035E+03  0.90020602749E+02 0.  0.
          5    1    3    3  502    0  0.93714908251E+01 -0.25162610235E+02  0.30221000046E+02  0.40641887726E+02  0.41800000000E+01 0.  1.
         -5    1    3    3    0  502 -0.70462882988E+02  0.34153496000E+02  0.58277081190E+03  0.58802276382E+03  0.41800000000E+01 0.  1.
        -11    1    4    4    0    0  0.63557972622E+02 -0.32966759179E+02  0.55918884613E+02  0.90847921005E+02  0.00000000000E+00 0.  1.
         11    1    4    4    0    0 -0.24665804593E+01  0.23975873414E+02  0.79602805919E+02  0.83171709345E+02  0.00000000000E+00 0. -1.
</event>
<event>
 8    1  0.6834011E-009  0.1187728E+03  0.7561462E-02  0.1245135E+00
         -2   -1    0    0    0  501 -0.00000000000E+00  0.00000000000E+00  0.20626752736E+02  0.20626752736E+02  0.00000000000E+00 0.  1.
          2   -1    0    0  501    0  0.00000000000E+00 -0.00000000000E+00 -0.80552335949E+03  0.80552335949E+03  0.00000000000E+00 0. -1.
         25    2    1    2    0    0  0.12821984105E+00  0.60065537113E+02 -0.48680425414E+03  0.50619618230E+03  0.12509319699E+03 0.  0.
         23    2    1    2    0    0 -0.12821984105E+00 -0.60065537113E+02 -0.29809235261E+03  0.31995392993E+03  0.99516739308E+02 0.  0.
          5    1    3    3  502    0  0.35330323146E+02  0.86847399962E+02 -0.31001435122E+03  0.32390905047E+03  0.41800000000E+01 0. -1.
         -5    1    3    3    0  502 -0.35202103304E+02 -0.26781862848E+02 -0.17678990292E+03  0.18228713183E+03  0.41800000000E+01 0. -1.
        -11    1    4    4    0    0  0.39218916590E+02 -0.24618426219E+02 -0.58657679183E+02  0.74732279874E+02  0.00000000000E+00 0.  1.
         11    1    4    4    0    0 -0.39347136431E+02 -0.35447110894E+02 -0.23943467343E+03  0.24522165005E+03  0.00000000000E+00 0. -1.
</event>
<event>
 8    1  0.6834011E-009  0.1757440E+03  0.7561462E-02  0.1171987E+00
          2   -1    0    0  501    0  0.00000000000E+00  0.00000000000E+00  0.12678643361E+04  0.12678643361E+04  0.00000000000E+00 0. -1.
         -2   -1    0    0    0  501 -0.00000000000E+00 -0.00000000000E+00 -0.42022069801E+02  0.42022069801E+02  0.00000000000E+00 0.  1.
         25    2    1    2    0    0 -0.68209204060E+02  0.14749342554E+03  0.28380999267E+03  0.35014780083E+03  0.12509422207E+03 0.  0.
         23    2    1    2    0    0  0.68209204060E+02 -0.14749342554E+03  0.94203227359E+03  0.95973860502E+03  0.85244233783E+02 0.  0.
          5    1    3    3  502    0 -0.61036175742E+02  0.83200466652E+02  0.26221477568E+03  0.28181872434E+03  0.41800000000E+01 0. -1.
         -5    1    3    3    0  502 -0.71730283184E+01  0.64292958892E+02  0.21595216983E+02  0.68329076497E+02  0.41800000000E+01 0. -1.
        -11    1    4    4    0    0 -0.17608021711E+02 -0.52488249769E+02  0.30018012912E+03  0.30524280288E+03  0.00000000000E+00 0. -1.
         11    1    4    4    0    0  0.85817225771E+02 -0.95005175775E+02  0.64185214447E+03  0.65449580214E+03  0.00000000000E+00 0.  1.
</event>
<event>
 8    1  0.6834011E-009  0.6838407E+02  0.7561462E-02  0.1365676E+00
         -1   -1    0    0    0  501 -0.00000000000E+00  0.00000000000E+00  0.19417107537E+02  0.19417107537E+02  0.00000000000E+00 0.  1.
          1   -1    0    0  501    0  0.00000000000E+00 -0.00000000000E+00 -0.71356868943E+03  0.71356868943E+03  0.00000000000E+00 0. -1.
         25    2    1    2    0    0 -0.14892259639E+02  0.32340046677E+02 -0.44729206759E+03  0.46581620897E+03  0.12508752453E+03 0.  0.
         23    2    1    2    0    0  0.14892259639E+02 -0.32340046677E+02 -0.24685951431E+03  0.26716958800E+03  0.95772182455E+02 0.  0.
          5    1    3    3  502    0 -0.40760178916E+02  0.34438755485E+02 -0.43220575618E+03  0.43550741456E+03  0.41800000000E+01 0. -1.
         -5    1    3    3    0  502  0.25867919277E+02 -0.20987088073E+01 -0.15086311409E+02  0.30308794406E+02  0.41800000000E+01 0. -1.
        -11    1    4    4    0    0  0.22086002459E+02 -0.40467547922E+02 -0.25126228602E+03  0.25545674842E+03  0.00000000000E+00 0. -1.
         11    1    4    4    0    0 -0.71937428196E+01  0.81275012450E+01  0.44027717111E+01  0.11712839578E+02  0.00000000000E+00 0.  1.
</event>
<event>
 8    1  0.6834011E-009  0.8546760E+02  0.7561462E-02  0.1314214E+00
          2   -1    0    0  501    0  0.00000000000E+00  0.00000000000E+00  0.89878282476E+02  0.89878282476E+02  0.00000000000E+00 0. -1.
         -2   -1    0    0    0  501 -0.00000000000E+00 -0.00000000000E+00 -0.18056112193E+03  0.18056112193E+03  0.00000000000E+00 0.  1.
         25    2    1    2    0    0  0.15486900109E+02 -0.47137361308E+02 -0.28099339698E+01  0.13460234878E+03  0.12509245246E+03 0.  0.
         23    2    1    2    0    0 -0.15486900109E+02  0.47137361308E+02 -0.87872905484E+02  0.13583705562E+03  0.90930100935E+02 0.  0.
          5    1    3    3  502    0 -0.20278765938E+02 -0.28425820597E+02  0.54209117736E+02  0.64616998308E+02  0.41800000000E+01 0. -1.
         -5    1    3    3    0  502  0.35765666047E+02 -0.18711540711E+02 -0.57019051706E+02  0.69985350475E+02  0.41800000000E+01 0. -1.
        -11    1    4    4    0    0 -0.33634414527E+02 -0.10119360488E+02 -0.82141530186E+01  0.36071423691E+02  0.00000000000E+00 0. -1.
         11    1    4    4    0    0  0.18147514419E+02  0.57256721796E+02 -0.79658752465E+02  0.99765631932E+02  0.00000000000E+00 0.  1.
</event>
<event>
 8    1  0.6834011E-009  0.6372681E+02  0.7561462E-02  0.1382826E+00
         -1   -1    0    0    0  501 -0.00000000000E+00  0.00000000000E+00  0.18272446765E+03  0.18272446765E+03  0.00000000000E+00 0.  1.
          1   -1    0    0  501    0  0.00000000000E+00 -0.00000000000E+00 -0.74428620126E+02  0.74428620126E+02  0.00000000000E+00 0. -1.
         25    2    1    2    0    0 -0.38240208349E+02  0.15449594932E+02  0.58606703649E+02  0.14417278215E+03  0.12510012742E+03 0.  0.
         23    2    1    2    0    0  0.38240208349E+02 -0.15449594932E+02  0.49689143875E+02  0.11298030563E+03  0.92706714552E+02 0.  0.
          5    1    3    3  502    0 -0.31114029998E+02 -0.22932795096E+01 -0.35851060282E+02  0.47708625185E+02  0.41800000000E+01 0. -1.
         -5    1    3    3    0  502 -0.71261783511E+01  0.17742874442E+02  0.94457763931E+02  0.96464156961E+02  0.41800000000E+01 0. -1.
        -11    1    4    4    0    0  0.22413509226E+02 -0.40781469509E+02  0.64584248487E+02  0.79602881881E+02  0.00000000000E+00 0.  1.
         11    1    4    4    0    0  0.15826699123E+02  0.25331874577E+02 -0.14895104611E+02  0.33377423749E+02  0.00000000000E+00 0. -1.
</event>
<event>
 8    1  0.6834011E-009  0.9744176E+02  0.7561462E-02  0.1285769E+00
          1   -1    0    0  501    0  0.00000000000E+00  0.00000000000E+00  0.99808128501E+02  0.99808128501E+02  0.00000000000E+00 0. -1.
         -1   -1    0    0    0  501 -0.00000000000E+00 -0.00000000000E+00 -0.13117986909E+03  0.13117986909E+03  0.00000000000E+00 0.  1.
         25    2    1    2    0    0  0.86698057862E+01  0.37384346049E+02 -0.19023849973E+02  0.13221985471E+03  0.12508968083E+03 0.  0.
         23    2    1    2    0    0 -0.86698057862E+01 -0.37384346049E+02 -0.12347890618E+02  0.98768142887E+02  0.90166073358E+02 0.  0.
          5    1    3    3  502    0  0.56121023087E+02  0.11495750900E+01  0.21156694355E+02  0.60132926681E+02  0.41800000000E+01 0.  1.
         -5    1    3    3    0  502 -0.47451217300E+02  0.36234770959E+02 -0.40180544328E+02  0.72086928026E+02  0.41800000000E+01 0.  1.
        -11    1    4    4    0    0  0.34530286063E+01  0.19897286990E+02 -0.31280382861E+02  0.37232885841E+02  0.00000000000E+00 0.  1.
         11    1    4    4    0    0 -0.12122834392E+02 -0.57281633038E+02  0.18932492243E+02  0.61535257046E+02  0.00000000000E+00 0. -1.
</event>
<event>
 8    1  0.6834011E-009  0.1459530E+03  0.7561462E-02  0.1205536E+00
          2   -1    0    0  501    0  0.00000000000E+00  0.00000000000E+00  0.73920384636E+03  0.73920384636E+03  0.00000000000E+00 0.  1.
         -2   -1    0    0    0  501 -0.00000000000E+00 -0.00000000000E+00 -0.44715968226E+02  0.44715968226E+02  0.00000000000E+00 0. -1.
         25    2    1    2    0    0 -0.58794216701E+02 -0.12150953101E+03  0.48439552474E+03  0.51817478349E+03  0.12507899829E+03 0.  0.
         23    2    1    2    0    0  0.58794216701E+02  0.12150953101E+03  0.21009235340E+03  0.26574503110E+03  0.90886184615E+02 0.  0.
          5    1    3    3  502    0 -0.72854249184E+01 -0.22286402041E+02  0.30639683368E+01  0.24012943055E+02  0.41800000000E+01 0.  1.
         -5    1    3    3    0  502 -0.51508791783E+02 -0.99223128970E+02  0.48133155640E+03  0.49416184043E+03  0.41800000000E+01 0.  1.
        -11    1    4    4    0    0 -0.19670964841E+02  0.22598193510E+02  0.75384139178E+02  0.81119625537E+02  0.00000000000E+00 0.  1.
         11    1    4    4    0    0  0.78465181542E+02  0.98911337501E+02  0.13470821422E+03  0.18462540556E+03  0.00000000000E+00 0. -1.
</event>
<event>
 8    1  0.6834011E-009  0.1478540E+03  0.7561462E-02  0.1203135E+00
         -2   -1    0    0    0  501 -0.00000000000E+00  0.00000000000E+00  0.28215332601E+02  0.28215332601E+02  0.00000000000E+00 0. -1.
          2   -1    0    0  501    0  0.00000000000E+00 -0.00000000000E+00 -0.96496431907E+03  0.96496431907E+03  0.00000000000E+00 0.  1.
         25    2    1    2    0    0  0.11461293744E+03 -0.44764961055E+01 -0.37349818879E+03  0.41024898257E+03  0.12508863347E+03 0.  0.
         23    2    1    2    0    0 -0.11461293744E+03  0.44764961055E+01 -0.56325079768E+03  0.58293066910E+03  0.96956379089E+02 0.  0.
          5    1    3    3  502    0  0.11333257920E+03  0.33593767211E+02 -0.19819467035E+03  0.23080601045E+03  0.41800000000E+01 0. -1.
         -5    1    3    3    0  502  0.12803582412E+01 -0.38070263317E+02 -0.17530351844E+03  0.17944297212E+03  0.41800000000E+01 0. -1.
        -11    1    4    4    0    0  0.88832169760E+01  0.12517668476E+02 -0.17295849917E+02  0.23124661992E+02  0.00000000000E+00 0. -1.
         11    1    4    4    0    0 -0.12349615442E+03 -0.80411723702E+01 -0.54595494776E+03  0.55980600711E+03  0.00000000000E+00 0.  1.
</event>
<event>
 8    1  0.6834011E-009  0.6943884E+02  0.7561462E-02  0.1362012E+00
          2   -1    0    0  501    0  0.00000000000E+00  0.00000000000E+00  0.52132864679E+03  0.52132864679E+03  0.00000000000E+00 0. -1.
         -2   -1    0    0    0  501 -0.00000000000E+00 -0.00000000000E+00 -0.31811488940E+02  0.31811488940E+02  0.00000000000E+00 0.  1.
         25    2    1    2    0    0  0.15065585844E+02  0.67518614017E+02  0.27719473831E+03  0.31188174507E+03  0.12509022681E+03 0.  0.
         23    2    1    2    0    0 -0.15065585844E+02 -0.67518614017E+02  0.21232241954E+03  0.24125839066E+03  0.91318487233E+02 0.  0.
          5    1    3    3  502    0  0.75701966935E+01  0.36927976461E+02  0.54859464092E+01  0.38321682263E+02  0.41800000000E+01 0. -1.
         -5    1    3    3    0  502  0.74953891503E+01  0.30590637556E+02  0.27170879191E+03  0.27356006281E+03  0.41800000000E+01 0. -1.
        -11    1    4    4    0    0 -0.50536568388E+01 -0.22687147245E+02 -0.78494576205E+00  0.23256445073E+02  0.00000000000E+00 0.  1.
         11    1    4    4    0    0 -0.10011929005E+02 -0.44831466772E+02  0.21310736530E+03  0.21800194559E+03  0.00000000000E+00 0. -1.
</event>
<event>
 8    1  0.6834011E-009  0.1210866E+03  0.7561462E-02  0.1241315E+00
          1   -1    0    0  501    0  0.00000000000E+00  0.00000000000E+00  0.41971471058E+03  0.41971471058E+03  0.00000000000E+00 0. -1.
         -1   -1    0    0    0  501 -0.00000000000E+00 -0.00000000000E+00 -0.37424446108E+02  0.37424446108E+02  0.00000000000E+00 0.  1.
         25    2    1    2    0    0 -0.43043146115E+01  0.59256225536E+02  0.17956915385E+03  0.22676573615E+03  0.12509112954E+03 0.  0.
         23    2    1    2    0    0  0.43043146115E+01 -0.59256225536E+02  0.20272111063E+03  0.23037342054E+03  0.91903410203E+02 0.  0.
          5    1    3    3  502    0  0.53188381748E+02  0.52537024127E+02  0.13186526067E+03  0.15164122866E+03  0.41800000000E+01 0.  1.
         -5    1    3    3    0  502 -0.57492696359E+02  0.67192014096E+01  0.47703893176E+02  0.75124507495E+02  0.41800000000E+01 0.  1.
        -11    1    4    4    0    0 -0.39621658900E+02 -0.57544118928E+01  0.68111888497E+02  0.79007711427E+02  0.00000000000E+00 0.  1.
         11    1    4    4    0    0  0.43925973511E+02 -0.53501813644E+02  0.13460922213E+03  0.15136570911E+03  0.00000000000E+00 0. -1.
</event>
<event>
 8    1  0.6834011E-009  0.1063459E+03  0.7561462E-02  0.1267490E+00
         -3   -1    0    0    0  501 -0.00000000000E+00  0.00000000000E+00  0.25249395729E+02  0.25249395729E+02  0.00000000000E+00 0.  1.
          3   -1    0    0  501    0  0.00000000000E+00 -0.00000000000E+00 -0.57551271570E+03  0.57551271570E+03  0.00000000000E+00 0. -1.
         25    2    1    2    0    0  0.11771997240E+02  0.47721141766E+02 -0.35757468043E+03  0.38199776360E+03  0.12508697783E+03 0.  0.
         23    2    1    2    0    0 -0.11771997240E+02 -0.47721141766E+02 -0.19268863954E+03  0.21876434783E+03  0.91175878288E+02 0.  0.
          5    1    3    3  502    0  0.65584278130E+02  0.42298530424E+02 -0.24240592561E+03  0.25469308665E+03  0.41800000000E+01 0.  1.
         -5    1    3    3    0  502 -0.53812280890E+02  0.54226113420E+01 -0.11516875482E+03  0.12730467695E+03  0.41800000000E+01 0.  1.
        -11    1    4    4    0    0 -0.34146862061E+02 -0.85816552435E+01 -0.20436380978E+02  0.40709933220E+02  0.00000000000E+00 0. -1.
         11    1    4    4    0    0  0.22374864821E+02 -0.39139486522E+02 -0.17225225856E+03  0.17805441461E+03  0.00000000000E+00 0.  1.
</event>
<event>
 8    1  0.6834011E-009  0.1429313E+03  0.7561462E-02  0.1209438E+00
          1   -1    0    0  501    0  0.00000000000E+00  0.00000000000E+00  0.36520131642E+03  0.36520131642E+03  0.00000000000E+00 0. -1.
         -1   -1    0    0    0  501 -0.00000000000E+00 -0.00000000000E+00 -0.82468690297E+02  0.82468690297E+02  0.00000000000E+00 0.  1.
         25    2    1    2    0    0 -0.20886004303E+02  0.11453491285E+03  0.23810307356E+03  0.29307837806E+03  0.12508953038E+03 0.  0.
         23    2    1    2    0    0  0.20886004303E+02 -0.11453491285E+03  0.44629552565E+02  0.15459162866E+03  0.91390936377E+02 0.  0.
          5    1    3    3  502    0  0.78512694910E+01 -0.99611965529E+01 -0.81323070035E+01  0.15635686316E+02  0.41800000000E+01 0. -1.
         -5    1    3    3    0  502 -0.28737273794E+02  0.12449610940E+03  0.24623538056E+03  0.27744269174E+03  0.41800000000E+01 0. -1.
        -11    1    4    4    0    0  0.39697865236E+02 -0.11890550459E+03  0.26552496620E+02  0.12813849774E+03  0.00000000000E+00 0.  1.
         11    1    4    4    0    0 -0.18811860933E+02  0.43705917375E+01  0.18077055946E+02  0.26453130922E+02  0.00000000000E+00 0. -1.
</event>
<event>
 8    1  0.6834011E-009  0.1296951E+03  0.7561462E-02  0.1227909E+00
         -1   -1    0    0    0  501 -0.00000000000E+00  0.00000000000E+00  0.51486821596E+02  0.51486821596E+02  0.00000000000E+00 0.  1.
          1   -1    0    0  501    0  0.00000000000E+00 -0.00000000000E+00 -0.51946558845E+03  0.51946558845E+03  0.00000000000E+00 0. -1.
         25    2    1    2    0    0 -0.50756458129E+02  0.58284606113E+02 -0.85552663404E+02  0.17011833661E+03  0.12509067464E+03 0.  0.
         23    2    1    2    0    0  0.50756458129E+02 -0.58284606113E+02 -0.38242610345E+03  0.40083407344E+03  0.91896226691E+02 0.  0.
          5    1    3    3  502    0 -0.68188003849E+02 -0.10050128422E+02 -0.68877081974E+02  0.97530168520E+02  0.41800000000E+01 0. -1.
         -5    1    3    3    0  502  0.17431545720E+02  0.68334734534E+02 -0.16675581431E+02  0.72588168086E+02  0.41800000000E+01 0. -1.
        -11    1    4    4    0    0  0.77298134560E+02 -0.37140927914E+02 -0.25903145008E+03  0.27285846562E+03  0.00000000000E+00 0.  1.
         11    1    4    4    0    0 -0.26541676432E+02 -0.21143678198E+02 -0.12339465337E+03  0.12797560782E+03  0.00000000000E+00 0. -1.
</event>
<event>
 8    1  0.6834011E-009  0.1296461E+03  0.7561462E-02  0.1227982E+00
          4   -1    0    0  501    0  0.00000000000E+00  0.00000000000E+00  0.70631366770E+03  0.70631366770E+03  0.00000000000E+00 0.  1.
         -4   -1    0    0    0  501 -0.00000000000E+00 -0.00000000000E+00 -0.25252345009E+02  0.25252345009E+02  0.00000000000E+00 0. -1.
         25    2    1    2    0    0  0.72562965617E+02  0.20460431705E+02  0.42407868484E+03  0.44852371932E+03  0.12508710010E+03 0.  0.
         23    2    1    2    0    0 -0.72562965617E+02 -0.20460431705E+02  0.25698263785E+03  0.28304229339E+03  0.91590667899E+02 0.  0.
          5    1    3    3  502    0 -0.28774176552E+02  0.29297010623E+02  0.85016481648E+02  0.94506839010E+02  0.41800000000E+01 0.  1.
         -5    1    3    3    0  502  0.10133714217E+03 -0.88365789184E+01  0.33906220319E+03  0.35401688031E+03  0.41800000000E+01 0.  1.
        -11    1    4    4    0    0 -0.92353228955E+02 -0.25455671991E+02  0.23044127094E+03  0.24956019211E+03  0.00000000000E+00 0.  1.
         11    1    4    4    0    0  0.19790263337E+02  0.49952402858E+01  0.26541366911E+02  0.33482101278E+02  0.00000000000E+00 0. -1.
</event>
<event>
 8    1  0.6834011E-009  0.1018788E+03  0.7561462E-02  0.1276394E+00
         -1   -1    0    0    0  501 -0.00000000000E+00  0.00000000000E+00  0.51826044253E+02  0.51826044253E+02  0.00000000000E+00 0.  1.
          1   -1    0    0  501    0  0.00000000000E+00 -0.00000000000E+00 -0.32238852533E+03  0.32238852533E+03  0.00000000000E+00 0. -1.
         25    2    1    2    0    0 -0.56772327995E+02  0.14263457835E+02 -0.20376295070E+03  0.24615763030E+03  0.12509074875E+03 0.  0.
         23    2    1    2    0    0  0.56772327995E+02 -0.14263457835E+02 -0.66799530379E+02  0.12805693928E+03  0.92248896927E+02 0.  0.
          5    1    3    3  502    0 -0.47942047056E+02 -0.29785994034E+02 -0.19108534875E+03  0.19929056230E+03  0.41800000000E+01 0.  1.
         -5    1    3    3    0  502 -0.88302809392E+01  0.44049451869E+02 -0.12677601950E+02  0.46867067997E+02  0.41800000000E+01 0.  1.
        -11    1    4    4    0    0 -0.10973866509E+02 -0.30468390961E+02 -0.12521370334E+01  0.32408585916E+02  0.00000000000E+00 0.  1.
         11    1    4    4    0    0  0.67746194505E+02  0.16204933126E+02 -0.65547393345E+02  0.95648353367E+02  0.00000000000E+00 0. -1.
</event>
<event>
 8    1  0.6834011E-009  0.2564923E+03  0.7561462E-02  0.1109269E+00
         -2   -1    0    0    0  501 -0.00000000000E+00  0.00000000000E+00  0.23083209617E+03  0.23083209617E+03  0.00000000000E+00 0.  1.
          2   -1    0    0  501    0  0.00000000000E+00 -0.00000000000E+00 -0.35163633432E+03  0.35163633432E+03  0.00000000000E+00 0. -1.
         25    2    1    2    0    0 -0.98168621904E+02  0.22110001719E+03 -0.16746411784E+03  0.31970946865E+03  0.12509043789E+03 0.  0.
         23    2    1    2    0    0  0.98168621904E+02 -0.22110001719E+03  0.46659879691E+02  0.26275896184E+03  0.91339102932E+02 0.  0.
          5    1    3    3  502    0  0.23311322610E+02  0.77472157641E+02 -0.28810623962E+02  0.85981843575E+02  0.41800000000E+01 0.  1.
         -5    1    3    3    0  502 -0.12147994451E+03  0.14362785955E+03 -0.13865349388E+03  0.23372762507E+03  0.41800000000E+01 0.  1.
        -11    1    4    4    0    0  0.79421404457E+02 -0.20199419297E+03  0.69151424909E+02  0.22779669236E+03  0.00000000000E+00 0. -1.
         11    1    4    4    0    0  0.18747217447E+02 -0.19105824217E+02 -0.22491545218E+02  0.34962269481E+02  0.00000000000E+00 0.  1.
</event>
<event>
 8    1  0.6834011E-009  0.1092807E+03  0.7561462E-02  0.1261908E+00
          2   -1    0    0  501    0  0.00000000000E+00  0.00000000000E+00  0.27299188400E+03  0.27299188400E+03  0.00000000000E+00 0. -1.
         -2   -1    0    0    0  501 -0.00000000000E+00 -0.00000000000E+00 -0.47031914216E+02  0.47031914216E+02  0.00000000000E+00 0.  1.
         25    2    1    2    0    0 -0.31900627462E+02 -0.22146346432E+02  0.17393417153E+03  0.21773576331E+03  0.12509059079E+03 0.  0.
         23    2    1    2    0    0  0.31900627462E+02  0.22146346432E+02  0.52025798251E+02  0.10228803491E+03  0.79044593167E+02 0.  0.
          5    1    3    3  502    0  0.45618040982E+02  0.99445344503E+01  0.66439803357E+02  0.81311864439E+02  0.41800000000E+01 0.  1.
         -5    1    3    3    0  502 -0.77518668444E+02 -0.32090880882E+02  0.10749436818E+03  0.13642389887E+03  0.41800000000E+01 0.  1.
        -11    1    4    4    0    0 -0.24811762815E+02  0.18318221213E+02  0.22939204090E+02  0.38436803804E+02  0.00000000000E+00 0.  1.
         11    1    4    4    0    0  0.56712390277E+02  0.38281252190E+01  0.29086594161E+02  0.63851231104E+02  0.00000000000E+00 0. -1.
</event>
<event>
 8    1  0.6834011E-009  0.1796006E+03  0.7561462E-02  0.1168190E+00
          2   -1    0    0  501    0  0.00000000000E+00  0.00000000000E+00  0.30969096904E+03  0.30969096904E+03  0.00000000000E+00 0. -1.
         -2   -1    0    0    0  501 -0.00000000000E+00 -0.00000000000E+00 -0.18785675570E+03  0.18785675570E+03  0.00000000000E+00 0.  1.
         25    2    1    2    0    0 -0.49111340489E+02  0.14876590095E+03  0.21508917056E+03  0.29403294905E+03  0.12509519091E+03 0.  0.
         23    2    1    2    0    0  0.49111340489E+02 -0.14876590095E+03 -0.93254957224E+02  0.20351477569E+03  0.90435390344E+02 0.  0.
          5    1    3    3  502    0 -0.28325255033E+02 -0.89280131353E+01  0.48655576438E+01  0.30383803949E+02  0.41800000000E+01 0.  1.
         -5    1    3    3    0  502 -0.20786085456E+02  0.15769391408E+03  0.21022361292E+03  0.26364914510E+03  0.41800000000E+01 0.  1.
        -11    1    4    4    0    0  0.65509101872E+02 -0.12635757320E+03 -0.10119211796E+03  0.17463540154E+03  0.00000000000E+00 0.  1.
         11    1    4    4    0    0 -0.16397761383E+02 -0.22408327747E+02  0.79371607340E+01  0.28879374150E+02  0.00000000000E+00 0. -1.
</event>
<event>
 8    1  0.6834011E-009  0.1022680E+03  0.7561462E-02  0.1275598E+00
         -4   -1    0    0    0  501 -0.00000000000E+00  0.00000000000E+00  0.55115500822E+02  0.55115500822E+02  0.00000000000E+00 0.  1.
          4   -1    0    0  501    0  0.00000000000E+00 -0.00000000000E+00 -0.23833976165E+03  0.23833976165E+03  0.00000000000E+00 0. -1.
         25    2    1    2    0    0 -0.28644019795E+01 -0.34862240529E+02 -0.13621746868E+03  0.18821937464E+03  0.12509098131E+03 0.  0.
         23    2    1    2    0    0  0.28644019795E+01  0.34862240529E+02 -0.47006792147E+02  0.10523588783E+03  0.87414947036E+02 0.  0.
          5    1    3    3  502    0 -0.35107937510E+02 -0.65942438002E+02 -0.11793290832E+03  0.13966608633E+03  0.41800000000E+01 0. -1.
         -5    1    3    3    0  502  0.32243535530E+02  0.31080197473E+02 -0.18284560359E+02  0.48553288312E+02  0.41800000000E+01 0. -1.
        -11    1    4    4    0    0 -0.10127008130E+02 -0.23159050476E+02 -0.37199644276E+02  0.44974564443E+02  0.00000000000E+00 0. -1.
         11    1    4    4    0    0  0.12991410109E+02  0.58021291006E+02 -0.98071478708E+01  0.60261323384E+02  0.00000000000E+00 0.  1.
</event>
<event>
 8    1  0.6834011E-009  0.8359610E+02  0.7561462E-02  0.1319145E+00
         -3   -1    0    0    0  501 -0.00000000000E+00  0.00000000000E+00  0.41562550934E+03  0.41562550934E+03  0.00000000000E+00 0.  1.
          3   -1    0    0  501    0  0.00000000000E+00 -0.00000000000E+00 -0.33551849697E+02  0.33551849697E+02  0.00000000000E+00 0. -1.
         25    2    1    2    0    0  0.34071100725E+02  0.12008426569E+02  0.26751914749E+03  0.29752102026E+03  0.12508885246E+03 0.  0.
         23    2    1    2    0    0 -0.34071100725E+02 -0.12008426569E+02  0.11455451215E+03  0.15165633877E+03  0.92584375694E+02 0.  0.
          5    1    3    3  502    0  0.41404498903E+02 -0.19418161050E+02  0.23959043530E+02  0.51796772823E+02  0.41800000000E+01 0. -1.
         -5    1    3    3    0  502 -0.73333981779E+01  0.31426587619E+02  0.24356010396E+03  0.24572424744E+03  0.41800000000E+01 0. -1.
        -11    1    4    4    0    0  0.12588950531E+02  0.25778071983E+02  0.87322151510E+01  0.29987368209E+02  0.00000000000E+00 0. -1.
         11    1    4    4    0    0 -0.46660051256E+02 -0.37786498552E+02  0.10582229700E+03  0.12166897056E+03  0.00000000000E+00 0.  1.
</event>
<event>
 8    1  0.6834011E-009  0.1296562E+03  0.7561462E-02  0.1227967E+00
         -3   -1    0    0    0  501 -0.00000000000E+00  0.00000000000E+00  0.30385599854E+02  0.30385599854E+02  0.00000000000E+00 0.  1.
          3   -1    0    0  501    0  0.00000000000E+00 -0.00000000000E+00 -0.61885265306E+03  0.61885265306E+03  0.00000000000E+00 0. -1.
         25    2    1    2    0    0  0.57294493049E+02 -0.48494525894E+02 -0.40958784281E+03  0.43479169337E+03  0.12508891906E+03 0.  0.
         23    2    1    2    0    0 -0.57294493049E+02  0.48494525894E+02 -0.17887921040E+03  0.21444655954E+03  0.91406657374E+02 0.  0.
          5    1    3    3  502    0  0.37310935020E+02  0.38090998278E+02 -0.20167915528E+03  0.20865038724E+03  0.41800000000E+01 0.  1.
         -5    1    3    3    0  502  0.19983558029E+02 -0.86585524172E+02 -0.20790868753E+03  0.22614130613E+03  0.41800000000E+01 0.  1.
        -11    1    4    4    0    0  0.21598174155E+02  0.27991556394E+02 -0.39760631829E+02  0.53206354880E+02  0.00000000000E+00 0.  1.
         11    1    4    4    0    0 -0.78892667204E+02  0.20502969500E+02 -0.13911857857E+03  0.16124020466E+03  0.00000000000E+00 0. -1.
</event>
<event>
 8    1  0.6834011E-009  0.1161302E+03  0.7561462E-02  0.1249621E+00
         -1   -1    0    0    0  501 -0.00000000000E+00  0.00000000000E+00  0.33849939263E+03  0.33849939263E+03  0.00000000000E+00 0.  1.
          1   -1    0    0  501    0  0.00000000000E+00 -0.00000000000E+00 -0.47571782987E+02  0.47571782987E+02  0.00000000000E+00 0. -1.
         25    2    1    2    0    0 -0.49315643736E+02  0.17684808343E+02  0.10264458913E+03  0.17008311734E+03  0.12509024727E+03 0.  0.
         23    2    1    2    0    0  0.49315643736E+02 -0.17684808343E+02  0.18828302052E+03  0.21598805828E+03  0.91954120859E+02 0.  0.
          5    1    3    3  502    0 -0.91193294267E+02  0.90439734533E+01  0.78875611202E+02  0.12098282861E+03  0.41800000000E+01 0.  1.
         -5    1    3    3    0  502  0.41877650531E+02  0.86408348896E+01  0.23768977926E+02  0.49100288729E+02  0.41800000000E+01 0.  1.
        -11    1    4    4    0    0 -0.82015175580E+01  0.24756747680E+02  0.19105432055E+02  0.32329227952E+02  0.00000000000E+00 0.  1.
         11    1    4    4    0    0  0.57517161294E+02 -0.42441556023E+02  0.16917758846E+03  0.18365883033E+03  0.00000000000E+00 0. -1.
</event>
<event>
 8    1  0.6834011E-009  0.1142051E+03  0.7561462E-02  0.1252975E+00
         -2   -1    0    0    0  501 -0.00000000000E+00  0.00000000000E+00  0.57657870152E+02  0.57657870152E+02  0.00000000000E+00 0.  1.
          2   -1    0    0  501    0  0.00000000000E+00 -0.00000000000E+00 -0.26292128467E+03  0.26292128467E+03  0.00000000000E+00 0. -1.
         25    2    1    2    0    0  0.39326539275E+02  0.42774934376E+02 -0.11369593982E+03  0.17874696232E+03  0.12508972021E+03 0.  0.
         23    2    1    2    0    0 -0.39326539275E+02 -0.42774934376E+02 -0.91567474699E+02  0.14183219251E+03  0.91408406104E+02 0.  0.
          5    1    3    3  502    0  0.16614258182E+02  0.77249462350E+02 -0.28713448147E+02  0.84175100313E+02  0.41800000000E+01 0. -1.
         -5    1    3    3    0  502  0.22712281093E+02 -0.34474527974E+02 -0.84982491674E+02  0.94571862003E+02  0.41800000000E+01 0. -1.
        -11    1    4    4    0    0 -0.65302312755E+01  0.28548879144E+02 -0.18872517141E+02  0.34840412226E+02  0.00000000000E+00 0.  1.
         11    1    4    4    0    0 -0.32796308000E+02 -0.71323813520E+02 -0.72694957558E+02  0.10699178028E+03  0.00000000000E+00 0. -1.
</event>
<event>
 8    1  0.6834011E-009  0.8708109E+02  0.7561462E-02  0.1310078E+00
          2   -1    0    0  501    0  0.00000000000E+00  0.00000000000E+00  0.43675109913E+03  0.43675109913E+03  0.00000000000E+00 0. -1.
         -2   -1    0    0    0  501 -0.00000000000E+00 -0.00000000000E+00 -0.37326796080E+02  0.37326796080E+02  0.00000000000E+00 0.  1.
         25    2    1    2    0    0  0.13582307869E+02  0.28814185572E+02  0.10897337202E+03  0.16893130144E+03  0.12509137628E+03 0.  0.
         23    2    1    2    0    0 -0.13582307869E+02 -0.28814185572E+02  0.29045093103E+03  0.30514659377E+03  0.87965697728E+02 0.  0.
          5    1    3    3  502    0  0.28511836729E+02 -0.17485386875E+02  0.11490422621E+03  0.11974605292E+03  0.41800000000E+01 0. -1.
         -5    1    3    3    0  502 -0.14929528860E+02  0.46299572447E+02 -0.59308541915E+01  0.49185248522E+02  0.41800000000E+01 0. -1.
        -11    1    4    4    0    0 -0.22180928987E+02  0.27121378794E+02  0.82477816776E+02  0.89611121288E+02  0.00000000000E+00 0. -1.
         11    1    4    4    0    0  0.85986211178E+01 -0.55935564366E+02  0.20797311425E+03  0.21553547248E+03  0.00000000000E+00 0.  1.
</event>
<event>
 8    1  0.6834011E-009  0.1099981E+03  0.7561462E-02  0.1260573E+00
         -2   -1    0    0    0  501 -0.00000000000E+00  0.00000000000E+00  0.30411926853E+02  0.30411926853E+02  0.00000000000E+00 0. -1.
          2   -1    0    0  501    0  0.00000000000E+00 -0.00000000000E+00 -0.47726914994E+03  0.47726914994E+03  0.00000000000E+00 0.  1.
         25    2    1    2    0    0 -0.45194627326E+02 -0.25548442226E+02 -0.24821096553E+03  0.28275626168E+03  0.12508854013E+03 0.  0.
         23    2    1    2    0    0  0.45194627326E+02  0.25548442226E+02 -0.19864625756E+03  0.22492481511E+03  0.91845302398E+02 0.  0.
          5    1    3    3  502    0 -0.64641662933E+02 -0.53429905728E+02 -0.99708909965E+02  0.13035581513E+03  0.41800000000E+01 0.  1.
         -5    1    3    3    0  502  0.19447035607E+02  0.27881463503E+02 -0.14850205557E+03  0.15240044655E+03  0.41800000000E+01 0.  1.
        -11    1    4    4    0    0  0.40077551720E+02  0.57129238780E+02 -0.10599123601E+03  0.12690193926E+03  0.00000000000E+00 0.  1.
         11    1    4    4    0    0  0.51170756053E+01 -0.31580796554E+02 -0.92655021546E+02  0.98022875858E+02  0.00000000000E+00 0. -1.
</event>
<event>
 8    1  0.6834011E-009  0.1020807E+03  0.7561462E-02  0.1275980E+00
         -1   -1    0    0    0  501 -0.00000000000E+00  0.00000000000E+00  0.43401001457E+02  0.43401001457E+02  0.00000000000E+00 0.  1.
          1   -1    0    0  501    0  0.00000000000E+00 -0.00000000000E+00 -0.42193788060E+03  0.42193788060E+03  0.00000000000E+00 0. -1.
         25    2    1    2    0    0 -0.39054237308E+02  0.59112046937E+02 -0.27964340920E+03  0.31443672065E+03  0.12510214801E+03 0.  0.
         23    2    1    2    0    0  0.39054237308E+02 -0.59112046937E+02 -0.98893469939E+02  0.15090216141E+03  0.89286484845E+02 0.  0.
          5    1    3    3  502    0 -0.21310930948E+02 -0.12118736794E+02  0.42962638670E+00  0.24873209246E+02  0.41800000000E+01 0.  1.
         -5    1    3    3    0  502 -0.17743306360E+02  0.71230783731E+02 -0.28007303559E+03  0.28956351140E+03  0.41800000000E+01 0.  1.
        -11    1    4    4    0    0 -0.15619483770E+02 -0.47324682991E+02 -0.18908522390E+02  0.53302214892E+02  0.00000000000E+00 0.  1.
         11    1    4    4    0    0  0.54673721078E+02 -0.11787363946E+02 -0.79984947549E+02  0.97599946515E+02  0.00000000000E+00 0. -1.
</event>
<event>
 8    1  0.6834011E-009  0.1494975E+03  0.7561462E-02  0.1201092E+00
          2   -1    0    0  501    0  0.00000000000E+00  0.00000000000E+00  0.38080216752E+03  0.38080216752E+03  0.00000000000E+00 0. -1.
         -2   -1    0    0    0  501 -0.00000000000E+00 -0.00000000000E+00 -0.74864019775E+02  0.74864019775E+02  0.00000000000E+00 0.  1.
         25    2    1    2    0    0 -0.65902883625E+02 -0.99729082486E+02  0.22888669108E+03  0.28692449677E+03  0.12508984585E+03 0.  0.
         23    2    1    2    0    0  0.65902883625E+02  0.99729082486E+02  0.77051456670E+02  0.16874169052E+03  0.90817130443E+02 0.  0.
          5    1    3    3  502    0 -0.88798160752E+02 -0.91444679341E+02  0.22911615080E+03  0.26221923211E+03  0.41800000000E+01 0. -1.
         -5    1    3    3    0  502  0.22895277127E+02 -0.82844031453E+01 -0.22945972313E+00  0.24705264661E+02  0.41800000000E+01 0. -1.
        -11    1    4    4    0    0  0.71352731188E+02  0.11230306024E+03  0.79243054957E+02  0.15486333118E+03  0.00000000000E+00 0. -1.
         11    1    4    4    0    0 -0.54498475624E+01 -0.12573977750E+02 -0.21915982871E+01  0.13878359340E+02  0.00000000000E+00 0.  1.
</event>
<event>
 8    1  0.6834011E-009  0.1008022E+03  0.7561462E-02  0.1278618E+00
          1   -1    0    0  501    0  0.00000000000E+00  0.00000000000E+00  0.45921575692E+03  0.45921575692E+03  0.00000000000E+00 0. -1.
         -1   -1    0    0    0  501 -0.00000000000E+00 -0.00000000000E+00 -0.27014258825E+02  0.27014258825E+02  0.00000000000E+00 0.  1.
         25    2    1    2    0    0  0.75721450999E+01 -0.21857034510E+02  0.22723348682E+03  0.26041696469E+03  0.12508745190E+03 0.  0.
         23    2    1    2    0    0 -0.75721450999E+01  0.21857034510E+02  0.20496801127E+03  0.22581305106E+03  0.91894401592E+02 0.  0.
          5    1    3    3  502    0  0.57082575370E+01 -0.74255616917E+02  0.13108516535E+03  0.15082199383E+03  0.41800000000E+01 0.  1.
         -5    1    3    3    0  502  0.18638875629E+01  0.52398582407E+02  0.96148321467E+02  0.10959497085E+03  0.41800000000E+01 0.  1.
        -11    1    4    4    0    0 -0.38022041217E+02  0.22071051627E+02  0.44770453514E+02  0.62747115042E+02  0.00000000000E+00 0.  1.
         11    1    4    4    0    0  0.30449896117E+02 -0.21401711674E+00  0.16019755776E+03  0.16306593602E+03  0.00000000000E+00 0. -1.
</event>
<event>
 8    1  0.6834011E-009  0.1114693E+03  0.7561462E-02  0.1257873E+00
          4   -1    0    0  501    0  0.00000000000E+00  0.00000000000E+00  0.10626036662E+03  0.10626036662E+03  0.00000000000E+00 0. -1.
         -4   -1    0    0    0  501 -0.00000000000E+00 -0.00000000000E+00 -0.19402318344E+03  0.19402318344E+03  0.00000000000E+00 0.  1.
         25    2    1    2    0    0  0.90406288154E+02 -0.25924826420E+02 -0.55435491531E+02  0.16603151901E+03  0.12509187832E+03 0.  0.
         23    2    1    2    0    0 -0.90406288154E+02  0.25924826420E+02 -0.32327325295E+02  0.13425203105E+03  0.90184024730E+02 0.  0.
          5    1    3    3  502    0  0.47959463200E+02 -0.11145266627E+02 -0.94301980624E+02  0.10646437446E+03  0.41800000000E+01 0. -1.
         -5    1    3    3    0  502  0.42446824954E+02 -0.14779559794E+02  0.38866489093E+02  0.59567144558E+02  0.41800000000E+01 0. -1.
        -11    1    4    4    0    0 -0.41407491594E+01  0.40658677282E+02 -0.21177154135E+02  0.46029834881E+02  0.00000000000E+00 0.  1.
         11    1    4    4    0    0 -0.86265538995E+02 -0.14733850862E+02 -0.11150171160E+02  0.88222196165E+02  0.00000000000E+00 0. -1.
</event>
<event>
 8    1  0.6834011E-009  0.1134108E+03  0.7561462E-02  0.1254381E+00
          2   -1    0    0  501    0  0.00000000000E+00  0.00000000000E+00  0.14668567648E+03  0.14668567648E+03  0.00000000000E+00 0. -1.
         -2   -1    0    0    0  501 -0.00000000000E+00 -0.00000000000E+00 -0.12993308078E+03  0.12993308078E+03  0.00000000000E+00 0.  1.
         25    2    1    2    0    0  0.49434649387E+02 -0.37385253132E+02 -0.49528017920E+02  0.14812708633E+03  0.12508863830E+03 0.  0.
         23    2    1    2    0    0 -0.49434649387E+02  0.37385253132E+02  0.66280613624E+02  0.12849167094E+03  0.90970039277E+02 0.  0.
          5    1    3    3  502    0  0.82550781802E+02 -0.52714960833E+02 -0.17901448159E+02  0.99656574886E+02  0.41800000000E+01 0.  1.
         -5    1    3    3    0  502 -0.33116132415E+02  0.15329707701E+02 -0.31626569761E+02  0.48470511439E+02  0.41800000000E+01 0.  1.
        -11    1    4    4    0    0 -0.24549374316E+02 -0.18592469420E+02 -0.83801847322E+01  0.31915187523E+02  0.00000000000E+00 0.  1.
         11    1    4    4    0    0 -0.24885275071E+02  0.55977722552E+02  0.74660798356E+02  0.96576483414E+02  0.00000000000E+00 0. -1.
</event>
<event>
 8    1  0.6834011E-009  0.7101322E+02  0.7561462E-02  0.1356681E+00
         -2   -1    0    0    0  501 -0.00000000000E+00  0.00000000000E+00  0.10131927474E+03  0.10131927474E+03  0.00000000000E+00 0.  1.
          2   -1    0    0  501    0  0.00000000000E+00 -0.00000000000E+00 -0.13826470685E+03  0.13826470685E+03  0.00000000000E+00 0. -1.
         25    2    1    2    0    0  0.21452701150E+01  0.10873338189E+02  0.25002670708E+02  0.12805042167E+03  0.12509574445E+03 0.  0.
         23    2    1    2    0    0 -0.21452701150E+01 -0.10873338189E+02 -0.61948102822E+02  0.11153355992E+03  0.92083309444E+02 0.  0.
          5    1    3    3  502    0  0.21394818671E+02 -0.13151831816E+02  0.69365753833E+02  0.73890386052E+02  0.41800000000E+01 0. -1.
         -5    1    3    3    0  502 -0.19249548556E+02  0.24025170005E+02 -0.44363083125E+02  0.54160035614E+02  0.41800000000E+01 0. -1.
        -11    1    4    4    0    0 -0.12251458011E+02 -0.46696810415E+02 -0.55836705214E+02  0.73813467440E+02  0.00000000000E+00 0. -1.
         11    1    4    4    0    0  0.10106187896E+02  0.35823472226E+02 -0.61113976076E+01  0.37720092481E+02  0.00000000000E+00 0.  1.
</event>
<event>
 8    1  0.6834011E-009  0.1442222E+03  0.7561462E-02  0.1207758E+00
          1   -1    0    0  501    0  0.00000000000E+00  0.00000000000E+00  0.44284545132E+03  0.44284545132E+03  0.00000000000E+00 0. -1.
         -1   -1    0    0    0  501 -0.00000000000E+00 -0.00000000000E+00 -0.65768230165E+02  0.65768230165E+02  0.00000000000E+00 0.  1.
         25    2    1    2    0    0  0.11997979653E+03 -0.27186020615E+00  0.27945342891E+03  0.32884173283E+03  0.12508973115E+03 0.  0.
         23    2    1    2    0    0 -0.11997979653E+03  0.27186020615E+00  0.97623792251E+02  0.17977194866E+03  0.91609624104E+02 0.  0.
          5    1    3    3  502    0  0.37881812667E+02 -0.31665114658E+02  0.17574241461E+02  0.52574115115E+02  0.41800000000E+01 0.  1.
         -5    1    3    3    0  502  0.82097983862E+02  0.31393254451E+02  0.26187918745E+03  0.27626761771E+03  0.41800000000E+01 0.  1.
        -11    1    4    4    0    0  0.51913699657E+01 -0.23004289056E+02  0.13507095966E+02  0.27176999071E+02  0.00000000000E+00 0.  1.
         11    1    4    4    0    0 -0.12517116649E+03  0.23276149262E+02  0.84116696286E+02  0.15259494959E+03  0.00000000000E+00 0. -1.
</event>
<event>
 8    1  0.6834011E-009  0.8695335E+02  0.7561462E-02  0.1310402E+00
         -1   -1    0    0    0  501 -0.00000000000E+00  0.00000000000E+00  0.22819380295E+03  0.22819380295E+03  0.00000000000E+00 0.  1.
          1   -1    0    0  501    0  0.00000000000E+00 -0.00000000000E+00 -0.71732719386E+02  0.71732719386E+02  0.00000000000E+00 0. -1.
         25    2    1    2    0    0 -0.35418520911E+02  0.48755429685E+02  0.61727881890E+02  0.15195068965E+03  0.12508843726E+03 0.  0.
         23    2    1    2    0    0  0.35418520911E+02 -0.48755429685E+02  0.94733201674E+02  0.14797583268E+03  0.96389335573E+02 0.  0.
          5    1    3    3  502    0  0.12819414545E+01  0.30437579128E+02 -0.35127297793E+02  0.46684998097E+02  0.41800000000E+01 0. -1.
         -5    1    3    3    0  502 -0.36700462365E+02  0.18317850556E+02  0.96855179683E+02  0.10526569155E+03  0.41800000000E+01 0. -1.
        -11    1    4    4    0    0  0.26912593420E+02  0.19441968044E+02  0.65213595925E+02  0.73178486589E+02  0.00000000000E+00 0.  1.
         11    1    4    4    0    0  0.85059274904E+01 -0.68197397728E+02  0.29519605749E+02  0.74797346096E+02  0.00000000000E+00 0. -1.
</event>
<event>
 8    1  0.6834011E-009  0.2762948E+03  0.7561462E-02  0.1097730E+00
          1   -1    0    0  501    0  0.00000000000E+00  0.00000000000E+00  0.35460846751E+03  0.35460846751E+03  0.00000000000E+00 0. -1.
         -1   -1    0    0    0  501 -0.00000000000E+00 -0.00000000000E+00 -0.23378299503E+03  0.23378299503E+03  0.00000000000E+00 0.  1.
         25    2    1    2    0    0  0.17740142838E+03 -0.18746705136E+03 -0.63911146163E+01  0.28688560319E+03  0.12508933142E+03 0.  0.
         23    2    1    2    0    0 -0.17740142838E+03  0.18746705136E+03  0.12721658709E+03  0.30150585936E+03  0.90036442954E+02 0.  0.
          5    1    3    3  502    0  0.43977306186E+02  0.55852435543E+01 -0.25650620185E+02  0.51387013153E+02  0.41800000000E+01 0. -1.
         -5    1    3    3    0  502  0.13342412219E+03 -0.19305229491E+03  0.19259505569E+02  0.23549859004E+03  0.41800000000E+01 0. -1.
        -11    1    4    4    0    0 -0.99358793656E+02  0.16418962332E+03  0.89170791151E+02  0.21161718333E+03  0.00000000000E+00 0.  1.
         11    1    4    4    0    0 -0.78042634719E+02  0.23277428037E+02  0.38045795942E+02  0.89888676032E+02  0.00000000000E+00 0. -1.
</event>
<event>
 8    1  0.6834011E-009  0.1154550E+03  0.7561462E-02  0.1250789E+00
         -1   -1    0    0    0  501 -0.00000000000E+00  0.00000000000E+00  0.15326347718E+02  0.15326347718E+02  0.00000000000E+00 0. -1.
          1   -1    0    0  501    0  0.00000000000E+00 -0.00000000000E+00 -0.10782975015E+04  0.10782975015E+04  0.00000000000E+00 0.  1.
         25    2    1    2    0    0 -0.28183318600E+02  0.28885378310E+02 -0.82048663849E+03  0.83094882606E+03  0.12509581554E+03 0.  0.
         23    2    1    2    0    0  0.28183318600E+02 -0.28885378310E+02 -0.24248451532E+03  0.26267502318E+03  0.92578415992E+02 0.  0.
          5    1    3    3  502    0 -0.49351993915E+01 -0.49314494917E+02 -0.30383550726E+03  0.30787946257E+03  0.41800000000E+01 0.  1.
         -5    1    3    3    0  502 -0.23248119208E+02  0.78199873227E+02 -0.51665113124E+03  0.52306936349E+03  0.41800000000E+01 0.  1.
        -11    1    4    4    0    0 -0.32350201170E+02  0.14156728537E+00 -0.10134054696E+03  0.10637886075E+03  0.00000000000E+00 0.  1.
         11    1    4    4    0    0  0.60533519769E+02 -0.29026945595E+02 -0.14114396836E+03  0.15629616243E+03  0.00000000000E+00 0. -1.
</event>
<event>
 8    1  0.6834011E-009  0.6324125E+02  0.7561462E-02  0.1384712E+00
         -1   -1    0    0    0  501 -0.00000000000E+00  0.00000000000E+00  0.46802824764E+02  0.46802824764E+02  0.00000000000E+00 0.  1.
          1   -1    0    0  501    0  0.00000000000E+00 -0.00000000000E+00 -0.25667160376E+03  0.25667160376E+03  0.00000000000E+00 0. -1.
         25    2    1    2    0    0  0.14835851282E+02  0.33724312710E+01 -0.14117635545E+03  0.18923436372E+03  0.12508958909E+03 0.  0.
         23    2    1    2    0    0 -0.14835851282E+02 -0.33724312710E+01 -0.68692423543E+02  0.11424006480E+03  0.90003708691E+02 0.  0.
          5    1    3    3  502    0 -0.33082437433E+01  0.20082092985E+02 -0.15782268747E+03  0.15918450934E+03  0.41800000000E+01 0.  1.
         -5    1    3    3    0  502  0.18144095026E+02 -0.16709661714E+02  0.16646332011E+02  0.30049854381E+02  0.41800000000E+01 0.  1.
        -11    1    4    4    0    0 -0.63675155823E+01  0.37962898839E+02 -0.59802134994E+02  0.71119774274E+02  0.00000000000E+00 0. -1.
         11    1    4    4    0    0 -0.84683357001E+01 -0.41335330110E+02 -0.88902885485E+01  0.43120290529E+02  0.00000000000E+00 0.  1.
</event>
<event>
 8    1  0.6834011E-009  0.1021340E+03  0.7561462E-02  0.1275871E+00
          1   -1    0    0  501    0  0.00000000000E+00  0.00000000000E+00  0.10189402984E+03  0.10189402984E+03  0.00000000000E+00 0. -1.
         -1   -1    0    0    0  501 -0.00000000000E+00 -0.00000000000E+00 -0.17405112226E+03  0.17405112226E+03  0.00000000000E+00 0.  1.
         25    2    1    2    0    0  0.59607824912E+02  0.12183669618E+01 -0.92234649341E+02  0.16645861763E+03  0.12508662452E+03 0.  0.
         23    2    1    2    0    0 -0.59607824912E+02 -0.12183669618E+01  0.20077556926E+02  0.10948653447E+03  0.89608123126E+02 0.  0.
          5    1    3    3  502    0  0.59721506442E+02  0.42177126483E+02 -0.10061329318E+03  0.12444306125E+03  0.41800000000E+01 0.  1.
         -5    1    3    3    0  502 -0.11368152924E+00 -0.40958759521E+02  0.83786438351E+01  0.42015556375E+02  0.41800000000E+01 0.  1.
        -11    1    4    4    0    0 -0.36856362462E+02 -0.33877638321E+02 -0.19153417362E+02  0.53599806238E+02  0.00000000000E+00 0.  1.
         11    1    4    4    0    0 -0.22751462450E+02  0.32659271359E+02  0.39230974288E+02  0.55886728236E+02  0.00000000000E+00 0. -1.
</event>
<event>
 8    1  0.6834011E-009  0.2137503E+03  0.7561462E-02  0.1138630E+00
         -2   -1    0    0    0  501 -0.00000000000E+00  0.00000000000E+00  0.15396651210E+03  0.15396651210E+03  0.00000000000E+00 0.  1.
          2   -1    0    0  501    0  0.00000000000E+00 -0.00000000000E+00 -0.33973924421E+03  0.33973924421E+03  0.00000000000E+00 0. -1.
         25    2    1    2    0    0  0.16559239058E+03 -0.10389231967E+03 -0.59334450411E+02  0.23954622912E+03  0.12508942791E+03 0.  0.
         23    2    1    2    0    0 -0.16559239058E+03  0.10389231967E+03 -0.12643828170E+03  0.25415952719E+03  0.10196064082E+03 0.  0.
          5    1    3    3  502    0  0.12041872922E+03 -0.26828140198E+01 -0.39830394893E+02  0.12693226775E+03  0.41800000000E+01 0.  1.
         -5    1    3    3    0  502  0.45173661363E+02 -0.10120950565E+03 -0.19504055519E+02  0.11261396137E+03  0.41800000000E+01 0.  1.
        -11    1    4    4    0    0 -0.14714977710E+03  0.86353047461E+02 -0.14397984765E+03  0.22324896917E+03  0.00000000000E+00 0. -1.
         11    1    4    4    0    0 -0.18442613483E+02  0.17539272207E+02  0.17541565941E+02  0.30910558023E+02  0.00000000000E+00 0.  1.
</event>
<event>
 8    1  0.6834011E-009  0.1052540E+03  0.7561462E-02  0.1269620E+00
          2   -1    0    0  501    0  0.00000000000E+00  0.00000000000E+00  0.49037490139E+03  0.49037490139E+03  0.00000000000E+00 0. -1.
         -2   -1    0    0    0  501 -0.00000000000E+00 -0.00000000000E+00 -0.24614415756E+02  0.24614415756E+02  0.00000000000E+00 0.  1.
         25    2    1    2    0    0  0.37653709618E+01  0.78402761925E+01  0.29426523921E+03  0.31986313206E+03  0.12507895224E+03 0.  0.
         23    2    1    2    0    0 -0.37653709618E+01 -0.78402761925E+01  0.17149524642E+03  0.19512618508E+03  0.92671250187E+02 0.  0.
          5    1    3    3  502    0 -0.15555096740E+02 -0.52363426113E+02  0.84243363129E+02  0.10049032819E+03  0.41800000000E+01 0.  1.
         -5    1    3    3    0  502  0.19320467702E+02  0.60203702305E+02  0.21002187609E+03  0.21937280387E+03  0.41800000000E+01 0.  1.
        -11    1    4    4    0    0  0.16273467149E+02 -0.46252799004E+02  0.78865803510E+02  0.92865290136E+02  0.00000000000E+00 0.  1.
         11    1    4    4    0    0 -0.20038838111E+02  0.38412522812E+02  0.92629442910E+02  0.10226089495E+03  0.00000000000E+00 0. -1.
</event>
<event>
 8    1  0.6834011E-009  0.1204909E+03  0.7561462E-02  0.1242289E+00
          3   -1    0    0  501    0  0.00000000000E+00  0.00000000000E+00  0.43718467157E+03  0.43718467157E+03  0.00000000000E+00 0. -1.
         -3   -1    0    0    0  501 -0.00000000000E+00 -0.00000000000E+00 -0.41795346652E+02  0.41795346652E+02  0.00000000000E+00 0.  1.
         25    2    1    2    0    0  0.55744992935E+02 -0.57163478083E+02  0.23632877295E+03  0.27905762934E+03  0.12508678629E+03 0.  0.
         23    2    1    2    0    0 -0.55744992935E+02  0.57163478083E+02  0.15906055197E+03  0.19992238889E+03  0.91068847148E+02 0.  0.
          5    1    3    3  502    0  0.27771406961E+00  0.31354166376E+02  0.16594698988E+02  0.35721384474E+02  0.41800000000E+01 0.  1.
         -5    1    3    3    0  502  0.55467278865E+02 -0.88517644458E+02  0.21973407396E+03  0.24333624486E+03  0.41800000000E+01 0.  1.
        -11    1    4    4    0    0  0.15092874403E+02  0.19243443302E+02  0.33250490591E+01  0.24681185529E+02  0.00000000000E+00 0.  1.
         11    1    4    4    0    0 -0.70837867338E+02  0.37920034781E+02  0.15573550291E+03  0.17524120336E+03  0.00000000000E+00 0. -1.
</event>
<event>
 8    1  0.6834011E-009  0.9780240E+02  0.7561462E-02  0.1284986E+00
          1   -1    0    0  501    0  0.00000000000E+00  0.00000000000E+00  0.51693027249E+02  0.51693027249E+02  0.00000000000E+00 0. -1.
         -1   -1    0    0    0  501 -0.00000000000E+00 -0.00000000000E+00 -0.43037160021E+03  0.43037160021E+03  0.00000000000E+00 0.  1.
         25    2    1    2    0    0  0.17795001190E+02  0.25549313557E+02 -0.35905827420E+03  0.38149660839E+03  0.12508952173E+03 0.  0.
         23    2    1    2    0    0 -0.17795001190E+02 -0.25549313557E+02 -0.19620298753E+02  0.10056801907E+03  0.93592418740E+02 0.  0.
          5    1    3    3  502    0  0.58433426891E+02  0.53441750460E+02 -0.21228885529E+03  0.22661534933E+03  0.41800000000E+01 0.  1.
         -5    1    3    3    0  502 -0.40638425700E+02 -0.27892436904E+02 -0.14676941891E+03  0.15488125906E+03  0.41800000000E+01 0.  1.
        -11    1    4    4    0    0 -0.37989650791E+02 -0.55019930289E+01 -0.47269098705E+02  0.60892143885E+02  0.00000000000E+00 0.  1.
         11    1    4    4    0    0  0.20194649600E+02 -0.20047320528E+02  0.27648799952E+02  0.39675875184E+02  0.00000000000E+00 0. -1.
</event>
<event>
 8    1  0.6834011E-009  0.2409674E+03  0.7561462E-02  0.1119150E+00
         -1   -1    0    0    0  501 -0.00000000000E+00  0.00000000000E+00  0.17515624115E+03  0.17515624115E+03  0.00000000000E+00 0.  1.
          1   -1    0    0  501    0  0.00000000000E+00 -0.00000000000E+00 -0.40818478376E+03  0.40818478376E+03  0.00000000000E+00 0. -1.
         25    2    1    2    0    0 -0.41285122240E+02 -0.22365987301E+03 -0.21852495317E+02  0.26049385567E+03  0.12510522444E+03 0.  0.
         23    2    1    2    0    0  0.41285122240E+02  0.22365987301E+03 -0.21117604729E+03  0.32284716924E+03  0.88920029391E+02 0.  0.
          5    1    3    3  502    0  0.20440834367E+02 -0.78658026226E+02 -0.56517692512E+02  0.99078932000E+02  0.41800000000E+01 0.  1.
         -5    1    3    3    0  502 -0.61725956607E+02 -0.14500184678E+03  0.34665197194E+02  0.16141492367E+03  0.41800000000E+01 0.  1.
        -11    1    4    4    0    0 -0.24445116623E+02  0.31857619275E+02 -0.48042653256E+02  0.62614440542E+02  0.00000000000E+00 0. -1.
         11    1    4    4    0    0  0.65730238863E+02  0.19180225373E+03 -0.16313339404E+03  0.26023272870E+03  0.00000000000E+00 0.  1.
</event>
<event>
 8    1  0.6834011E-009  0.6099287E+02  0.7561462E-02  0.1393712E+00
         -1   -1    0    0    0  501 -0.00000000000E+00  0.00000000000E+00  0.82783732974E+02  0.82783732974E+02  0.00000000000E+00 0.  1.
          1   -1    0    0  501    0  0.00000000000E+00 -0.00000000000E+00 -0.22285888545E+03  0.22285888545E+03  0.00000000000E+00 0. -1.
         25    2    1    2    0    0 -0.55450617394E+02  0.26472363457E+01 -0.90416812851E+01  0.13715263357E+03  0.12508922442E+03 0.  0.
         23    2    1    2    0    0  0.55450617394E+02 -0.26472363457E+01 -0.13103347119E+03  0.16848998485E+03  0.90207126069E+02 0.  0.
          5    1    3    3  502    0  0.39311903439E+01  0.34923594470E+01  0.51679778857E+02  0.52114515970E+02  0.41800000000E+01 0. -1.
         -5    1    3    3    0  502 -0.59381807738E+02 -0.84512310123E+00 -0.60721460143E+02  0.85038117601E+02  0.41800000000E+01 0. -1.
        -11    1    4    4    0    0  0.45232584291E+02 -0.22827063851E+00 -0.14449953269E+03  0.15141384923E+03  0.00000000000E+00 0. -1.
         11    1    4    4    0    0  0.10218033103E+02 -0.24189657072E+01  0.13466061501E+02  0.17076135627E+02  0.00000000000E+00 0.  1.
</event>
<event>
 8    1  0.6834011E-009  0.1098826E+03  0.7561462E-02  0.1260787E+00
         -1   -1    0    0    0  501 -0.00000000000E+00  0.00000000000E+00  0.24372303958E+02  0.24372303958E+02  0.00000000000E+00 0.  1.
          1   -1    0    0  501    0  0.00000000000E+00 -0.00000000000E+00 -0.54894500619E+03  0.54894500619E+03  0.00000000000E+00 0. -1.
         25    2    1    2    0    0  0.14341245965E+02  0.22706432560E+01 -0.38270923701E+03  0.40289593155E+03  0.12509174396E+03 0.  0.
         23    2    1    2    0    0 -0.14341245965E+02 -0.22706432560E+01 -0.14186346522E+03  0.17042137860E+03  0.93313323610E+02 0.  0.
          5    1    3    3  502    0 -0.11545684664E+02  0.60554620849E+02 -0.17587329808E+03  0.18641098229E+03  0.41800000000E+01 0.  1.
         -5    1    3    3    0  502  0.25886930629E+02 -0.58283977593E+02 -0.20683593893E+03  0.21648494926E+03  0.41800000000E+01 0.  1.
        -11    1    4    4    0    0 -0.14130460675E+02  0.44810455785E+02 -0.63333878566E+02  0.78859539948E+02  0.00000000000E+00 0.  1.
         11    1    4    4    0    0 -0.21078529014E+00 -0.47081099041E+02 -0.78529586652E+02  0.91561838650E+02  0.00000000000E+00 0. -1.
</event>
<event>
 8    1  0.6834011E-009  0.1112504E+03  0.7561462E-02  0.1258272E+00
          2   -1    0    0  501    0  0.00000000000E+00  0.00000000000E+00  0.13403734778E+03  0.13403734778E+03  0.00000000000E+00 0. -1.
         -2   -1    0    0    0  501 -0.00000000000E+00 -0.00000000000E+00 -0.13866661789E+03  0.13866661789E+03  0.00000000000E+00 0.  1.
         25    2    1    2    0    0  0.27651847615E+02 -0.73431191810E+02  0.30747520077E+02  0.15083470072E+03  0.12509569274E+03 0.  0.
         23    2    1    2    0    0 -0.27651847615E+02  0.73431191810E+02 -0.35376790186E+02  0.12186926495E+03  0.86277667147E+02 0.  0.
          5    1    3    3  502    0 -0.20144560466E+02 -0.69982157556E+02  0.60074313355E+02  0.94497096345E+02  0.41800000000E+01 0.  1.
         -5    1    3    3    0  502  0.47796408081E+02 -0.34490342539E+01 -0.29326793278E+02  0.56337604375E+02  0.41800000000E+01 0.  1.
        -11    1    4    4    0    0 -0.46862025502E+02  0.35000667373E+02 -0.49519240763E+02  0.76637140842E+02  0.00000000000E+00 0. -1.
         11    1    4    4    0    0  0.19210177887E+02  0.38430524437E+02  0.14142450577E+02  0.45232124107E+02  0.00000000000E+00 0.  1.
</event>
<event>
 8    1  0.6834011E-009  0.1059134E+03  0.7561462E-02  0.1268330E+00
          2   -1    0    0  501    0  0.00000000000E+00  0.00000000000E+00  0.16612766410E+03  0.16612766410E+03  0.00000000000E+00 0. -1.
         -2   -1    0    0    0  501 -0.00000000000E+00 -0.00000000000E+00 -0.13453116224E+03  0.13453116224E+03  0.00000000000E+00 0.  1.
         25    2    1    2    0    0  0.54846001588E+02 -0.45794966969E+02  0.90951564771E+02  0.17036706200E+03  0.12508991083E+03 0.  0.
         23    2    1    2    0    0 -0.54846001588E+02  0.45794966969E+02 -0.59355062910E+02  0.13029176434E+03  0.91365515773E+02 0.  0.
          5    1    3    3  502    0  0.92680411318E+02 -0.42818942443E+02  0.47978959148E+02  0.11288300756E+03  0.41800000000E+01 0. -1.
         -5    1    3    3    0  502 -0.37834409730E+02 -0.29760245260E+01  0.42972605623E+02  0.57484054447E+02  0.41800000000E+01 0. -1.
        -11    1    4    4    0    0 -0.31161035569E+02  0.25048705802E+02 -0.82189001229E+02  0.91397372627E+02  0.00000000000E+00 0.  1.
         11    1    4    4    0    0 -0.23684966019E+02  0.20746261167E+02  0.22833938319E+02  0.38894391715E+02  0.00000000000E+00 0. -1.
</event>
<event>
 8    1  0.6834011E-009  0.9468618E+02  0.7561462E-02  0.1291884E+00
          1   -1    0    0  501    0  0.00000000000E+00  0.00000000000E+00  0.75488546220E+02  0.75488546220E+02  0.00000000000E+00 0. -1.
         -1   -1    0    0    0  501 -0.00000000000E+00 -0.00000000000E+00 -0.20605657967E+03  0.20605657967E+03  0.00000000000E+00 0.  1.
         25    2    1    2    0    0 -0.52010537285E+02  0.17180601987E+02 -0.41867948463E+02  0.14283145089E+03  0.12509048398E+03 0.  0.
         23    2    1    2    0    0  0.52010537285E+02 -0.17180601987E+02 -0.88700084990E+02  0.13871367500E+03  0.91506882154E+02 0.  0.
          5    1    3    3  502    0  0.12851648231E+02 -0.18974442990E+02  0.30954488971E+02  0.38740768403E+02  0.41800000000E+01 0. -1.
         -5    1    3    3    0  502 -0.64862185516E+02  0.36155044977E+02 -0.72822437433E+02  0.10409068249E+03  0.41800000000E+01 0. -1.
        -11    1    4    4    0    0  0.12856827499E+02  0.28662315461E+02 -0.68112904790E+02  0.75007960510E+02  0.00000000000E+00 0.  1.
         11    1    4    4    0    0  0.39153709786E+02 -0.45842917448E+02 -0.20587180200E+02  0.63705714490E+02  0.00000000000E+00 0. -1.
</event>
<event>
 8    1  0.6834011E-009  0.6882870E+02  0.7561462E-02  0.1364122E+00
         -1   -1    0    0    0  501 -0.00000000000E+00  0.00000000000E+00  0.27138343012E+02  0.27138343012E+02  0.00000000000E+00 0.  1.
          1   -1    0    0  501    0  0.00000000000E+00 -0.00000000000E+00 -0.54910945769E+03  0.54910945769E+03  0.00000000000E+00 0. -1.
         25    2    1    2    0    0 -0.30275597091E+02 -0.43674686906E+02 -0.31228626526E+03  0.34058098700E+03  0.12509439308E+03 0.  0.
         23    2    1    2    0    0  0.30275597091E+02  0.43674686906E+02 -0.20968484942E+03  0.23566681371E+03  0.93525509621E+02 0.  0.
          5    1    3    3  502    0 -0.17136810726E+02 -0.26707175303E+02 -0.48542069257E+01  0.32372507154E+02  0.41800000000E+01 0. -1.
         -5    1    3    3    0  502 -0.13138786365E+02 -0.16967511603E+02 -0.30743205833E+03  0.30820847984E+03  0.41800000000E+01 0. -1.
        -11    1    4    4    0    0  0.22374368737E+02 -0.13458898429E+02 -0.10235034456E+02  0.28044790133E+02  0.00000000000E+00 0.  1.
         11    1    4    4    0    0  0.79012283541E+01  0.57133585335E+02 -0.19944981497E+03  0.20762202357E+03  0.00000000000E+00 0. -1.
</event>
<event>
 8    1  0.6834011E-009  0.1505981E+03  0.7561462E-02  0.1199740E+00
         -1   -1    0    0    0  501 -0.00000000000E+00  0.00000000000E+00  0.91786779006E+02  0.91786779006E+02  0.00000000000E+00 0.  1.
          1   -1    0    0  501    0  0.00000000000E+00 -0.00000000000E+00 -0.29607603696E+03  0.29607603696E+03  0.00000000000E+00 0. -1.
         25    2    1    2    0    0  0.12245091184E+03  0.17714760688E+02 -0.10373074731E+03  0.20423744459E+03  0.12507928397E+03 0.  0.
         23    2    1    2    0    0 -0.12245091184E+03 -0.17714760688E+02 -0.10055851065E+03  0.18362537138E+03  0.91094590370E+02 0.  0.
          5    1    3    3  502    0  0.90820726011E+02  0.53398604761E+02 -0.11399623161E+03  0.15528177126E+03  0.41800000000E+01 0. -1.
         -5    1    3    3    0  502  0.31630185826E+02 -0.35683844073E+02  0.10265484303E+02  0.48955673330E+02  0.41800000000E+01 0. -1.
        -11    1    4    4    0    0 -0.38852592180E+02 -0.45466902795E+02 -0.65835081901E+02  0.88943921534E+02  0.00000000000E+00 0.  1.
         11    1    4    4    0    0 -0.83598319657E+02  0.27752142107E+02 -0.34723428748E+02  0.94681449847E+02  0.00000000000E+00 0. -1.
</event>
<event>
 8    1  0.6834011E-009  0.8965981E+02  0.7561462E-02  0.1303678E+00
         -2   -1    0    0    0  501 -0.00000000000E+00  0.00000000000E+00  0.24937781868E+02  0.24937781868E+02  0.00000000000E+00 0.  1.
          2   -1    0    0  501    0  0.00000000000E+00 -0.00000000000E+00 -0.55060880236E+03  0.55060880236E+03  0.00000000000E+00 0. -1.
         25    2    1    2    0    0  0.44681288293E+02  0.10090990262E+01 -0.32250377685E+03  0.34878768425E+03  0.12508687701E+03 0.  0.
         23    2    1    2    0    0 -0.44681288293E+02 -0.10090990262E+01 -0.20316724364E+03  0.22675889998E+03  0.90250950271E+02 0.  0.
          5    1    3    3  502    0  0.59895481302E+02  0.12068172084E+02 -0.32373868492E+03  0.32948037570E+03  0.41800000000E+01 0.  1.
         -5    1    3    3    0  502 -0.15214193009E+02 -0.11059073057E+02  0.12349080648E+01  0.19307308558E+02  0.41800000000E+01 0.  1.
        -11    1    4    4    0    0 -0.70935182478E+02  0.72070398281E+01 -0.12517636914E+03  0.14405854687E+03  0.00000000000E+00 0. -1.
         11    1    4    4    0    0  0.26253894186E+02 -0.82161388542E+01 -0.77990874507E+02  0.82700353106E+02  0.00000000000E+00 0.  1.
</event>
<event>
 8    1  0.6834011E-009  0.9417944E+02  0.7561462E-02  0.1293035E+00
          2   -1    0    0  501    0  0.00000000000E+00  0.00000000000E+00  0.10219249842E+03  0.10219249842E+03  0.00000000000E+00 0. -1.
         -2   -1    0    0    0  501 -0.00000000000E+00 -0.00000000000E+00 -0.14302488831E+03  0.14302488831E+03  0.00000000000E+00 0.  1.
         25    2    1    2    0    0 -0.21517994689E+02 -0.42161391600E+02 -0.53021494748E+02  0.14387407621E+03  0.12509142202E+03 0.  0.
         23    2    1    2    0    0  0.21517994689E+02  0.42161391600E+02  0.12189104861E+02  0.10134331053E+03  0.88776603191E+02 0.  0.
          5    1    3    3  502    0 -0.21570218612E+02  0.19953523500E+02  0.28602117397E+02  0.41218575311E+02  0.41800000000E+01 0.  1.
         -5    1    3    3    0  502  0.52223922698E-01 -0.62114915100E+02 -0.81623612145E+02  0.10265550090E+03  0.41800000000E+01 0.  1.
        -11    1    4    4    0    0 -0.32572896439E+02  0.17498111268E+02  0.18885306844E+02  0.41519059418E+02  0.00000000000E+00 0.  1.
         11    1    4    4    0    0  0.54090891128E+02  0.24663280332E+02 -0.66962019827E+01  0.59824251109E+02  0.00000000000E+00 0. -1.
</event>
<event>
 8    1  0.6834011E-009  0.1461095E+03  0.7561462E-02  0.1205337E+00
         -2   -1    0    0    0  501 -0.00000000000E+00  0.00000000000E+00  0.14947701541E+03  0.14947701541E+03  0.00000000000E+00 0. -1.
          2   -1    0    0  501    0  0.00000000000E+00 -0.00000000000E+00 -0.21489732293E+03  0.21489732293E+03  0.00000000000E+00 0.  1.
         25    2    1    2    0    0  0.12346104710E+03 -0.70532155118E+02 -0.39138810172E+02  0.19338191631E+03  0.12508918434E+03 0.  0.
         23    2    1    2    0    0 -0.12346104710E+03  0.70532155118E+02 -0.26281497353E+02  0.17099242203E+03  0.91270346947E+02 0.  0.
          5    1    3    3  502    0  0.92021582382E+02 -0.51569701873E+02  0.34440200230E+02  0.11104506098E+03  0.41800000000E+01 0. -1.
         -5    1    3    3    0  502  0.31439464715E+02 -0.18962453245E+02 -0.73579010402E+02  0.82336855334E+02  0.41800000000E+01 0. -1.
        -11    1    4    4    0    0 -0.88136814852E+02  0.72778846690E+02 -0.53634266915E+02  0.12625962635E+03  0.00000000000E+00 0.  1.
         11    1    4    4    0    0 -0.35324232245E+02 -0.22466915719E+01  0.27352769562E+02  0.44732795680E+02  0.00000000000E+00 0. -1.
</event>
<event>
 8    1  0.6834011E-009  0.9342825E+02  0.7561462E-02  0.1294756E+00
         -1   -1    0    0    0  501 -0.00000000000E+00  0.00000000000E+00  0.27847951739E+02  0.27847951739E+02  0.00000000000E+00 0. -1.
          1   -1    0    0  501    0  0.00000000000E+00 -0.00000000000E+00 -0.66259168687E+03  0.66259168687E+03  0.00000000000E+00 0.  1.
         25    2    1    2    0    0  0.47905601242E+02 -0.50747749627E+02 -0.45680907527E+03  0.47874075524E+03  0.12509156146E+03 0.  0.
         23    2    1    2    0    0 -0.47905601242E+02  0.50747749627E+02 -0.17793465986E+03  0.21169888338E+03  0.91024135925E+02 0.  0.
          5    1    3    3  502    0  0.57956746774E+02 -0.41786154447E+02 -0.45893419280E+03  0.46448157436E+03  0.41800000000E+01 0.  1.
         -5    1    3    3    0  502 -0.10051145532E+02 -0.89615951802E+01  0.21251175270E+01  0.14259180874E+02  0.41800000000E+01 0.  1.
        -11    1    4    4    0    0 -0.41318883589E+02 -0.79852771378E+01 -0.12661623080E+03  0.13342670158E+03  0.00000000000E+00 0. -1.
         11    1    4    4    0    0 -0.65867176525E+01  0.58733026765E+02 -0.51318429061E+02  0.78272181799E+02  0.00000000000E+00 0.  1.
</event>
<event>
 8    1  0.6834011E-009  0.1662113E+03  0.7561462E-02  0.1181857E+00
         -1   -1    0    0    0  501 -0.00000000000E+00  0.00000000000E+00  0.15009211987E+03  0.15009211987E+03  0.00000000000E+00 0.  1.
          1   -1    0    0  501    0  0.00000000000E+00 -0.00000000000E+00 -0.20755535610E+03  0.20755535610E+03  0.00000000000E+00 0. -1.
         25    2    1    2    0    0  0.22520501602E+02  0.13304499110E+03 -0.21190481752E+02  0.18521610386E+03  0.12509127053E+03 0.  0.
         23    2    1    2    0    0 -0.22520501602E+02 -0.13304499110E+03 -0.36272754481E+02  0.17243137211E+03  0.10103822406E+03 0.  0.
          5    1    3    3  502    0 -0.24941152436E+02 -0.85167036603E+01  0.16233432815E+02  0.31234469213E+02  0.41800000000E+01 0. -1.
         -5    1    3    3    0  502  0.47461654039E+02  0.14156169476E+03 -0.37423914567E+02  0.15398163464E+03  0.41800000000E+01 0. -1.
        -11    1    4    4    0    0  0.29116923070E+02 -0.62494998732E+02 -0.48299086354E+02  0.84179699561E+02  0.00000000000E+00 0.  1.
         11    1    4    4    0    0 -0.51637424673E+02 -0.70549992364E+02  0.12026331873E+02  0.88251672549E+02  0.00000000000E+00 0. -1.
</event>
<event>
 8    1  0.6834011E-009  0.1480576E+03  0.7561462E-02  0.1202880E+00
          2   -1    0    0  501    0  0.00000000000E+00  0.00000000000E+00  0.13312737765E+04  0.13312737765E+04  0.00000000000E+00 0. -1.
         -2   -1    0    0    0  501 -0.00000000000E+00 -0.00000000000E+00 -0.17718656774E+02  0.17718656774E+02  0.00000000000E+00 0.  1.
         25    2    1    2    0    0  0.19330936831E+02 -0.10042198850E+03  0.85116095055E+03  0.86636086293E+03  0.12509164714E+03 0.  0.
         23    2    1    2    0    0 -0.19330936831E+02  0.10042198850E+03  0.46239416920E+03  0.48263157037E+03  0.93094597650E+02 0.  0.
          5    1    3    3  502    0 -0.50829103132E+02 -0.52414605259E+02  0.30746445773E+03  0.31604232903E+03  0.41800000000E+01 0. -1.
         -5    1    3    3    0  502  0.70160039962E+02 -0.48007383246E+02  0.54369649281E+03  0.55031853390E+03  0.41800000000E+01 0. -1.
        -11    1    4    4    0    0 -0.44726299552E+02  0.12628714653E+02  0.17421881416E+03  0.18031117967E+03  0.00000000000E+00 0. -1.
         11    1    4    4    0    0  0.25395362721E+02  0.87793273852E+02  0.28817535504E+03  0.30232039070E+03  0.00000000000E+00 0.  1.
</event>
<event>
 8    1  0.6834011E-009  0.1238905E+03  0.7561462E-02  0.1236813E+00
         -1   -1    0    0    0  501 -0.00000000000E+00  0.00000000000E+00  0.58197155527E+02  0.58197155527E+02  0.00000000000E+00 0.  1.
          1   -1    0    0  501    0  0.00000000000E+00 -0.00000000000E+00 -0.34299975455E+03  0.34299975455E+03  0.00000000000E+00 0. -1.
         25    2    1    2    0    0  0.43020863136E+02 -0.76130484662E+02 -0.18806658226E+03  0.24221102127E+03  0.12510193484E+03 0.  0.
         23    2    1    2    0    0 -0.43020863136E+02  0.76130484662E+02 -0.96736016764E+02  0.15898588881E+03  0.90950593960E+02 0.  0.
          5    1    3    3  502    0  0.67390001304E+02 -0.71410090375E+02 -0.19298118807E+03  0.21656413515E+03  0.41800000000E+01 0. -1.
         -5    1    3    3    0  502 -0.24369138168E+02 -0.47203942870E+01  0.49146058126E+01  0.25646886118E+02  0.41800000000E+01 0. -1.
        -11    1    4    4    0    0 -0.10142934389E+02 -0.20168852142E+02 -0.28975504656E+02  0.36732023968E+02  0.00000000000E+00 0. -1.
         11    1    4    4    0    0 -0.32877928747E+02  0.96299336805E+02 -0.67760512108E+02  0.12225386484E+03  0.00000000000E+00 0.  1.
</event>
<event>
 8    1  0.6834011E-009  0.1268153E+03  0.7561462E-02  0.1232259E+00
          1   -1    0    0  501    0  0.00000000000E+00  0.00000000000E+00  0.60010392345E+03  0.60010392345E+03  0.00000000000E+00 0. -1.
         -1   -1    0    0    0  501 -0.00000000000E+00 -0.00000000000E+00 -0.36772417565E+02  0.36772417565E+02  0.00000000000E+00 0.  1.
         25    2    1    2    0    0 -0.85352566847E+02 -0.42629732380E+02  0.24618204534E+03  0.29215636436E+03  0.12508951610E+03 0.  0.
         23    2    1    2    0    0  0.85352566847E+02  0.42629732380E+02  0.31714946055E+03  0.34471997666E+03  0.95633295628E+02 0.  0.
          5    1    3    3  502    0 -0.68526826084E+02 -0.80384965088E+02  0.12315128715E+03  0.16230027860E+03  0.41800000000E+01 0.  1.
         -5    1    3    3    0  502 -0.16825740763E+02  0.37755232708E+02  0.12303075819E+03  0.12985608576E+03  0.41800000000E+01 0.  1.
        -11    1    4    4    0    0  0.15863115530E+02  0.32478574844E+02  0.24267717924E+02  0.43536403061E+02  0.00000000000E+00 0.  1.
         11    1    4    4    0    0  0.69489451318E+02  0.10151157536E+02  0.29288174262E+03  0.30118357360E+03  0.00000000000E+00 0. -1.
</event>
<event>
 8    1  0.6834011E-009  0.7146235E+02  0.7561462E-02  0.1355190E+00
          2   -1    0    0  501    0  0.00000000000E+00  0.00000000000E+00  0.51709458400E+02  0.51709458400E+02  0.00000000000E+00 0. -1.
         -2   -1    0    0    0  501 -0.00000000000E+00 -0.00000000000E+00 -0.30429312928E+03  0.30429312928E+03  0.00000000000E+00 0.  1.
         25    2    1    2    0    0  0.52799439492E+02  0.32866007195E+02 -0.14208866403E+03  0.19926167633E+03  0.12509225383E+03 0.  0.
         23    2    1    2    0    0 -0.52799439492E+02 -0.32866007195E+02 -0.11049500684E+03  0.15674091135E+03  0.92144514288E+02 0.  0.
          5    1    3    3  502    0 -0.63732734289E+01  0.13441223411E+02  0.20171474871E+02  0.25409563150E+02  0.41800000000E+01 0.  1.
         -5    1    3    3    0  502  0.59172712920E+02  0.19424783784E+02 -0.16226013891E+03  0.17385211318E+03  0.41800000000E+01 0.  1.
        -11    1    4    4    0    0 -0.15227556680E+02 -0.14146081084E+00  0.15209035604E+02  0.21522389682E+02  0.00000000000E+00 0. -1.
         11    1    4    4    0    0 -0.37571882811E+02 -0.32724546384E+02 -0.12570404245E+03  0.13521852167E+03  0.00000000000E+00 0.  1.
</event>
<event>
 8    1  0.6834011E-009  0.1468921E+03  0.7561462E-02  0.1204345E+00
          4   -1    0    0  501    0  0.00000000000E+00  0.00000000000E+00  0.11637227039E+03  0.11637227039E+03  0.00000000000E+00 0. -1.
         -4   -1    0    0    0  501 -0.00000000000E+00 -0.00000000000E+00 -0.24738664104E+03  0.24738664104E+03  0.00000000000E+00 0.  1.
         25    2    1    2    0    0  0.10492605658E+03  0.57429712311E+02 -0.16295234870E+02  0.17384082821E+03  0.12508976644E+03 0.  0.
         23    2    1    2    0    0 -0.10492605658E+03 -0.57429712311E+02 -0.11471913578E+03  0.18991808322E+03  0.92740223284E+02 0.  0.
          5    1    3    3  502    0  0.42056419388E+02 -0.31284837627E+02 -0.35365113028E+02  0.63369133627E+02  0.41800000000E+01 0. -1.
         -5    1    3    3    0  502  0.62869637192E+02  0.88714549937E+02  0.19069878159E+02  0.11047169458E+03  0.41800000000E+01 0. -1.
        -11    1    4    4    0    0 -0.91484231991E+02 -0.21430097780E+02 -0.32951827101E+02  0.99571264444E+02  0.00000000000E+00 0. -1.
         11    1    4    4    0    0 -0.13441824590E+02 -0.35999614531E+02 -0.81767308676E+02  0.90346818776E+02  0.00000000000E+00 0.  1.
</event>
<event>
 8    1  0.6834011E-009  0.9185927E+02  0.7561462E-02  0.1298411E+00
          1   -1    0    0  501    0  0.00000000000E+00  0.00000000000E+00  0.43897480228E+02  0.43897480228E+02  0.00000000000E+00 0. -1.
         -1   -1    0    0    0  501 -0.00000000000E+00 -0.00000000000E+00 -0.28047362287E+03  0.28047362287E+03  0.00000000000E+00 0.  1.
         25    2    1    2    0    0  0.17086778843E+02 -0.13354570442E+02 -0.11392369458E+03  0.17057808016E+03  0.12509184898E+03 0.  0.
         23    2    1    2    0    0 -0.17086778843E+02  0.13354570442E+02 -0.12265244807E+03  0.15379302294E+03  0.90212905534E+02 0.  0.
          5    1    3    3  502    0  0.65123045128E+02  0.15372085706E+02 -0.41111259366E+02  0.78644262806E+02  0.41800000000E+01 0. -1.
         -5    1    3    3    0  502 -0.48036266285E+02 -0.28726656148E+02 -0.72812435209E+02  0.91933817353E+02  0.41800000000E+01 0. -1.
        -11    1    4    4    0    0 -0.30785184823E+02 -0.10929489718E+02 -0.12157877939E+03  0.12589114722E+03  0.00000000000E+00 0.  1.
         11    1    4    4    0    0  0.13698405980E+02  0.24284060161E+02 -0.10736686772E+01  0.27901875720E+02  0.00000000000E+00 0. -1.
</event>
<event>
 8    1  0.6834011E-009  0.1622582E+03  0.7561462E-02  0.1186171E+00
         -2   -1    0    0    0  501 -0.00000000000E+00  0.00000000000E+00  0.42956351927E+02  0.42956351927E+02  0.00000000000E+00 0.  1.
          2   -1    0    0  501    0  0.00000000000E+00 -0.00000000000E+00 -0.81226215742E+03  0.81226215742E+03  0.00000000000E+00 0. -1.
         25    2    1    2    0    0 -0.26266551839E+02  0.14938737713E+03 -0.37924262369E+03  0.42717470784E+03  0.12508694257E+03 0.  0.
         23    2    1    2    0    0  0.26266551839E+02 -0.14938737713E+03 -0.39006318180E+03  0.42804380151E+03  0.89809186745E+02 0.  0.
          5    1    3    3  502    0 -0.10241056059E+01  0.85347947329E+02 -0.33385179846E+03  0.34461546199E+03  0.41800000000E+01 0.  1.
         -5    1    3    3    0  502 -0.25242446233E+02  0.64039429797E+02 -0.45390825236E+02  0.82559245855E+02  0.41800000000E+01 0.  1.
        -11    1    4    4    0    0  0.34902482319E+02 -0.19610270335E+02 -0.50636137079E+02  0.64550479107E+02  0.00000000000E+00 0. -1.
         11    1    4    4    0    0 -0.86359304808E+01 -0.12977710679E+03 -0.33942704472E+03  0.36349332240E+03  0.00000000000E+00 0.  1.
</event>
<event>
 8    1  0.6834011E-009  0.2047667E+03  0.7561462E-02  0.1145779E+00
          2   -1    0    0  501    0  0.00000000000E+00  0.00000000000E+00  0.23515356568E+04  0.23515356568E+04  0.00000000000E+00 0. -1.
         -2   -1    0    0    0  501 -0.00000000000E+00 -0.00000000000E+00 -0.19534513190E+02  0.19534513190E+02  0.00000000000E+00 0.  1.
         25    2    1    2    0    0 -0.15223936529E+03 -0.96150075847E+02  0.14398270835E+04  0.14564237690E+04  0.12508598182E+03 0.  0.
         23    2    1    2    0    0  0.15223936529E+03  0.96150075847E+02  0.89217406009E+03  0.91464640106E+03  0.90453435728E+02 0.  0.
          5    1    3    3  502    0  0.29398463003E+01 -0.53001334802E+02  0.50654765735E+03  0.50933857674E+03  0.41800000000E+01 0.  1.
         -5    1    3    3    0  502 -0.15517921159E+03 -0.43148741045E+02  0.93327942619E+03  0.94708519222E+03  0.41800000000E+01 0.  1.
        -11    1    4    4    0    0  0.62097776606E+02  0.83622236473E+02  0.58783188108E+03  0.59698838574E+03  0.00000000000E+00 0. -1.
         11    1    4    4    0    0  0.90141588688E+02  0.12527839374E+02  0.30434217901E+03  0.31765801532E+03  0.00000000000E+00 0.  1.
</event>
<event>
 8    1  0.6834011E-009  0.1014415E+03  0.7561462E-02  0.1277294E+00
          2   -1    0    0  501    0  0.00000000000E+00  0.00000000000E+00  0.19485023256E+03  0.19485023256E+03  0.00000000000E+00 0. -1.
         -2   -1    0    0    0  501 -0.00000000000E+00 -0.00000000000E+00 -0.12140952387E+03  0.12140952387E+03  0.00000000000E+00 0.  1.
         25    2    1    2    0    0  0.77122326180E+02  0.23896996083E+02 -0.33667495298E+02  0.15264199553E+03  0.12508860436E+03 0.  0.
         23    2    1    2    0    0 -0.77122326180E+02 -0.23896996083E+02  0.10710820399E+03  0.16361776091E+03  0.93699971746E+02 0.  0.
          5    1    3    3  502    0  0.10170005347E+02 -0.30644311001E+01 -0.70558483808E+02  0.71475812580E+02  0.41800000000E+01 0. -1.
         -5    1    3    3    0  502  0.66952320833E+02  0.26961427184E+02  0.36890988510E+02  0.81166182946E+02  0.41800000000E+01 0. -1.
        -11    1    4    4    0    0 -0.42617270238E+02  0.32129022581E+02  0.70165706662E+02  0.88157428535E+02  0.00000000000E+00 0. -1.
         11    1    4    4    0    0 -0.34505055942E+02 -0.56026018665E+02  0.36942497329E+02  0.75460332373E+02  0.00000000000E+00 0.  1.
</event>
<event>
 8    1  0.6834011E-009  0.1408744E+03  0.7561462E-02  0.1212157E+00
          2   -1    0    0  501    0  0.00000000000E+00  0.00000000000E+00  0.14353178011E+04  0.14353178011E+04  0.00000000000E+00 0. -1.
         -2   -1    0    0    0  501 -0.00000000000E+00 -0.00000000000E+00 -0.14723876455E+02  0.14723876455E+02  0.00000000000E+00 0.  1.
         25    2    1    2    0    0 -0.85030281061E+02  0.45530722634E+02  0.81805147454E+03  0.83316176137E+03  0.12508840956E+03 0.  0.
         23    2    1    2    0    0  0.85030281061E+02 -0.45530722634E+02  0.60254245010E+03  0.61687991618E+03  0.90444631772E+02 0.  0.
          5    1    3    3  502    0 -0.40211091669E+02 -0.42517157819E+02  0.27649467753E+03  0.28265070265E+03  0.41800000000E+01 0.  1.
         -5    1    3    3    0  502 -0.44819189392E+02  0.88047880453E+02  0.54155679701E+03  0.55051105872E+03  0.41800000000E+01 0.  1.
        -11    1    4    4    0    0  0.13408988655E+02  0.21993519910E+02  0.57300891406E+02  0.62824422406E+02  0.00000000000E+00 0.  1.
         11    1    4    4    0    0  0.71621292406E+02 -0.67524242543E+02  0.54524155869E+03  0.55405549378E+03  0.00000000000E+00 0. -1.
</event>
<event>
 8    1  0.6834011E-009  0.1458610E+03  0.7561462E-02  0.1205653E+00
         -1   -1    0    0    0  501 -0.00000000000E+00  0.00000000000E+00  0.28611818684E+02  0.28611818684E+02  0.00000000000E+00 0.  1.
          1   -1    0    0  501    0  0.00000000000E+00 -0.00000000000E+00 -0.93246163046E+03  0.93246163046E+03  0.00000000000E+00 0. -1.
         25    2    1    2    0    0  0.11188701859E+03  0.43633402909E+02 -0.48012178769E+03  0.51047772269E+03  0.12509194848E+03 0.  0.
         23    2    1    2    0    0 -0.11188701859E+03 -0.43633402909E+02 -0.42372802409E+03  0.45059572645E+03  0.95228627641E+02 0.  0.
          5    1    3    3  502    0  0.12198434874E+03  0.17851079631E+02 -0.25123704109E+03  0.27988634407E+03  0.41800000000E+01 0.  1.
         -5    1    3    3    0  502 -0.10097330149E+02  0.25782323278E+02 -0.22888474660E+03  0.23059137862E+03  0.41800000000E+01 0.  1.
        -11    1    4    4    0    0 -0.30124790420E+02 -0.49979972479E+02 -0.92525858396E+02  0.10939165927E+03  0.00000000000E+00 0.  1.
         11    1    4    4    0    0 -0.81762228168E+02  0.63465695700E+01 -0.33120216569E+03  0.34120406718E+03  0.00000000000E+00 0. -1.
</event>
<event>
 8    1  0.6834011E-009  0.1078023E+03  0.7561462E-02  0.1264695E+00
          2   -1    0    0  501    0  0.00000000000E+00  0.00000000000E+00  0.73986099033E+03  0.73986099033E+03  0.00000000000E+00 0. -1.
         -2   -1    0    0    0  501 -0.00000000000E+00 -0.00000000000E+00 -0.17285047000E+02  0.17285047000E+02  0.00000000000E+00 0.  1.
         25    2    1    2    0    0  0.34965104209E+02  0.24005208167E+01  0.43940653138E+03  0.45820746571E+03  0.12509061035E+03 0.  0.
         23    2    1    2    0    0 -0.34965104209E+02 -0.24005208167E+01  0.28316941194E+03  0.29893857162E+03  0.89168563564E+02 0.  0.
          5    1    3    3  502    0 -0.54447996327E+01  0.54726443299E+02  0.28342189594E+03  0.28873876245E+03  0.41800000000E+01 0. -1.
         -5    1    3    3    0  502  0.40409903842E+02 -0.52325922482E+02  0.15598463544E+03  0.16946870326E+03  0.41800000000E+01 0. -1.
        -11    1    4    4    0    0  0.13133784784E+02 -0.34138468303E+02  0.13757754335E+03  0.14235698702E+03  0.00000000000E+00 0.  1.
         11    1    4    4    0    0 -0.48098888993E+02  0.31737947486E+02  0.14559186860E+03  0.15658158460E+03  0.00000000000E+00 0. -1.
</event>
<event>
 8    1  0.6834011E-009  0.1277296E+03  0.7561462E-02  0.1230864E+00
          2   -1    0    0  501    0  0.00000000000E+00  0.00000000000E+00  0.16232304890E+03  0.16232304890E+03  0.00000000000E+00 0. -1.
         -2   -1    0    0    0  501 -0.00000000000E+00 -0.00000000000E+00 -0.18687912994E+03  0.18687912994E+03  0.00000000000E+00 0.  1.
         25    2    1    2    0    0  0.36748937702E+02 -0.94521081865E+02  0.78379991566E+02  0.17909522288E+03  0.12508779493E+03 0.  0.
         23    2    1    2    0    0 -0.36748937702E+02  0.94521081865E+02 -0.10293607260E+03  0.17010695596E+03  0.89754231569E+02 0.  0.
          5    1    3    3  502    0  0.32053934963E+02 -0.11709642068E+03  0.29678894588E+02  0.12504933293E+03  0.41800000000E+01 0.  1.
         -5    1    3    3    0  502  0.46950027392E+01  0.22575338813E+02  0.48701096979E+02  0.54045889947E+02  0.41800000000E+01 0.  1.
        -11    1    4    4    0    0  0.52767951198E+01  0.46235602820E+02  0.26728543062E+01  0.46612441311E+02  0.00000000000E+00 0. -1.
         11    1    4    4    0    0 -0.42025732822E+02  0.48285479045E+02 -0.10560892691E+03  0.12349451465E+03  0.00000000000E+00 0.  1.
</event>
<event>
 8    1  0.6834011E-009  0.1027368E+03  0.7561462E-02  0.1274644E+00
         -3   -1    0    0    0  501 -0.00000000000E+00  0.00000000000E+00  0.56510292343E+02  0.56510292343E+02  0.00000000000E+00 0.  1.
          3   -1    0    0  501    0  0.00000000000E+00 -0.00000000000E+00 -0.21774224173E+03  0.21774224173E+03  0.00000000000E+00 0. -1.
         25    2    1    2    0    0 -0.12052559987E+01  0.12899070104E+02 -0.11420084722E+03  0.16987111894E+03  0.12508606993E+03 0.  0.
         23    2    1    2    0    0  0.12052559987E+01 -0.12899070104E+02 -0.47031102166E+02  0.10438141514E+03  0.92280640459E+02 0.  0.
          5    1    3    3  502    0  0.42773531421E+02  0.41548934810E+02 -0.22005068701E+02  0.63699171287E+02  0.41800000000E+01 0.  1.
         -5    1    3    3    0  502 -0.43978787420E+02 -0.28649864706E+02 -0.92195778522E+02  0.10617194765E+03  0.41800000000E+01 0.  1.
        -11    1    4    4    0    0 -0.45400124797E+02 -0.89123739132E+01 -0.26281296575E+02  0.53210039372E+02  0.00000000000E+00 0.  1.
         11    1    4    4    0    0  0.46605380796E+02 -0.39866961909E+01 -0.20749805591E+02  0.51171375765E+02  0.00000000000E+00 0. -1.
</event>
<event>
 8    1  0.6834011E-009  0.1086415E+03  0.7561462E-02  0.1263107E+00
         -4   -1    0    0    0  501 -0.00000000000E+00  0.00000000000E+00  0.24059459342E+03  0.24059459342E+03  0.00000000000E+00 0.  1.
          4   -1    0    0  501    0  0.00000000000E+00 -0.00000000000E+00 -0.10886417166E+03  0.10886417166E+03  0.00000000000E+00 0. -1.
         25    2    1    2    0    0  0.77860392240E+02 -0.11017557671E+02 -0.27721175948E+02  0.15033050707E+03  0.12508865058E+03 0.  0.
         23    2    1    2    0    0 -0.77860392240E+02  0.11017557671E+02  0.15945159772E+03  0.19912825801E+03  0.89686252383E+02 0.  0.
          5    1    3    3  502    0  0.22530404705E+02  0.43358396274E+02 -0.49465686653E+02  0.69655554120E+02  0.41800000000E+01 0.  1.
         -5    1    3    3    0  502  0.55329987535E+02 -0.54375953946E+02  0.21744510705E+02  0.80674952953E+02  0.41800000000E+01 0.  1.
        -11    1    4    4    0    0 -0.24625533399E+02  0.25431982751E+02  0.57926375020E+01  0.35871399346E+02  0.00000000000E+00 0. -1.
         11    1    4    4    0    0 -0.53234858841E+02 -0.14414425080E+02  0.15365896021E+03  0.16325685866E+03  0.00000000000E+00 0.  1.
</event>
<event>
 8    1  0.6834011E-009  0.8276577E+02  0.7561462E-02  0.1321381E+00
          1   -1    0    0  501    0  0.00000000000E+00  0.00000000000E+00  0.65886968145E+03  0.65886968145E+03  0.00000000000E+00 0. -1.
         -1   -1    0    0    0  501 -0.00000000000E+00 -0.00000000000E+00 -0.27083834027E+02  0.27083834027E+02  0.00000000000E+00 0.  1.
         25    2    1    2    0    0 -0.68301495846E+02 -0.27363670440E+02  0.41286675358E+03  0.43763083453E+03  0.12509167166E+03 0.  0.
         23    2    1    2    0    0  0.68301495846E+02  0.27363670440E+02  0.21891909384E+03  0.24832268095E+03  0.91239900436E+02 0.  0.
          5    1    3    3  502    0 -0.30492785943E+01 -0.13692186709E+01 -0.87096675140E+01  0.10222698661E+02  0.41800000000E+01 0. -1.
         -5    1    3    3    0  502 -0.65252217252E+02 -0.25994451769E+02  0.42157642110E+03  0.42740813586E+03  0.41800000000E+01 0. -1.
        -11    1    4    4    0    0  0.71800534326E+02  0.10465561469E+02  0.21937173481E+03  0.23106017126E+03  0.00000000000E+00 0. -1.
         11    1    4    4    0    0 -0.34990384792E+01  0.16898108971E+02 -0.45264097221E+00  0.17262509694E+02  0.00000000000E+00 0.  1.
</event>
<event>
 8    1  0.6834011E-009  0.1035127E+03  0.7561462E-02  0.1273078E+00
         -1   -1    0    0    0  501 -0.00000000000E+00  0.00000000000E+00  0.73452771284E+02  0.73452771284E+02  0.00000000000E+00 0.  1.
          1   -1    0    0  501    0  0.00000000000E+00 -0.00000000000E+00 -0.28579928916E+03  0.28579928916E+03  0.00000000000E+00 0. -1.
         25    2    1    2    0    0  0.12773050945E+02 -0.80150073214E+02 -0.57403029416E+02  0.15978479763E+03  0.12509551831E+03 0.  0.
         23    2    1    2    0    0 -0.12773050945E+02  0.80150073214E+02 -0.15494348846E+03  0.19946726282E+03  0.95877626445E+02 0.  0.
          5    1    3    3  502    0 -0.34684613180E+02 -0.41988104496E+02  0.22635614618E+02  0.59125855256E+02  0.41800000000E+01 0.  1.
         -5    1    3    3    0  502  0.47457664125E+02 -0.38161968718E+02 -0.80038644034E+02  0.10065894237E+03  0.41800000000E+01 0.  1.
        -11    1    4    4    0    0  0.15385279302E+02  0.33669545003E+02 -0.13749380066E+03  0.14238992345E+03  0.00000000000E+00 0. -1.
         11    1    4    4    0    0 -0.28158330247E+02  0.46480528211E+02 -0.17449687802E+02  0.57077339369E+02  0.00000000000E+00 0.  1.
</event>
<event>
 8    1  0.6834011E-009  0.6588088E+02  0.7561462E-02  0.1374688E+00
         -2   -1    0    0    0  501 -0.00000000000E+00  0.00000000000E+00  0.79767250418E+03  0.79767250418E+03  0.00000000000E+00 0. -1.
          2   -1    0    0  501    0  0.00000000000E+00 -0.00000000000E+00 -0.17884764719E+02  0.17884764719E+02  0.00000000000E+00 0.  1.
         25    2    1    2    0    0  0.22096407041E+02  0.33653264844E+01  0.59915174183E+03  0.61247665061E+03  0.12508101846E+03 0.  0.
         23    2    1    2    0    0 -0.22096407041E+02 -0.33653264844E+01  0.18063599764E+03  0.20308061829E+03  0.90071067819E+02 0.  0.
          5    1    3    3  502    0  0.40837352618E-01 -0.12200792836E+02  0.57743514534E+03  0.57757915517E+03  0.41800000000E+01 0. -1.
         -5    1    3    3    0  502  0.22055569688E+02  0.15566119321E+02  0.21716596493E+02  0.34897495444E+02  0.41800000000E+01 0. -1.
        -11    1    4    4    0    0  0.26837127786E+02 -0.26238154289E+02  0.58113629826E+02  0.69179954755E+02  0.00000000000E+00 0.  1.
         11    1    4    4    0    0 -0.48933534827E+02  0.22872827805E+02  0.12252236781E+03  0.13390066354E+03  0.00000000000E+00 0. -1.
</event>
<event>
 8    1  0.6834011E-009  0.1020962E+03  0.7561462E-02  0.1275949E+00
          2   -1    0    0  501    0  0.00000000000E+00  0.00000000000E+00  0.88636948121E+02  0.88636948121E+02  0.00000000000E+00 0. -1.
         -2   -1    0    0    0  501 -0.00000000000E+00 -0.00000000000E+00 -0.23809897330E+03  0.23809897330E+03  0.00000000000E+00 0.  1.
         25    2    1    2    0    0 -0.31956157161E+02  0.69822849712E+02 -0.14703593135E+03  0.20775893368E+03  0.12509109918E+03 0.  0.
         23    2    1    2    0    0  0.31956157161E+02 -0.69822849712E+02 -0.24260938295E+01  0.11897698774E+03  0.90847186850E+02 0.  0.
          5    1    3    3  502    0 -0.37459808600E+02  0.30114100301E+01 -0.13413568648E+03  0.13936341212E+03  0.41800000000E+01 0.  1.
         -5    1    3    3    0  502  0.55036514393E+01  0.66811439682E+02 -0.12900244872E+02  0.68395521559E+02  0.41800000000E+01 0.  1.
        -11    1    4    4    0    0  0.47214717952E+02 -0.28470418441E+02 -0.33984186557E+02  0.64766652325E+02  0.00000000000E+00 0.  1.
         11    1    4    4    0    0 -0.15258560791E+02 -0.41352431271E+02  0.31558092727E+02  0.54210335417E+02  0.00000000000E+00 0. -1.
</event>
<event>
 8    1  0.6834011E-009  0.1077111E+03  0.7561462E-02  0.1264868E+00
          2   -1    0    0  501    0  0.00000000000E+00  0.00000000000E+00  0.10545083478E+03  0.10545083478E+03  0.00000000000E+00 0. -1.
         -2   -1    0    0    0  501 -0.00000000000E+00 -0.00000000000E+00 -0.17845237576E+03  0.17845237576E+03  0.00000000000E+00 0.  1.
         25    2    1    2    0    0  0.47692313216E+02  0.69549028742E+02 -0.46286438553E+02  0.15780332861E+03  0.12509129461E+03 0.  0.
         23    2    1    2    0    0 -0.47692313216E+02 -0.69549028742E+02 -0.26715102428E+02  0.12609988192E+03  0.89865785392E+02 0.  0.
          5    1    3    3  502    0  0.64116014406E+02  0.13471490867E+02 -0.68751688749E+02  0.95061093384E+02  0.41800000000E+01 0. -1.
         -5    1    3    3    0  502 -0.16423701190E+02  0.56077537876E+02  0.22465250197E+02  0.62742235228E+02  0.41800000000E+01 0. -1.
        -11    1    4    4    0    0 -0.26984195799E+02 -0.64439613181E+02 -0.56233614171E+02  0.89681826100E+02  0.00000000000E+00 0.  1.
         11    1    4    4    0    0 -0.20708117417E+02 -0.51094155611E+01  0.29518511743E+02  0.36418055822E+02  0.00000000000E+00 0. -1.
</event>
<event>
 8    1  0.6834011E-009  0.8930360E+02  0.7561462E-02  0.1304547E+00
          2   -1    0    0  501    0  0.00000000000E+00  0.00000000000E+00  0.79684740532E+02  0.79684740532E+02  0.00000000000E+00 0. -1.
         -2   -1    0    0    0  501 -0.00000000000E+00 -0.00000000000E+00 -0.22052572301E+03  0.22052572301E+03  0.00000000000E+00 0.  1.
         25    2    1    2    0    0  0.10446451992E+02 -0.67032310905E+02 -0.41879278270E+02  0.14833278640E+03  0.12508510107E+03 0.  0.
         23    2    1    2    0    0 -0.10446451992E+02  0.67032310905E+02 -0.98961704208E+02  0.15187767714E+03  0.93117940530E+02 0.  0.
          5    1    3    3  502    0 -0.23390295809E+02 -0.54102498603E+02 -0.77433670543E+02  0.97404476421E+02  0.41800000000E+01 0. -1.
         -5    1    3    3    0  502  0.33836747801E+02 -0.12929812302E+02  0.35554392272E+02  0.50928309983E+02  0.41800000000E+01 0. -1.
        -11    1    4    4    0    0  0.15999246944E+02  0.47653729134E+02 -0.10691366070E+03  0.11814137568E+03  0.00000000000E+00 0.  1.
         11    1    4    4    0    0 -0.26445698937E+02  0.19378581771E+02  0.79519564963E+01  0.33736301455E+02  0.00000000000E+00 0. -1.
</event>
<event>
 8    1  0.6834011E-009  0.1675716E+03  0.7561462E-02  0.1180404E+00
         -2   -1    0    0    0  501 -0.00000000000E+00  0.00000000000E+00  0.35004206559E+02  0.35004206559E+02  0.00000000000E+00 0.  1.
          2   -1    0    0  501    0  0.00000000000E+00 -0.00000000000E+00 -0.10404521301E+04  0.10404521301E+04  0.00000000000E+00 0. -1.
         25    2    1    2    0    0 -0.14610002371E+03 -0.17449614087E+02 -0.68444943072E+03  0.71117298719E+03  0.12508512518E+03 0.  0.
         23    2    1    2    0    0  0.14610002371E+03  0.17449614087E+02 -0.32099849287E+03  0.36428334951E+03  0.89513241188E+02 0.  0.
          5    1    3    3  502    0 -0.12620823941E+03  0.35511602702E+02 -0.39483102317E+03  0.41605120223E+03  0.41800000000E+01 0. -1.
         -5    1    3    3    0  502 -0.19891784298E+02 -0.52961216789E+02 -0.28961840755E+03  0.29512178496E+03  0.41800000000E+01 0. -1.
        -11    1    4    4    0    0  0.96702003654E+02  0.14147304500E+02 -0.28962862660E+03  0.30567329795E+03  0.00000000000E+00 0. -1.
         11    1    4    4    0    0  0.49398020058E+02  0.33023095870E+01 -0.31369866272E+02  0.58610051563E+02  0.00000000000E+00 0.  1.
</event>
<event>
 8    1  0.6834011E-009  0.1067380E+03  0.7561462E-02  0.1266733E+00
          1   -1    0    0  501    0  0.00000000000E+00  0.00000000000E+00  0.17987710015E+03  0.17987710015E+03  0.00000000000E+00 0. -1.
         -1   -1    0    0    0  501 -0.00000000000E+00 -0.00000000000E+00 -0.13258147649E+03  0.13258147649E+03  0.00000000000E+00 0.  1.
         25    2    1    2    0    0 -0.43688248355E+02 -0.84801550392E+02  0.79611006233E+02  0.17631344258E+03  0.12509417144E+03 0.  0.
         23    2    1    2    0    0  0.43688248355E+02  0.84801550392E+02 -0.32315382576E+02  0.13614513406E+03  0.91603753110E+02 0.  0.
          5    1    3    3  502    0 -0.26335954941E+01 -0.29039285783E+02 -0.32884452785E+02  0.44148336084E+02  0.41800000000E+01 0. -1.
         -5    1    3    3    0  502 -0.41054652861E+02 -0.55762264610E+02  0.11249545902E+03  0.13216510650E+03  0.41800000000E+01 0. -1.
        -11    1    4    4    0    0  0.46587408510E+01  0.74006756608E+02 -0.52540825551E+02  0.90880373236E+02  0.00000000000E+00 0.  1.
         11    1    4    4    0    0  0.39029507504E+02  0.10794793784E+02  0.20225442975E+02  0.45264760823E+02  0.00000000000E+00 0. -1.
</event>
<event>
 8    1  0.6834011E-009  0.7759263E+02  0.7561462E-02  0.1336025E+00
         -2   -1    0    0    0  501 -0.00000000000E+00  0.00000000000E+00  0.33403773099E+02  0.33403773099E+02  0.00000000000E+00 0.  1.
          2   -1    0    0  501    0  0.00000000000E+00 -0.00000000000E+00 -0.43837354885E+03  0.43837354885E+03  0.00000000000E+00 0. -1.
         25    2    1    2    0    0 -0.87190558623E+01  0.37571198029E+02 -0.15532025062E+03  0.20312069409E+03  0.12508404877E+03 0.  0.
         23    2    1    2    0    0  0.87190558623E+01 -0.37571198029E+02 -0.24964952513E+03  0.26865662787E+03  0.91454258735E+02 0.  0.
          5    1    3    3  502    0  0.21264599033E+02  0.37191389163E+01  0.15151677551E+02  0.26703200163E+02  0.41800000000E+01 0. -1.
         -5    1    3    3    0  502 -0.29983654895E+02  0.33852059113E+02 -0.17047192818E+03  0.17641749393E+03  0.41800000000E+01 0. -1.
        -11    1    4    4    0    0  0.26315129606E+02 -0.56262182923E+02 -0.22366960931E+03  0.23213361110E+03  0.00000000000E+00 0. -1.
         11    1    4    4    0    0 -0.17596073744E+02  0.18690984893E+02 -0.25979915820E+02  0.36523016764E+02  0.00000000000E+00 0.  1.
</event>
<event>
 8    1  0.6834011E-009  0.1243607E+03  0.7561462E-02  0.1236072E+00
          2   -1    0    0  501    0  0.00000000000E+00  0.00000000000E+00  0.73546618724E+02  0.73546618724E+02  0.00000000000E+00 0. -1.
         -2   -1    0    0    0  501 -0.00000000000E+00 -0.00000000000E+00 -0.27065629010E+03  0.27065629010E+03  0.00000000000E+00 0.  1.
         25    2    1    2    0    0 -0.65215110843E+01  0.90322974924E+02 -0.97685789942E+02  0.18273365385E+03  0.12509318441E+03 0.  0.
         23    2    1    2    0    0  0.65215110843E+01 -0.90322974924E+02 -0.99423881433E+02  0.16146925498E+03  0.89366896544E+02 0.  0.
          5    1    3    3  502    0 -0.46894236331E+02 -0.67235570618E+01 -0.18339581437E+02  0.50971445613E+02  0.41800000000E+01 0.  1.
         -5    1    3    3    0  502  0.40372725246E+02  0.97046531986E+02 -0.79346208506E+02  0.13176220823E+03  0.41800000000E+01 0.  1.
        -11    1    4    4    0    0  0.19459135145E+02 -0.56588049434E+02 -0.46253429533E+01  0.60018822687E+02  0.00000000000E+00 0. -1.
         11    1    4    4    0    0 -0.12937624060E+02 -0.33734925490E+02 -0.94798538479E+02  0.10145043229E+03  0.00000000000E+00 0.  1.
</event>
<event>
 8    1  0.6834011E-009  0.8141840E+02  0.7561462E-02  0.1325074E+00
         -1   -1    0    0    0  501 -0.00000000000E+00  0.00000000000E+00  0.10052830293E+03  0.10052830293E+03  0.00000000000E+00 0.  1.
          1   -1    0    0  501    0  0.00000000000E+00 -0.00000000000E+00 -0.14299930348E+03  0.14299930348E+03  0.00000000000E+00 0. -1.
         25    2    1    2    0    0 -0.18720207751E+02 -0.35471319702E+02 -0.56368932159E+02  0.14294562499E+03  0.12508930607E+03 0.  0.
         23    2    1    2    0    0  0.18720207751E+02  0.35471319702E+02  0.13897931601E+02  0.10058198142E+03  0.91186192942E+02 0.  0.
          5    1    3    3  502    0 -0.34603922976E+02 -0.31425619693E+02  0.29496232117E+02  0.55430146740E+02  0.41800000000E+01 0.  1.
         -5    1    3    3    0  502  0.15883715225E+02 -0.40457000081E+01 -0.85865164276E+02  0.87515478254E+02  0.41800000000E+01 0.  1.
        -11    1    4    4    0    0  0.12140008944E+02  0.66333348974E+02  0.14688865928E+02  0.69016344336E+02  0.00000000000E+00 0. -1.
         11    1    4    4    0    0  0.65801988064E+01 -0.30862029272E+02 -0.79093432750E+00  0.31565637080E+02  0.00000000000E+00 0.  1.
</event>
<event>
 8    1  0.6834011E-009  0.1778154E+03  0.7561462E-02  0.1169934E+00
          1   -1    0    0  501    0  0.00000000000E+00  0.00000000000E+00  0.12087570931E+04  0.12087570931E+04  0.00000000000E+00 0. -1.
         -1   -1    0    0    0  501 -0.00000000000E+00 -0.00000000000E+00 -0.32354229416E+02  0.32354229416E+02  0.00000000000E+00 0.  1.
         25    2    1    2    0    0  0.37775379425E+02  0.15947674388E+03  0.71311842350E+03  0.74232577906E+03  0.12509942123E+03 0.  0.
         23    2    1    2    0    0 -0.37775379425E+02 -0.15947674388E+03  0.46328444019E+03  0.49878554346E+03  0.85409219145E+02 0.  0.
          5    1    3    3  502    0 -0.12068244083E+02  0.13424837326E+03  0.35310880474E+03  0.37798355602E+03  0.41800000000E+01 0. -1.
         -5    1    3    3    0  502  0.49843623508E+02  0.25228370623E+02  0.36000961876E+03  0.36434222304E+03  0.41800000000E+01 0. -1.
        -11    1    4    4    0    0 -0.29806458935E+02 -0.89641428599E+02  0.37067397582E+03  0.38252216545E+03  0.00000000000E+00 0. -1.
         11    1    4    4    0    0 -0.79689204898E+01 -0.69835315283E+02  0.92610464368E+02  0.11626337800E+03  0.00000000000E+00 0.  1.
</event>
<event>
 8    1  0.6834011E-009  0.9746889E+02  0.7561462E-02  0.1285710E+00
         -2   -1    0    0    0  501 -0.00000000000E+00  0.00000000000E+00  0.28524415143E+02  0.28524415143E+02  0.00000000000E+00 0.  1.
          2   -1    0    0  501    0  0.00000000000E+00 -0.00000000000E+00 -0.70729950263E+03  0.70729950263E+03  0.00000000000E+00 0. -1.
         25    2    1    2    0    0  0.90789488020E+02 -0.11986448067E+02 -0.34554850849E+03  0.37873185134E+03  0.12509051693E+03 0.  0.
         23    2    1    2    0    0 -0.90789488020E+02  0.11986448067E+02 -0.33322657899E+03  0.35709206643E+03  0.89935448461E+02 0.  0.
          5    1    3    3  502    0  0.78260222151E+02 -0.11922196401E+02 -0.35418667090E+03  0.36294968161E+03  0.41800000000E+01 0.  1.
         -5    1    3    3    0  502  0.12529265869E+02 -0.64251665912E-01  0.86381624085E+01  0.15782169727E+02  0.41800000000E+01 0.  1.
        -11    1    4    4    0    0 -0.23851596944E+02  0.24683581539E+02 -0.27833576550E+02  0.44191468158E+02  0.00000000000E+00 0.  1.
         11    1    4    4    0    0 -0.66937891076E+02 -0.12697133471E+02 -0.30539300244E+03  0.31290059828E+03  0.00000000000E+00 0. -1.
</event>
<event>
 8    1  0.6834011E-009  0.9101861E+02  0.7561462E-02  0.1300404E+00
          4   -1    0    0  501    0  0.00000000000E+00  0.00000000000E+00  0.17735317812E+03  0.17735317812E+03  0.00000000000E+00 0.  1.
         -4   -1    0    0    0  501 -0.00000000000E+00 -0.00000000000E+00 -0.76663354141E+02  0.76663354141E+02  0.00000000000E+00 0. -1.
         25    2    1    2    0    0 -0.32971304228E+02  0.13923317707E+02  0.33279520248E+02  0.13429714480E+03  0.12508889221E+03 0.  0.
         23    2    1    2    0    0  0.32971304228E+02 -0.13923317707E+02  0.67410303731E+02  0.11971938747E+03  0.92236744346E+02 0.  0.
          5    1    3    3  502    0  0.30469604158E+02 -0.19010079852E+02  0.49092553304E+02  0.60969919661E+02  0.41800000000E+01 0.  1.
         -5    1    3    3    0  502 -0.63440908386E+02  0.32933397559E+02 -0.15813033056E+02  0.73327225135E+02  0.41800000000E+01 0.  1.
        -11    1    4    4    0    0  0.74319887827E+01 -0.38275749772E+02 -0.48613222660E+01  0.39292492057E+02  0.00000000000E+00 0. -1.
         11    1    4    4    0    0  0.25539315445E+02  0.24352432064E+02  0.72271625997E+02  0.80426895409E+02  0.00000000000E+00 0.  1.
</event>
<event>
 8    1  0.6834011E-009  0.1651259E+03  0.7561462E-02  0.1183028E+00
         -2   -1    0    0    0  501 -0.00000000000E+00  0.00000000000E+00  0.13249964004E+03  0.13249964004E+03  0.00000000000E+00 0. -1.
          2   -1    0    0  501    0  0.00000000000E+00 -0.00000000000E+00 -0.29678067148E+03  0.29678067148E+03  0.00000000000E+00 0.  1.
         25    2    1    2    0    0  0.74094345318E+02  0.13239445042E+03 -0.16042780518E+02  0.19728926519E+03  0.12508965122E+03 0.  0.
         23    2    1    2    0    0 -0.74094345318E+02 -0.13239445042E+03 -0.14823825092E+03  0.23199104634E+03  0.93952136938E+02 0.  0.
          5    1    3    3  502    0  0.15698152435E+02  0.10422969610E+03 -0.57577986970E+02  0.12017886055E+03  0.41800000000E+01 0.  1.
         -5    1    3    3    0  502  0.58396192883E+02  0.28164754317E+02  0.41535206452E+02  0.77110404641E+02  0.41800000000E+01 0.  1.
        -11    1    4    4    0    0 -0.34865288051E+02 -0.10826339873E+03 -0.14706967529E+03  0.18591944816E+03  0.00000000000E+00 0.  1.
         11    1    4    4    0    0 -0.39229057267E+02 -0.24131051690E+02 -0.11685756345E+01  0.46071598179E+02  0.00000000000E+00 0. -1.
</event>
<event>
 8    1  0.6834011E-009  0.1240738E+03  0.7561462E-02  0.1236524E+00
         -2   -1    0    0    0  501 -0.00000000000E+00  0.00000000000E+00  0.40068049977E+02  0.40068049977E+02  0.00000000000E+00 0.  1.
          2   -1    0    0  501    0  0.00000000000E+00 -0.00000000000E+00 -0.44171815247E+03  0.44171815247E+03  0.00000000000E+00 0. -1.
         25    2    1    2    0    0  0.84938024412E+01 -0.61789524075E+02 -0.14689204131E+03  0.20276499107E+03  0.12508509038E+03 0.  0.
         23    2    1    2    0    0 -0.84938024412E+01  0.61789524075E+02 -0.25475806118E+03  0.27902121138E+03  0.95189687985E+02 0.  0.
          5    1    3    3  502    0  0.13410441765E+02 -0.99365294502E+02 -0.11816333554E+03  0.15502692658E+03  0.41800000000E+01 0. -1.
         -5    1    3    3    0  502 -0.49166393239E+01  0.37575770427E+02 -0.28728705777E+02  0.47738064488E+02  0.41800000000E+01 0. -1.
        -11    1    4    4    0    0  0.67956826483E+01 -0.22757316437E+02 -0.91535381596E+02  0.94566393809E+02  0.00000000000E+00 0. -1.
         11    1    4    4    0    0 -0.15289485090E+02  0.84546840512E+02 -0.16322267958E+03  0.18445481757E+03  0.00000000000E+00 0.  1.
</event>
<event>
 8    1  0.6834011E-009  0.1498217E+03  0.7561462E-02  0.1200692E+00
          1   -1    0    0  501    0  0.00000000000E+00  0.00000000000E+00  0.96642110325E+03  0.96642110325E+03  0.00000000000E+00 0. -1.
         -1   -1    0    0    0  501 -0.00000000000E+00 -0.00000000000E+00 -0.25565567925E+02  0.25565567925E+02  0.00000000000E+00 0.  1.
         25    2    1    2    0    0  0.79015980978E+02 -0.74300122717E+02  0.39772094917E+03  0.43080708530E+03  0.12509499530E+03 0.  0.
         23    2    1    2    0    0 -0.79015980978E+02  0.74300122717E+02  0.54313458615E+03  0.56117958587E+03  0.90351067726E+02 0.  0.
          5    1    3    3  502    0  0.12408458333E+02 -0.89892034210E+02  0.28247292618E+03  0.29672036344E+03  0.41800000000E+01 0.  1.
         -5    1    3    3    0  502  0.66607522646E+02  0.15591911493E+02  0.11524802299E+03  0.13408672186E+03  0.41800000000E+01 0.  1.
        -11    1    4    4    0    0  0.13724317073E+02  0.38472029374E+02  0.18833799605E+03  0.19271651377E+03  0.00000000000E+00 0. -1.
         11    1    4    4    0    0 -0.92740298052E+02  0.35828093343E+02  0.35479659010E+03  0.36846307210E+03  0.00000000000E+00 0.  1.
</event>
<event>
 8    1  0.6834011E-009  0.9348277E+02  0.7561462E-02  0.1294630E+00
         -1   -1    0    0    0  501 -0.00000000000E+00  0.00000000000E+00  0.25585932489E+02  0.25585932489E+02  0.00000000000E+00 0.  1.
          1   -1    0    0  501    0  0.00000000000E+00 -0.00000000000E+00 -0.65547800415E+03  0.65547800415E+03  0.00000000000E+00 0. -1.
         25    2    1    2    0    0  0.34770017168E+02 -0.94728357997E+01 -0.51194301534E+03  0.52823470054E+03  0.12509020418E+03 0.  0.
         23    2    1    2    0    0 -0.34770017168E+02  0.94728357997E+01 -0.11794905632E+03  0.15282923611E+03  0.90255785463E+02 0.  0.
          5    1    3    3  502    0  0.52525785271E+02 -0.39763797278E+02 -0.14186492307E+03  0.15647123215E+03  0.41800000000E+01 0. -1.
         -5    1    3    3    0  502 -0.17755768104E+02  0.30290961478E+02 -0.37007809227E+03  0.37176346839E+03  0.41800000000E+01 0. -1.
        -11    1    4    4    0    0 -0.46792927177E+02 -0.22144321044E+02 -0.10413177345E+03  0.11629004786E+03  0.00000000000E+00 0. -1.
         11    1    4    4    0    0  0.12022910009E+02  0.31617156844E+02 -0.13817282869E+02  0.36539188249E+02  0.00000000000E+00 0.  1.
</event>
<event>
 8    1  0.6834011E-009  0.5518727E+02  0.7561462E-02  0.1419215E+00
         -2   -1    0    0    0  501 -0.00000000000E+00  0.00000000000E+00  0.48295380863E+02  0.48295380863E+02  0.00000000000E+00 0. -1.
          2   -1    0    0  501    0  0.00000000000E+00 -0.00000000000E+00 -0.25239568985E+03  0.25239568985E+03  0.00000000000E+00 0.  1.
         25    2    1    2    0    0 -0.82838843696E+01 -0.38289184340E+01 -0.14769640295E+03  0.19376632485E+03  0.12509147791E+03 0.  0.
         23    2    1    2    0    0  0.82838843696E+01  0.38289184340E+01 -0.56403906033E+02  0.10692474586E+03  0.90378190425E+02 0.  0.
          5    1    3    3  502    0  0.62061162927E+01 -0.22388629714E+02 -0.16343936181E+03  0.16513529002E+03  0.41800000000E+01 0. -1.
         -5    1    3    3    0  502 -0.14490000662E+02  0.18559711280E+02  0.15742958860E+02  0.28631034834E+02  0.41800000000E+01 0. -1.
        -11    1    4    4    0    0  0.30652946391E+02  0.18780242660E+02  0.82611246491E+01  0.36885590917E+02  0.00000000000E+00 0. -1.
         11    1    4    4    0    0 -0.22369062022E+02 -0.14951324225E+02 -0.64665030682E+02  0.70039154942E+02  0.00000000000E+00 0.  1.
</event>
<event>
 8    1  0.6834011E-009  0.8874220E+02  0.7561462E-02  0.1305927E+00
          1   -1    0    0  501    0  0.00000000000E+00  0.00000000000E+00  0.17096200354E+03  0.17096200354E+03  0.00000000000E+00 0. -1.
         -1   -1    0    0    0  501 -0.00000000000E+00 -0.00000000000E+00 -0.83901763775E+02  0.83901763775E+02  0.00000000000E+00 0.  1.
         25    2    1    2    0    0 -0.33611087341E+02  0.26674976203E+02  0.24482622965E+02  0.13449155712E+03  0.12508925038E+03 0.  0.
         23    2    1    2    0    0  0.33611087341E+02 -0.26674976203E+02  0.62577616798E+02  0.12037221019E+03  0.93446515798E+02 0.  0.
          5    1    3    3  502    0  0.17799169403E+02  0.67297870705E+01  0.63753911231E+02  0.66664338763E+02  0.41800000000E+01 0. -1.
         -5    1    3    3    0  502 -0.51410256745E+02  0.19945189133E+02 -0.39271288266E+02  0.67827218358E+02  0.41800000000E+01 0. -1.
        -11    1    4    4    0    0  0.10281083582E+02  0.35148314104E+02  0.25209093761E+02  0.44459004400E+02  0.00000000000E+00 0. -1.
         11    1    4    4    0    0  0.23330003759E+02 -0.61823290307E+02  0.37368523037E+02  0.75913205793E+02  0.00000000000E+00 0.  1.
</event>
<event>
 8    1  0.6834011E-009  0.1282254E+03  0.7561462E-02  0.1230113E+00
         -1   -1    0    0    0  501 -0.00000000000E+00  0.00000000000E+00  0.16461603042E+03  0.16461603042E+03  0.00000000000E+00 0.  1.
          1   -1    0    0  501    0  0.00000000000E+00 -0.00000000000E+00 -0.12124174358E+03  0.12124174358E+03  0.00000000000E+00 0. -1.
         25    2    1    2    0    0 -0.76067679826E+02 -0.37685842679E+02  0.52898615800E+02  0.16016180988E+03  0.12508807752E+03 0.  0.
         23    2    1    2    0    0  0.76067679826E+02  0.37685842679E+02 -0.95243289657E+01  0.12569596412E+03  0.92207634725E+02 0.  0.
          5    1    3    3  502    0  0.30923181526E+02 -0.23887603089E+02 -0.13896382292E+01  0.39322566440E+02  0.41800000000E+01 0.  1.
         -5    1    3    3    0  502 -0.10699086135E+03 -0.13798239590E+02  0.54288254030E+02  0.12083924344E+03  0.41800000000E+01 0.  1.
        -11    1    4    4    0    0  0.29590571575E+02 -0.19549782678E+02  0.25882412737E+02  0.43905526053E+02  0.00000000000E+00 0.  1.
         11    1    4    4    0    0  0.46477108250E+02  0.57235625357E+02 -0.35406741702E+02  0.81790438068E+02  0.00000000000E+00 0. -1.
</event>
<event>
 8    1  0.6834011E-009  0.1083722E+03  0.7561462E-02  0.1263614E+00
         -2   -1    0    0    0  501 -0.00000000000E+00  0.00000000000E+00  0.22709933778E+02  0.22709933778E+02  0.00000000000E+00 0.  1.
          2   -1    0    0  501    0  0.00000000000E+00 -0.00000000000E+00 -0.73681583269E+03  0.73681583269E+03  0.00000000000E+00 0. -1.
         25    2    1    2    0    0 -0.64250084502E+01 -0.68333263257E+02 -0.35918841005E+03  0.38649116445E+03  0.12509352774E+03 0.  0.
         23    2    1    2    0    0  0.64250084502E+01  0.68333263257E+02 -0.35491748886E+03  0.37303460202E+03  0.92074289587E+02 0.  0.
          5    1    3    3  502    0 -0.40504303146E+02  0.13448750551E+02 -0.55629849279E+02  0.70239732314E+02  0.41800000000E+01 0.  1.
         -5    1    3    3    0  502  0.34079294696E+02 -0.81782013808E+02 -0.30355856077E+03  0.31625143213E+03  0.41800000000E+01 0.  1.
        -11    1    4    4    0    0  0.16739306381E+02  0.72225759308E+02 -0.35432042195E+03  0.36199409677E+03  0.00000000000E+00 0. -1.
         11    1    4    4    0    0 -0.10314297931E+02 -0.38924960509E+01 -0.59706691447E+00  0.11040505252E+02  0.00000000000E+00 0.  1.
</event>
<event>
 8    1  0.6834011E-009  0.1312910E+03  0.7561462E-02  0.1225553E+00
         -2   -1    0    0    0  501 -0.00000000000E+00  0.00000000000E+00  0.13500634318E+02  0.13500634318E+02  0.00000000000E+00 0.  1.
          2   -1    0    0  501    0  0.00000000000E+00 -0.00000000000E+00 -0.19871038651E+04  0.19871038651E+04  0.00000000000E+00 0. -1.
         25    2    1    2    0    0 -0.99355355804E+02  0.25849190364E+01 -0.14915513696E+04  0.15000836583E+04  0.12508926933E+03 0.  0.
         23    2    1    2    0    0  0.99355355804E+02 -0.25849190364E+01 -0.48205186124E+03  0.50052084114E+03  0.90933750409E+02 0.  0.
          5    1    3    3  502    0  0.47701622175E+01  0.35555938006E+02 -0.15868849505E+03  0.16274670515E+03  0.41800000000E+01 0.  1.
         -5    1    3    3    0  502 -0.10412551802E+03 -0.32971018970E+02 -0.13328628745E+04  0.13373369532E+04  0.41800000000E+01 0.  1.
        -11    1    4    4    0    0 -0.36970121430E+01  0.12480078287E+02 -0.82567317745E+01  0.15414080331E+02  0.00000000000E+00 0.  1.
         11    1    4    4    0    0  0.10305236795E+03 -0.15064997324E+02 -0.47379512946E+03  0.48510676081E+03  0.00000000000E+00 0. -1.
</event>
<event>
 8    1  0.6834011E-009  0.1863709E+03  0.7561462E-02  0.1161776E+00
          2   -1    0    0  501    0  0.00000000000E+00  0.00000000000E+00  0.20666698332E+03  0.20666698332E+03  0.00000000000E+00 0. -1.
         -2   -1    0    0    0  501 -0.00000000000E+00 -0.00000000000E+00 -0.20419476343E+03  0.20419476343E+03  0.00000000000E+00 0.  1.
         25    2    1    2    0    0  0.81514308933E+02 -0.15354231111E+03 -0.67705294411E+00  0.21415696112E+03  0.12507166638E+03 0.  0.
         23    2    1    2    0    0 -0.81514308933E+02  0.15354231111E+03  0.31492728434E+01  0.19670478563E+03  0.91994733044E+02 0.  0.
          5    1    3    3  502    0  0.86158003287E+02 -0.79726724700E+02  0.46500753056E+02  0.12633029960E+03  0.41800000000E+01 0. -1.
         -5    1    3    3    0  502 -0.46436943543E+01 -0.73815586413E+02 -0.47177806000E+02  0.87826661520E+02  0.41800000000E+01 0. -1.
        -11    1    4    4    0    0 -0.69157197873E+02  0.76303131030E+02  0.39696962660E+02  0.11036636565E+03  0.00000000000E+00 0. -1.
         11    1    4    4    0    0 -0.12357111060E+02  0.77239180083E+02 -0.36547689817E+02  0.86338419980E+02  0.00000000000E+00 0.  1.
</event>
<event>
 8    1  0.6834011E-009  0.1200900E+03  0.7561462E-02  0.1242949E+00
          1   -1    0    0  501    0  0.00000000000E+00  0.00000000000E+00  0.47898694624E+03  0.47898694624E+03  0.00000000000E+00 0. -1.
         -1   -1    0    0    0  501 -0.00000000000E+00 -0.00000000000E+00 -0.38935286287E+02  0.38935286287E+02  0.00000000000E+00 0.  1.
         25    2    1    2    0    0  0.72207775083E+02 -0.39389436535E+02  0.26945202764E+03  0.30824900397E+03  0.12509021846E+03 0.  0.
         23    2    1    2    0    0 -0.72207775083E+02  0.39389436535E+02  0.17059963231E+03  0.20967322855E+03  0.89961868234E+02 0.  0.
          5    1    3    3  502    0  0.33225316298E+02  0.37109545897E+02  0.16798985712E+03  0.17526866387E+03  0.41800000000E+01 0. -1.
         -5    1    3    3    0  502  0.38982458786E+02 -0.76498982431E+02  0.10146217053E+03  0.13298034010E+03  0.41800000000E+01 0. -1.
        -11    1    4    4    0    0  0.87368155451E+01 -0.67704848681E+01 -0.40082092832E+01  0.11757429688E+02  0.00000000000E+00 0.  1.
         11    1    4    4    0    0 -0.80944590629E+02  0.46159921403E+02  0.17460784159E+03  0.19791579887E+03  0.00000000000E+00 0. -1.
</event>
<event>
 8    1  0.6834011E-009  0.1048937E+03  0.7561462E-02  0.1270329E+00
         -1   -1    0    0    0  501 -0.00000000000E+00  0.00000000000E+00  0.23710410637E+03  0.23710410637E+03  0.00000000000E+00 0.  1.
          1   -1    0    0  501    0  0.00000000000E+00 -0.00000000000E+00 -0.78863729693E+02  0.78863729693E+02  0.00000000000E+00 0. -1.
         25    2    1    2    0    0  0.17170840113E+02 -0.13490367218E+02 -0.18794250346E+01  0.12699594121E+03  0.12509040366E+03 0.  0.
         23    2    1    2    0    0 -0.17170840113E+02  0.13490367218E+02  0.16011980171E+03  0.18897189485E+03  0.97955083510E+02 0.  0.
          5    1    3    3  502    0  0.13785731364E+02  0.55084307952E+02  0.80308828196E+01  0.57500390004E+02  0.41800000000E+01 0.  1.
         -5    1    3    3    0  502  0.33851087487E+01 -0.68574675170E+02 -0.99103078542E+01  0.69495551208E+02  0.41800000000E+01 0.  1.
        -11    1    4    4    0    0  0.15622225372E+02  0.39327437842E+02  0.13204896645E+03  0.13866373294E+03  0.00000000000E+00 0.  1.
         11    1    4    4    0    0 -0.32793065485E+02 -0.25837070624E+02  0.28070835261E+02  0.50308161908E+02  0.00000000000E+00 0. -1.
</event>
<event>
 8    1  0.6834011E-009  0.9079554E+02  0.7561462E-02  0.1300937E+00
          3   -1    0    0  501    0  0.00000000000E+00  0.00000000000E+00  0.82210628952E+02  0.82210628952E+02  0.00000000000E+00 0. -1.
         -3   -1    0    0    0  501 -0.00000000000E+00 -0.00000000000E+00 -0.16540520752E+03  0.16540520752E+03  0.00000000000E+00 0.  1.
         25    2    1    2    0    0  0.24779709878E+02 -0.34500074216E+02 -0.38021865547E+02  0.13746450843E+03  0.12508612903E+03 0.  0.
         23    2    1    2    0    0 -0.24779709878E+02  0.34500074216E+02 -0.45172713017E+02  0.11015132804E+03  0.91040935431E+02 0.  0.
          5    1    3    3  502    0  0.26608705107E+02  0.22488252374E+02 -0.65291774485E+02  0.74123092878E+02  0.41800000000E+01 0.  1.
         -5    1    3    3    0  502 -0.18289952283E+01 -0.56988326590E+02  0.27269908938E+02  0.63341415556E+02  0.41800000000E+01 0.  1.
        -11    1    4    4    0    0  0.26417401750E+02  0.26670692651E+02 -0.44679932012E+02  0.58356673023E+02  0.00000000000E+00 0.  1.
         11    1    4    4    0    0 -0.51197111628E+02  0.78293815643E+01 -0.49278100556E+00  0.51794655013E+02  0.00000000000E+00 0. -1.
</event>
<event>
 8    1  0.6834011E-009  0.8693414E+02  0.7561462E-02  0.1310451E+00
         -3   -1    0    0    0  501 -0.00000000000E+00  0.00000000000E+00  0.75895936860E+02  0.75895936860E+02  0.00000000000E+00 0.  1.
          3   -1    0    0  501    0  0.00000000000E+00 -0.00000000000E+00 -0.24105699145E+03  0.24105699145E+03  0.00000000000E+00 0. -1.
         25    2    1    2    0    0 -0.52500177078E+02  0.15367160070E+02 -0.22502089388E+02  0.13837353741E+03  0.12509385926E+03 0.  0.
         23    2    1    2    0    0  0.52500177078E+02 -0.15367160070E+02 -0.14265896520E+03  0.17857939090E+03  0.92447824753E+02 0.  0.
          5    1    3    3  502    0 -0.58974063956E+02  0.12188594190E+02  0.41869488281E+02  0.73464470982E+02  0.41800000000E+01 0.  1.
         -5    1    3    3    0  502  0.64738868780E+01  0.31785658797E+01 -0.64371577669E+02  0.64909066423E+02  0.41800000000E+01 0.  1.
        -11    1    4    4    0    0  0.69824496000E+02 -0.35727093568E+02 -0.88995235222E+02  0.11862561843E+03  0.00000000000E+00 0.  1.
         11    1    4    4    0    0 -0.17324318922E+02  0.20359933498E+02 -0.53663729979E+02  0.59953772471E+02  0.00000000000E+00 0. -1.
</event>
<event>
 8    1  0.6834011E-009  0.8387803E+02  0.7561462E-02  0.1318393E+00
          4   -1    0    0  501    0  0.00000000000E+00  0.00000000000E+00  0.67784711955E+02  0.67784711955E+02  0.00000000000E+00 0. -1.
         -4   -1    0    0    0  501 -0.00000000000E+00 -0.00000000000E+00 -0.22585240825E+03  0.22585240825E+03  0.00000000000E+00 0.  1.
         25    2    1    2    0    0 -0.31691701017E+02 -0.83995770460E+01 -0.30050345551E+02  0.13276248248E+03  0.12509171307E+03 0.  0.
         23    2    1    2    0    0  0.31691701017E+02  0.83995770460E+01 -0.12801735074E+03  0.16087463773E+03  0.91745790991E+02 0.  0.
          5    1    3    3  502    0  0.39916737444E+02  0.46867675850E+01 -0.42667301982E+02  0.58764638831E+02  0.41800000000E+01 0.  1.
         -5    1    3    3    0  502 -0.71608438461E+02 -0.13086344631E+02  0.12616956431E+02  0.73997843646E+02  0.41800000000E+01 0.  1.
        -11    1    4    4    0    0  0.72625998841E+01  0.24249424077E+02  0.40494192882E+01  0.25635477793E+02  0.00000000000E+00 0. -1.
         11    1    4    4    0    0  0.24429101133E+02 -0.15849847031E+02 -0.13206677003E+03  0.13523915993E+03  0.00000000000E+00 0.  1.
</event>
<event>
 8    1  0.6834011E-009  0.1029893E+03  0.7561462E-02  0.1274133E+00
          1   -1    0    0  501    0  0.00000000000E+00  0.00000000000E+00  0.23717602126E+03  0.23717602126E+03  0.00000000000E+00 0. -1.
         -1   -1    0    0    0  501 -0.00000000000E+00 -0.00000000000E+00 -0.56339155687E+02  0.56339155687E+02  0.00000000000E+00 0.  1.
         25    2    1    2    0    0  0.11089820617E+02  0.35427049115E+02  0.99022113382E+02  0.16380014626E+03  0.12508816509E+03 0.  0.
         23    2    1    2    0    0 -0.11089820617E+02 -0.35427049115E+02  0.81814752193E+02  0.12971503069E+03  0.93564285819E+02 0.  0.
          5    1    3    3  502    0 -0.52462627213E+02 -0.28479331507E+01  0.23033190004E+02  0.57519024844E+02  0.41800000000E+01 0.  1.
         -5    1    3    3    0  502  0.63552447830E+02  0.38274982266E+02  0.75988923378E+02  0.10628112141E+03  0.41800000000E+01 0.  1.
        -11    1    4    4    0    0 -0.85807464371E+01 -0.56801328074E+02  0.14788946477E+02  0.59318909449E+02  0.00000000000E+00 0.  1.
         11    1    4    4    0    0 -0.25090741803E+01  0.21374278959E+02  0.67025805716E+02  0.70396121243E+02  0.00000000000E+00 0. -1.
</event>
<event>
 8    1  0.6834011E-009  0.9691029E+02  0.7561462E-02  0.1286931E+00
         -1   -1    0    0    0  501 -0.00000000000E+00  0.00000000000E+00  0.46998158598E+02  0.46998158598E+02  0.00000000000E+00 0.  1.
          1   -1    0    0  501    0  0.00000000000E+00 -0.00000000000E+00 -0.27340606668E+03  0.27340606668E+03  0.00000000000E+00 0. -1.
         25    2    1    2    0    0 -0.25464416290E+02  0.62573249603E+01 -0.98110654455E+02  0.16113205438E+03  0.12510095050E+03 0.  0.
         23    2    1    2    0    0  0.25464416290E+02 -0.62573249603E+01 -0.12829725362E+03  0.15927217090E+03  0.90663380275E+02 0.  0.
          5    1    3    3  502    0  0.22856512414E+02  0.45915885133E+02 -0.81379953391E+02  0.96285294211E+02  0.41800000000E+01 0. -1.
         -5    1    3    3    0  502 -0.48320928704E+02 -0.39658560173E+02 -0.16730701064E+02  0.64846760165E+02  0.41800000000E+01 0. -1.
        -11    1    4    4    0    0  0.50394720256E+02 -0.16102973984E+02 -0.38152758180E+02  0.65227038546E+02  0.00000000000E+00 0.  1.
         11    1    4    4    0    0 -0.24930303966E+02  0.98456490234E+01 -0.90144495444E+02  0.94045132354E+02  0.00000000000E+00 0. -1.
</event>
<event>
 8    1  0.6834011E-009  0.8574644E+02  0.7561462E-02  0.1313492E+00
         -1   -1    0    0    0  501 -0.00000000000E+00  0.00000000000E+00  0.37313223394E+02  0.37313223394E+02  0.00000000000E+00 0.  1.
          1   -1    0    0  501    0  0.00000000000E+00 -0.00000000000E+00 -0.44920233946E+03  0.44920233946E+03  0.00000000000E+00 0. -1.
         25    2    1    2    0    0 -0.42794033009E+02  0.54647376526E+02 -0.20362527809E+03  0.24885520953E+03  0.12509195181E+03 0.  0.
         23    2    1    2    0    0  0.42794033009E+02 -0.54647376526E+02 -0.20826383797E+03  0.23766035333E+03  0.91054666624E+02 0.  0.
          5    1    3    3  502    0 -0.28072041647E+02 -0.82262280611E+01 -0.17605445766E+03  0.17851709950E+03  0.41800000000E+01 0.  1.
         -5    1    3    3    0  502 -0.14721991362E+02  0.62873604587E+02 -0.27570820432E+02  0.70338110031E+02  0.41800000000E+01 0.  1.
        -11    1    4    4    0    0  0.37910052113E+02 -0.21206677814E+02 -0.22638486155E+02  0.48983632884E+02  0.00000000000E+00 0.  1.
         11    1    4    4    0    0  0.48839808964E+01 -0.33440698713E+02 -0.18562535182E+03  0.18867672045E+03  0.00000000000E+00 0. -1.
</event>
<event>
 8    1  0.6834011E-009  0.9874971E+02  0.7561462E-02  0.1282947E+00
          1   -1    0    0  501    0  0.00000000000E+00  0.00000000000E+00  0.76797041657E+02  0.76797041657E+02  0.00000000000E+00 0. -1.
         -1   -1    0    0    0  501 -0.00000000000E+00 -0.00000000000E+00 -0.22375202771E+03  0.22375202771E+03  0.00000000000E+00 0.  1.
         25    2    1    2    0    0 -0.42562310967E+02 -0.41575880291E+02 -0.12962688953E+03  0.18971489585E+03  0.12509399298E+03 0.  0.
         23    2    1    2    0    0  0.42562310967E+02  0.41575880291E+02 -0.17328096527E+02  0.11083417352E+03  0.91890407304E+02 0.  0.
          5    1    3    3  502    0 -0.56239569899E+02 -0.12055066835E+02 -0.17473602104E+01  0.57695229669E+02  0.41800000000E+01 0. -1.
         -5    1    3    3    0  502  0.13677258932E+02 -0.29520813456E+02 -0.12787952932E+03  0.13201966618E+03  0.41800000000E+01 0. -1.
        -11    1    4    4    0    0  0.58251811111E+02  0.59458594173E+02 -0.23040557318E+02  0.86368195537E+02  0.00000000000E+00 0.  1.
         11    1    4    4    0    0 -0.15689500144E+02 -0.17882713882E+02  0.57124607907E+01  0.24465977986E+02  0.00000000000E+00 0. -1.
</event>
<event>
 8    1  0.6834011E-009  0.1446836E+03  0.7561462E-02  0.1207162E+00
         -3   -1    0    0    0  501 -0.00000000000E+00  0.00000000000E+00  0.78482711963E+02  0.78482711963E+02  0.00000000000E+00 0.  1.
          3   -1    0    0  501    0  0.00000000000E+00 -0.00000000000E+00 -0.36542105897E+03  0.36542105897E+03  0.00000000000E+00 0. -1.
         25    2    1    2    0    0 -0.79832681250E+02  0.87722182413E+02 -0.21947490735E+03  0.27907958063E+03  0.12509092328E+03 0.  0.
         23    2    1    2    0    0  0.79832681250E+02 -0.87722182413E+02 -0.67463439663E+02  0.16482419030E+03  0.92451391201E+02 0.  0.
          5    1    3    3  502    0 -0.71384713099E+01  0.63200688244E+02 -0.22406784851E+02  0.67563460351E+02  0.41800000000E+01 0.  1.
         -5    1    3    3    0  502 -0.72694209941E+02  0.24521494169E+02 -0.19706812250E+03  0.21151612028E+03  0.41800000000E+01 0.  1.
        -11    1    4    4    0    0  0.23090662229E+02  0.17685456807E+02 -0.23158027973E+02  0.37178600354E+02  0.00000000000E+00 0. -1.
         11    1    4    4    0    0  0.56742019022E+02 -0.10540763922E+03 -0.44305411689E+02  0.12764558995E+03  0.00000000000E+00 0.  1.
</event>
<event>
 8    1  0.6834011E-009  0.1912400E+03  0.7561462E-02  0.1157348E+00
          2   -1    0    0  501    0  0.00000000000E+00  0.00000000000E+00  0.27905092262E+03  0.27905092262E+03  0.00000000000E+00 0.  1.
         -2   -1    0    0    0  501 -0.00000000000E+00 -0.00000000000E+00 -0.15092442399E+03  0.15092442399E+03  0.00000000000E+00 0. -1.
         25    2    1    2    0    0  0.91784406233E+02 -0.13431769912E+03  0.32473116701E+01  0.20523988294E+03  0.12508894032E+03 0.  0.
         23    2    1    2    0    0 -0.91784406233E+02  0.13431769912E+03  0.12487918696E+03  0.22473546368E+03  0.91899922596E+02 0.  0.
          5    1    3    3  502    0  0.16951577749E+02 -0.12585106370E+03  0.18177974036E+02  0.12835013581E+03  0.41800000000E+01 0. -1.
         -5    1    3    3    0  502  0.74832828484E+02 -0.84666354219E+01 -0.14930662366E+02  0.76889747125E+02  0.41800000000E+01 0. -1.
        -11    1    4    4    0    0 -0.91782353738E+02  0.69367239418E+02  0.49528257009E+02  0.12525518993E+03  0.00000000000E+00 0. -1.
         11    1    4    4    0    0 -0.20524943020E-02  0.64950459704E+02  0.75350929954E+02  0.99480273747E+02  0.00000000000E+00 0.  1.
</event>
<event>
 8    1  0.6834011E-009  0.1027927E+03  0.7561462E-02  0.1274531E+00
          3   -1    0    0  501    0  0.00000000000E+00  0.00000000000E+00  0.12284244871E+03  0.12284244871E+03  0.00000000000E+00 0. -1.
         -3   -1    0    0    0  501 -0.00000000000E+00 -0.00000000000E+00 -0.14381675649E+03  0.14381675649E+03  0.00000000000E+00 0.  1.
         25    2    1    2    0    0 -0.67170045465E+02  0.31923057630E+01 -0.48051479118E+02  0.14993005201E+03  0.12509224606E+03 0.  0.
         23    2    1    2    0    0  0.67170045465E+02 -0.31923057630E+01  0.27077171341E+02  0.11672915319E+03  0.91490525040E+02 0.  0.
          5    1    3    3  502    0 -0.57095961250E+02 -0.31957757676E+02  0.23352598522E+02  0.69599305488E+02  0.41800000000E+01 0.  1.
         -5    1    3    3    0  502 -0.10074084215E+02  0.35150063439E+02 -0.71404077639E+02  0.80330746518E+02  0.41800000000E+01 0.  1.
        -11    1    4    4    0    0 -0.10448484315E+02 -0.21113027210E+02 -0.13686945901E+02  0.27244508264E+02  0.00000000000E+00 0.  1.
         11    1    4    4    0    0  0.77618529781E+02  0.17920721447E+02  0.40764117242E+02  0.89484644923E+02  0.00000000000E+00 0. -1.
</event>
<event>
 8    1  0.6834011E-009  0.1057273E+03  0.7561462E-02  0.1268693E+00
          2   -1    0    0  501    0  0.00000000000E+00  0.00000000000E+00  0.12155936084E+04  0.12155936084E+04  0.00000000000E+00 0. -1.
         -2   -1    0    0    0  501 -0.00000000000E+00 -0.00000000000E+00 -0.13235762267E+02  0.13235762267E+02  0.00000000000E+00 0.  1.
         25    2    1    2    0    0 -0.43212266707E+02  0.56259140321E+01  0.91243347989E+03  0.92199581347E+03  0.12506987616E+03 0.  0.
         23    2    1    2    0    0  0.43212266707E+02 -0.56259140321E+01  0.28992436626E+03  0.30683355722E+03  0.90508247032E+02 0.  0.
          5    1    3    3  502    0 -0.40016649136E+02 -0.56867583947E+02  0.46539182828E+03  0.47057654058E+03  0.41800000000E+01 0. -1.
         -5    1    3    3    0  502 -0.31956175708E+01  0.62493497979E+02  0.44704165161E+03  0.45141927289E+03  0.41800000000E+01 0. -1.
        -11    1    4    4    0    0  0.53757764571E+01 -0.32325875140E+02  0.35837495186E+02  0.48561170057E+02  0.00000000000E+00 0.  1.
         11    1    4    4    0    0  0.37836490250E+02  0.26699961107E+02  0.25408687108E+03  0.25827238716E+03  0.00000000000E+00 0. -1.
</event>
<event>
 8    1  0.6834011E-009  0.1173204E+03  0.7561462E-02  0.1247584E+00
          3   -1    0    0  501    0  0.00000000000E+00  0.00000000000E+00  0.32350061850E+03  0.32350061850E+03  0.00000000000E+00 0. -1.
         -3   -1    0    0    0  501 -0.00000000000E+00 -0.00000000000E+00 -0.48674209762E+02  0.48674209762E+02  0.00000000000E+00 0.  1.
         25    2    1    2    0    0  0.54668173785E+02 -0.13068866944E+02  0.20243872903E+03  0.24452143857E+03  0.12509952199E+03 0.  0.
         23    2    1    2    0    0 -0.54668173785E+02  0.13068866944E+02  0.72387679709E+02  0.12765338969E+03  0.88859480177E+02 0.  0.
          5    1    3    3  502    0  0.13648093560E+01  0.52372709572E+02  0.73501491000E+02  0.90358757138E+02  0.41800000000E+01 0. -1.
         -5    1    3    3    0  502  0.53303364429E+02 -0.65441576516E+02  0.12893723803E+03  0.15416268143E+03  0.41800000000E+01 0. -1.
        -11    1    4    4    0    0 -0.73549099175E+02 -0.17587974764E+01  0.31058216885E+02  0.79857223806E+02  0.00000000000E+00 0.  1.
         11    1    4    4    0    0  0.18880925390E+02  0.14827664421E+02  0.41329462824E+02  0.47796165883E+02  0.00000000000E+00 0. -1.
</event>
<event>
 8    1  0.6834011E-009  0.4457720E+02  0.7561462E-02  0.1476998E+00
         -1   -1    0    0    0  501 -0.00000000000E+00  0.00000000000E+00  0.57055517898E+02  0.57055517898E+02  0.00000000000E+00 0.  1.
          1   -1    0    0  501    0  0.00000000000E+00 -0.00000000000E+00 -0.24687418782E+03  0.24687418782E+03  0.00000000000E+00 0. -1.
         25    2    1    2    0    0 -0.18630863326E+01 -0.14065521940E+02 -0.14251143582E+03  0.19015311553E+03  0.12508951998E+03 0.  0.
         23    2    1    2    0    0  0.18630863326E+01  0.14065521940E+02 -0.47307234101E+02  0.11377659018E+03  0.10249794182E+03 0.  0.
          5    1    3    3  502    0 -0.89991089266E+01  0.19444460304E+01  0.22233976876E+02  0.24425129673E+02  0.41800000000E+01 0.  1.
         -5    1    3    3    0  502  0.71360225939E+01 -0.16009967971E+02 -0.16474541270E+03  0.16572798586E+03  0.41800000000E+01 0.  1.
        -11    1    4    4    0    0  0.30553671706E+02  0.93152435521E+01  0.21885813966E+02  0.38720659474E+02  0.00000000000E+00 0.  1.
         11    1    4    4    0    0 -0.28690585374E+02  0.47502783883E+01 -0.69193048067E+02  0.75055930710E+02  0.00000000000E+00 0. -1.
</event>
<event>
 8    1  0.6834011E-009  0.7423796E+02  0.7561462E-02  0.1346247E+00
         -1   -1    0    0    0  501 -0.00000000000E+00  0.00000000000E+00  0.13186453356E+02  0.13186453356E+02  0.00000000000E+00 0.  1.
          1   -1    0    0  501    0  0.00000000000E+00 -0.00000000000E+00 -0.10943694921E+04  0.10943694921E+04  0.00000000000E+00 0. -1.
         25    2    1    2    0    0 -0.21927647577E+02 -0.39247819531E+02 -0.70192296149E+03  0.71439828036E+03  0.12509135081E+03 0.  0.
         23    2    1    2    0    0  0.21927647577E+02  0.39247819531E+02 -0.37926007722E+03  0.39315766507E+03  0.93346292690E+02 0.  0.
          5    1    3    3  502    0 -0.28092845396E+02 -0.19432902829E+02 -0.68844172817E+03  0.68930133552E+03  0.41800000000E+01 0. -1.
         -5    1    3    3    0  502  0.61651978196E+01 -0.19814916702E+02 -0.13481233321E+02  0.25096944832E+02  0.41800000000E+01 0. -1.
        -11    1    4    4    0    0  0.46900166267E+02  0.47343747898E+02 -0.33608140606E+03  0.34262482040E+03  0.00000000000E+00 0. -1.
         11    1    4    4    0    0 -0.24972518690E+02 -0.80959283674E+01 -0.43178671168E+02  0.50532844662E+02  0.00000000000E+00 0.  1.
</event>
<event>
 8    1  0.6834011E-009  0.1132301E+03  0.7561462E-02  0.1254702E+00
          1   -1    0    0  501    0  0.00000000000E+00  0.00000000000E+00  0.50066506874E+02  0.50066506874E+02  0.00000000000E+00 0. -1.
         -1   -1    0    0    0  501 -0.00000000000E+00 -0.00000000000E+00 -0.41777625643E+03  0.41777625643E+03  0.00000000000E+00 0.  1.
         25    2    1    2    0    0  0.42380801138E+02  0.83243740167E+02 -0.21294477323E+03  0.26404266315E+03  0.12508956366E+03 0.  0.
         23    2    1    2    0    0 -0.42380801138E+02 -0.83243740167E+02 -0.15476497633E+03  0.20380010016E+03  0.94109671888E+02 0.  0.
          5    1    3    3  502    0  0.57610491807E+02  0.38323561078E+02 -0.20418142038E+03  0.21562743083E+03  0.41800000000E+01 0. -1.
         -5    1    3    3    0  502 -0.15229690669E+02  0.44920179089E+02 -0.87633528498E+01  0.48415232318E+02  0.41800000000E+01 0. -1.
        -11    1    4    4    0    0  0.14131883653E+02 -0.22402949070E+02  0.18300033173E+01  0.26550916646E+02  0.00000000000E+00 0. -1.
         11    1    4    4    0    0 -0.56512684792E+02 -0.60840791097E+02 -0.15659497965E+03  0.17724918351E+03  0.00000000000E+00 0.  1.
</event>
<event>
 8    1  0.6834011E-009  0.1871827E+03  0.7561462E-02  0.1161027E+00
          4   -1    0    0  501    0  0.00000000000E+00  0.00000000000E+00  0.81850813434E+03  0.81850813434E+03  0.00000000000E+00 0. -1.
         -4   -1    0    0    0  501 -0.00000000000E+00 -0.00000000000E+00 -0.10421020375E+03  0.10421020375E+03  0.00000000000E+00 0.  1.
         25    2    1    2    0    0 -0.26388631443E+02 -0.15687058113E+03  0.18322919473E+02  0.20319535625E+03  0.12509150382E+03 0.  0.
         23    2    1    2    0    0  0.26388631443E+02  0.15687058113E+03  0.69597501112E+03  0.71952298184E+03  0.89595570214E+02 0.  0.
          5    1    3    3  502    0 -0.87080702129E+01 -0.16948669658E+03  0.37576330946E+02  0.17387071017E+03  0.41800000000E+01 0.  1.
         -5    1    3    3    0  502 -0.17680561230E+02  0.12616115452E+02 -0.19253411473E+02  0.29324646083E+02  0.41800000000E+01 0.  1.
        -11    1    4    4    0    0 -0.13887291511E+02  0.13676718599E+03  0.51460961147E+03  0.53265483406E+03  0.00000000000E+00 0.  1.
         11    1    4    4    0    0  0.40275922955E+02  0.20103395146E+02  0.18136539965E+03  0.18686814778E+03  0.00000000000E+00 0. -1.
</event>
<event>
 8    1  0.6834011E-009  0.1759076E+03  0.7561462E-02  0.1171824E+00
         -2   -1    0    0    0  501 -0.00000000000E+00  0.00000000000E+00  0.13225108662E+03  0.13225108662E+03  0.00000000000E+00 0.  1.
          2   -1    0    0  501    0  0.00000000000E+00 -0.00000000000E+00 -0.30734162948E+03  0.30734162948E+03  0.00000000000E+00 0. -1.
         25    2    1    2    0    0  0.13545873859E+03  0.86034463900E+02 -0.15008460225E+03  0.25282483087E+03  0.12507601063E+03 0.  0.
         23    2    1    2    0    0 -0.13545873859E+03 -0.86034463900E+02 -0.25005940612E+02  0.18676788523E+03  0.92227691331E+02 0.  0.
          5    1    3    3  502    0  0.16442418748E+02  0.40547754034E+02 -0.11115879967E+03  0.11953336202E+03  0.41800000000E+01 0.  1.
         -5    1    3    3    0  502  0.11901631984E+03  0.45486709866E+02 -0.38925802579E+02  0.13329146885E+03  0.41800000000E+01 0.  1.
        -11    1    4    4    0    0  0.92019036830E+01  0.39525818060E+01  0.85037717663E+01  0.13138191222E+02  0.00000000000E+00 0.  1.
         11    1    4    4    0    0 -0.14466064227E+03 -0.89987045706E+02 -0.33509712379E+02  0.17362969400E+03  0.00000000000E+00 0. -1.
</event>
<event>
 8    1  0.6834011E-009  0.1532529E+03  0.7561462E-02  0.1196532E+00
         -2   -1    0    0    0  501 -0.00000000000E+00  0.00000000000E+00  0.67193902642E+02  0.67193902642E+02  0.00000000000E+00 0.  1.
          2   -1    0    0  501    0  0.00000000000E+00 -0.00000000000E+00 -0.37307825783E+03  0.37307825783E+03  0.00000000000E+00 0. -1.
         25    2    1    2    0    0 -0.99191021259E+02 -0.57957130411E+02 -0.15853618956E+03  0.23233249578E+03  0.12508707979E+03 0.  0.
         23    2    1    2    0    0  0.99191021259E+02  0.57957130411E+02 -0.14734816563E+03  0.20793966469E+03  0.91266283885E+02 0.  0.
          5    1    3    3  502    0 -0.14286265018E+02  0.32938691645E+02 -0.72577291718E+02  0.81080148301E+02  0.41800000000E+01 0. -1.
         -5    1    3    3    0  502 -0.84904756240E+02 -0.90895822057E+02 -0.85958897840E+02  0.15125234748E+03  0.41800000000E+01 0. -1.
        -11    1    4    4    0    0  0.10120896633E+03  0.14312010742E+02 -0.11293060108E+03  0.15232008790E+03  0.00000000000E+00 0. -1.
         11    1    4    4    0    0 -0.20179450702E+01  0.43645119669E+02 -0.34417564547E+02  0.55619576793E+02  0.00000000000E+00 0.  1.
</event>
<event>
 8    1  0.6834011E-009  0.1088720E+03  0.7561462E-02  0.1262673E+00
          2   -1    0    0  501    0  0.00000000000E+00  0.00000000000E+00  0.11345610851E+03  0.11345610851E+03  0.00000000000E+00 0. -1.
         -2   -1    0    0    0  501 -0.00000000000E+00 -0.00000000000E+00 -0.12714697429E+03  0.12714697429E+03  0.00000000000E+00 0.  1.
         25    2    1    2    0    0 -0.47776312650E+02  0.17841953661E+02 -0.38335490326E+01  0.13514120492E+03  0.12509011875E+03 0.  0.
         23    2    1    2    0    0  0.47776312650E+02 -0.17841953661E+02 -0.98573167384E+01  0.10546187788E+03  0.91783057432E+02 0.  0.
          5    1    3    3  502    0 -0.76577190295E+02 -0.33169050697E+01  0.33084718426E+02  0.83589107700E+02  0.41800000000E+01 0.  1.
         -5    1    3    3    0  502  0.28800877645E+02  0.21158858730E+02 -0.36918267458E+02  0.51552097222E+02  0.41800000000E+01 0.  1.
        -11    1    4    4    0    0  0.68715358066E+01  0.36411300546E+02 -0.36314519131E+01  0.37231549186E+02  0.00000000000E+00 0.  1.
         11    1    4    4    0    0  0.40904776843E+02 -0.54253254207E+02 -0.62258648253E+01  0.68230328692E+02  0.00000000000E+00 0. -1.
</event>
<event>
 8    1  0.6834011E-009  0.1007633E+03  0.7561462E-02  0.1278699E+00
         -3   -1    0    0    0  501 -0.00000000000E+00  0.00000000000E+00  0.24956292725E+03  0.24956292725E+03  0.00000000000E+00 0.  1.
          3   -1    0    0  501    0  0.00000000000E+00 -0.00000000000E+00 -0.55943696154E+02  0.55943696154E+02  0.00000000000E+00 0. -1.
         25    2    1    2    0    0 -0.41893777995E+02  0.17610624413E+02  0.95659724363E+02  0.16389957377E+03  0.12508822763E+03 0.  0.
         23    2    1    2    0    0  0.41893777995E+02 -0.17610624413E+02  0.97959506735E+02  0.14160704963E+03  0.91603869019E+02 0.  0.
          5    1    3    3  502    0 -0.10144404148E+02  0.67063169306E+02  0.26229135506E+02  0.72841043116E+02  0.41800000000E+01 0. -1.
         -5    1    3    3    0  502 -0.31749373847E+02 -0.49452544893E+02  0.69430588857E+02  0.91058530655E+02  0.41800000000E+01 0. -1.
        -11    1    4    4    0    0  0.11581076990E+02 -0.36934795239E+02  0.98311230721E+02  0.10565698524E+03  0.00000000000E+00 0.  1.
         11    1    4    4    0    0  0.30312701005E+02  0.19324170826E+02 -0.35172398598E+00  0.35950064396E+02  0.00000000000E+00 0. -1.
</event>
<event>
 8    1  0.6834011E-009  0.1020848E+03  0.7561462E-02  0.1275972E+00
         -1   -1    0    0    0  501 -0.00000000000E+00  0.00000000000E+00  0.29950146027E+03  0.29950146027E+03  0.00000000000E+00 0.  1.
          1   -1    0    0  501    0  0.00000000000E+00 -0.00000000000E+00 -0.43250411189E+02  0.43250411189E+02  0.00000000000E+00 0. -1.
         25    2    1    2    0    0 -0.25789607837E+01 -0.28122880699E+01  0.19922259933E+03  0.23527136517E+03  0.12509360969E+03 0.  0.
         23    2    1    2    0    0  0.25789607837E+01  0.28122880699E+01  0.57028449756E+02  0.10748050629E+03  0.91023376931E+02 0.  0.
          5    1    3    3  502    0  0.32321871575E+02 -0.53957421884E+02  0.10391001332E+03  0.12153546819E+03  0.41800000000E+01 0. -1.
         -5    1    3    3    0  502 -0.34900832359E+02  0.51145133814E+02  0.95312586008E+02  0.11373589699E+03  0.41800000000E+01 0. -1.
        -11    1    4    4    0    0  0.25271236819E+01  0.40904038719E+02  0.26233501108E+01  0.41065906826E+02  0.00000000000E+00 0. -1.
         11    1    4    4    0    0  0.51837101758E-01 -0.38091750649E+02  0.54405099645E+02  0.66414599464E+02  0.00000000000E+00 0.  1.
</event>
<event>
 8    1  0.6834011E-009  0.1955101E+03  0.7561462E-02  0.1153583E+00
         -1   -1    0    0    0  501 -0.00000000000E+00  0.00000000000E+00  0.17838730115E+03  0.17838730115E+03  0.00000000000E+00 0.  1.
          1   -1    0    0  501    0  0.00000000000E+00 -0.00000000000E+00 -0.26084039103E+03  0.26084039103E+03  0.00000000000E+00 0. -1.
         25    2    1    2    0    0  0.50662629747E+02 -0.17851314735E+03 -0.17473678254E+02  0.22446671886E+03  0.12508530135E+03 0.  0.
         23    2    1    2    0    0 -0.50662629747E+02  0.17851314735E+03 -0.64979411626E+02  0.21476097332E+03  0.86407788390E+02 0.  0.
          5    1    3    3  502    0  0.69862061473E+02 -0.12650959216E+03 -0.57888427529E+02  0.15573672330E+03  0.41800000000E+01 0. -1.
         -5    1    3    3    0  502 -0.19199431726E+02 -0.52003555192E+02  0.40414749274E+02  0.68729995563E+02  0.41800000000E+01 0. -1.
        -11    1    4    4    0    0 -0.15239560121E+02  0.12940501267E+03 -0.79308654208E+02  0.15253774657E+03  0.00000000000E+00 0. -1.
         11    1    4    4    0    0 -0.35423069626E+02  0.49108134685E+02  0.14329242582E+02  0.62223226748E+02  0.00000000000E+00 0.  1.
</event>
<event>
 8    1  0.6834011E-009  0.1014366E+03  0.7561462E-02  0.1277304E+00
         -2   -1    0    0    0  501 -0.00000000000E+00  0.00000000000E+00  0.39883057625E+03  0.39883057625E+03  0.00000000000E+00 0.  1.
          2   -1    0    0  501    0  0.00000000000E+00 -0.00000000000E+00 -0.42644333979E+02  0.42644333979E+02  0.00000000000E+00 0. -1.
         25    2    1    2    0    0  0.57310137546E+02  0.18488974645E+02  0.12470921521E+03  0.18662018806E+03  0.12509361368E+03 0.  0.
         23    2    1    2    0    0 -0.57310137546E+02 -0.18488974645E+02  0.23147702706E+03  0.25485472217E+03  0.87994439074E+02 0.  0.
          5    1    3    3  502    0  0.80390670585E+02 -0.74880414771E+01  0.12807634993E+03  0.15145875509E+03  0.41800000000E+01 0.  1.
         -5    1    3    3    0  502 -0.23080533039E+02  0.25977016122E+02 -0.33671347204E+01  0.35161432966E+02  0.41800000000E+01 0.  1.
        -11    1    4    4    0    0 -0.21978298383E+02 -0.40015206354E+02  0.19309917838E+03  0.19842266764E+03  0.00000000000E+00 0.  1.
         11    1    4    4    0    0 -0.35331839163E+02  0.21526231710E+02  0.38377848680E+02  0.56432054539E+02  0.00000000000E+00 0. -1.
</event>
<event>
 8    1  0.6834011E-009  0.1363132E+03  0.7561462E-02  0.1218378E+00
          1   -1    0    0  501    0  0.00000000000E+00  0.00000000000E+00  0.28914796202E+03  0.28914796202E+03  0.00000000000E+00 0. -1.
         -1   -1    0    0    0  501 -0.00000000000E+00 -0.00000000000E+00 -0.10155904621E+03  0.10155904621E+03  0.00000000000E+00 0.  1.
         25    2    1    2    0    0  0.20326374467E+02 -0.11963423273E+03  0.15825854953E+03  0.23541195770E+03  0.12509000836E+03 0.  0.
         23    2    1    2    0    0 -0.20326374467E+02  0.11963423273E+03  0.29330366274E+02  0.15529505052E+03  0.92362174031E+02 0.  0.
          5    1    3    3  502    0  0.27399045795E+02 -0.94633152114E+02  0.27978816249E+02  0.10250086706E+03  0.41800000000E+01 0.  1.
         -5    1    3    3    0  502 -0.70726713283E+01 -0.25001080614E+02  0.13027973328E+03  0.13291109064E+03  0.41800000000E+01 0.  1.
        -11    1    4    4    0    0 -0.42245610334E+02  0.11844143356E+03  0.10175304839E+02  0.12616101460E+03  0.00000000000E+00 0.  1.
         11    1    4    4    0    0  0.21919235867E+02  0.11927991725E+01  0.19155061435E+02  0.29134035928E+02  0.00000000000E+00 0. -1.
</event>
<event>
 8    1  0.6834011E-009  0.1597177E+03  0.7561462E-02  0.1189016E+00
          2   -1    0    0  501    0  0.00000000000E+00  0.00000000000E+00  0.71986301300E+02  0.71986301300E+02  0.00000000000E+00 0. -1.
         -2   -1    0    0    0  501 -0.00000000000E+00 -0.00000000000E+00 -0.46121686247E+03  0.46121686247E+03  0.00000000000E+00 0.  1.
         25    2    1    2    0    0  0.12558799038E+03  0.43024308299E+02 -0.28448075255E+03  0.33793499097E+03  0.12508926859E+03 0.  0.
         23    2    1    2    0    0 -0.12558799038E+03 -0.43024308299E+02 -0.10474980862E+03  0.19526817281E+03  0.97640680415E+02 0.  0.
          5    1    3    3  502    0  0.14166463063E+03  0.35792279881E+02 -0.28445734549E+03  0.31981777417E+03  0.41800000000E+01 0.  1.
         -5    1    3    3    0  502 -0.16076640249E+02  0.72320284183E+01 -0.23407062564E-01  0.18117216802E+02  0.41800000000E+01 0.  1.
        -11    1    4    4    0    0  0.80806097107E+01 -0.17197594877E+02  0.58309897298E+01  0.19875964482E+02  0.00000000000E+00 0.  1.
         11    1    4    4    0    0 -0.13366860009E+03 -0.25826713422E+02 -0.11058079835E+03  0.17539220832E+03  0.00000000000E+00 0. -1.
</event>
<event>
 8    1  0.6834011E-009  0.1200856E+03  0.7561462E-02  0.1242956E+00
          1   -1    0    0  501    0  0.00000000000E+00  0.00000000000E+00  0.11353160183E+03  0.11353160183E+03  0.00000000000E+00 0. -1.
         -1   -1    0    0    0  501 -0.00000000000E+00 -0.00000000000E+00 -0.13569381319E+03  0.13569381319E+03  0.00000000000E+00 0.  1.
         25    2    1    2    0    0  0.17981311182E+02 -0.55624057960E+02  0.77308789442E+01  0.13829145847E+03  0.12508955840E+03 0.  0.
         23    2    1    2    0    0 -0.17981311182E+02  0.55624057960E+02 -0.29893090310E+02  0.11093395655E+03  0.89416902717E+02 0.  0.
          5    1    3    3  502    0 -0.30875829177E+02 -0.77899006579E+02  0.92848578820E+01  0.84411213943E+02  0.41800000000E+01 0.  1.
         -5    1    3    3    0  502  0.48857140360E+02  0.22274948619E+02 -0.15539789378E+01  0.53880244530E+02  0.41800000000E+01 0.  1.
        -11    1    4    4    0    0  0.23969758504E+01 -0.22015188597E+02 -0.20393020638E+02  0.30104639392E+02  0.00000000000E+00 0.  1.
         11    1    4    4    0    0 -0.20378287033E+02  0.77639246556E+02 -0.95000696719E+01  0.80829317156E+02  0.00000000000E+00 0. -1.
</event>
<event>
 8    1  0.6834011E-009  0.1422291E+03  0.7561462E-02  0.1210361E+00
         -2   -1    0    0    0  501 -0.00000000000E+00  0.00000000000E+00  0.22130383223E+02  0.22130383223E+02  0.00000000000E+00 0.  1.
          2   -1    0    0  501    0  0.00000000000E+00 -0.00000000000E+00 -0.10991442827E+04  0.10991442827E+04  0.00000000000E+00 0. -1.
         25    2    1    2    0    0 -0.10817309827E+03  0.26157212451E+02 -0.59501721874E+03  0.61812508881E+03  0.12509003105E+03 0.  0.
         23    2    1    2    0    0  0.10817309827E+03 -0.26157212451E+02 -0.48199668070E+03  0.50314957708E+03  0.91940620794E+02 0.  0.
          5    1    3    3  502    0 -0.65674053617E+02  0.57679976084E+02 -0.18460993327E+03  0.20429968385E+03  0.41800000000E+01 0. -1.
         -5    1    3    3    0  502 -0.42499044658E+02 -0.31522763633E+02 -0.41040728547E+03  0.41382540496E+03  0.41800000000E+01 0. -1.
        -11    1    4    4    0    0 -0.16307727737E+02 -0.76873995206E+01 -0.75291812422E+02  0.77420250020E+02  0.00000000000E+00 0. -1.
         11    1    4    4    0    0  0.12448082601E+03 -0.18469812930E+02 -0.40670486828E+03  0.42572932706E+03  0.00000000000E+00 0.  1.
</event>
<event>
 8    1  0.6834011E-009  0.9413540E+02  0.7561462E-02  0.1293135E+00
          1   -1    0    0  501    0  0.00000000000E+00  0.00000000000E+00  0.80385673357E+03  0.80385673357E+03  0.00000000000E+00 0. -1.
         -1   -1    0    0    0  501 -0.00000000000E+00 -0.00000000000E+00 -0.16071317162E+02  0.16071317162E+02  0.00000000000E+00 0.  1.
         25    2    1    2    0    0  0.58213203530E+01  0.18959513635E+02  0.55864581938E+03  0.57282275807E+03  0.12508960678E+03 0.  0.
         23    2    1    2    0    0 -0.58213203530E+01 -0.18959513635E+02  0.22913959703E+03  0.24710529267E+03  0.90347771463E+02 0.  0.
          5    1    3    3  502    0  0.41463248078E+02 -0.22552553897E+02  0.97296112660E+02  0.10822118354E+03  0.41800000000E+01 0.  1.
         -5    1    3    3    0  502 -0.35641927725E+02  0.41512067532E+02  0.46134970672E+03  0.46460157452E+03  0.41800000000E+01 0.  1.
        -11    1    4    4    0    0 -0.34583015902E+01 -0.52387572520E+02  0.91959707876E+02  0.10589147972E+03  0.00000000000E+00 0.  1.
         11    1    4    4    0    0 -0.23630187628E+01  0.33428058885E+02  0.13717988916E+03  0.14121381295E+03  0.00000000000E+00 0. -1.
</event>
<event>
 8    1  0.6834011E-009  0.1651929E+03  0.7561462E-02  0.1182956E+00
          2   -1    0    0  501    0  0.00000000000E+00  0.00000000000E+00  0.43524075590E+03  0.43524075590E+03  0.00000000000E+00 0.  1.
         -2   -1    0    0    0  501 -0.00000000000E+00 -0.00000000000E+00 -0.67617863372E+02  0.67617863372E+02  0.00000000000E+00 0. -1.
         25    2    1    2    0    0  0.95635485645E+02 -0.85090253376E+02  0.14769714730E+03  0.23205528562E+03  0.12509480777E+03 0.  0.
         23    2    1    2    0    0 -0.95635485645E+02  0.85090253376E+02  0.21992574523E+03  0.27080333365E+03  0.92631607817E+02 0.  0.
          5    1    3    3  502    0  0.12210464294E+03 -0.55918883585E+02  0.13497123789E+03  0.19044992210E+03  0.41800000000E+01 0. -1.
         -5    1    3    3    0  502 -0.26469157297E+02 -0.29171369792E+02  0.12725909402E+02  0.41605363520E+02  0.41800000000E+01 0. -1.
        -11    1    4    4    0    0 -0.78831842210E+02  0.10001691810E+02  0.92478208306E+02  0.12192912776E+03  0.00000000000E+00 0. -1.
         11    1    4    4    0    0 -0.16803643434E+02  0.75088561566E+02  0.12744753692E+03  0.14887420589E+03  0.00000000000E+00 0.  1.
</event>
<event>
 8    1  0.6834011E-009  0.1085492E+03  0.7561462E-02  0.1263280E+00
          1   -1    0    0  501    0  0.00000000000E+00  0.00000000000E+00  0.63092170468E+02  0.63092170468E+02  0.00000000000E+00 0. -1.
         -1   -1    0    0    0  501 -0.00000000000E+00 -0.00000000000E+00 -0.27074110409E+03  0.27074110409E+03  0.00000000000E+00 0.  1.
         25    2    1    2    0    0  0.73573576459E+02 -0.19653655564E+02 -0.92614152588E+02  0.17327502999E+03  0.12509003728E+03 0.  0.
         23    2    1    2    0    0 -0.73573576459E+02  0.19653655564E+02 -0.11503478103E+03  0.16055824457E+03  0.82137760636E+02 0.  0.
          5    1    3    3  502    0  0.88783620778E+02 -0.14146850502E+02 -0.11456509381E+03  0.14568904495E+03  0.41800000000E+01 0.  1.
         -5    1    3    3    0  502 -0.15210044319E+02 -0.55068050621E+01  0.21950941222E+02  0.27585985042E+02  0.41800000000E+01 0.  1.
        -11    1    4    4    0    0 -0.71607101075E+02 -0.17070124370E+02 -0.89002492648E+02  0.11550069163E+03  0.00000000000E+00 0.  1.
         11    1    4    4    0    0 -0.19664753841E+01  0.36723779934E+02 -0.26032288385E+02  0.45057552936E+02  0.00000000000E+00 0. -1.
</event>
<event>
 8    1  0.6834011E-009  0.1424774E+03  0.7561462E-02  0.1210034E+00
         -1   -1    0    0    0  501 -0.00000000000E+00  0.00000000000E+00  0.29017605600E+02  0.29017605600E+02  0.00000000000E+00 0.  1.
          1   -1    0    0  501    0  0.00000000000E+00 -0.00000000000E+00 -0.79533508364E+03  0.79533508364E+03  0.00000000000E+00 0. -1.
         25    2    1    2    0    0  0.52502375318E+02  0.86206290450E+02 -0.33430284630E+03  0.37093698214E+03  0.12509127764E+03 0.  0.
         23    2    1    2    0    0 -0.52502375318E+02 -0.86206290450E+02 -0.43201463174E+03  0.45341570710E+03  0.93600948107E+02 0.  0.
          5    1    3    3  502    0  0.77264800201E+02  0.15891517386E+02 -0.22586528429E+03  0.23928014694E+03  0.41800000000E+01 0. -1.
         -5    1    3    3    0  502 -0.24762424884E+02  0.70314773063E+02 -0.10843756202E+03  0.13165683519E+03  0.41800000000E+01 0. -1.
        -11    1    4    4    0    0 -0.61105274632E+02 -0.19649604726E+02 -0.14354003849E+03  0.15723773149E+03  0.00000000000E+00 0.  1.
         11    1    4    4    0    0  0.86028993141E+01 -0.66556685724E+02 -0.28847459324E+03  0.29617797561E+03  0.00000000000E+00 0. -1.
</event>
<event>
 8    1  0.6834011E-009  0.1226292E+03  0.7561462E-02  0.1238822E+00
         -1   -1    0    0    0  501 -0.00000000000E+00  0.00000000000E+00  0.11395289109E+03  0.11395289109E+03  0.00000000000E+00 0.  1.
          1   -1    0    0  501    0  0.00000000000E+00 -0.00000000000E+00 -0.27995555309E+03  0.27995555309E+03  0.00000000000E+00 0. -1.
         25    2    1    2    0    0  0.59990529934E+02  0.96255608936E+02 -0.18106055234E+03  0.24757721027E+03  0.12509014949E+03 0.  0.
         23    2    1    2    0    0 -0.59990529934E+02 -0.96255608936E+02  0.15057890338E+02  0.14633123391E+03  0.91225457099E+02 0.  0.
          5    1    3    3  502    0 -0.13689432614E+02  0.20623952422E+02  0.11742732749E+02  0.27714836301E+02  0.41800000000E+01 0.  1.
         -5    1    3    3    0  502  0.73679962547E+02  0.75631656513E+02 -0.19280328508E+03  0.21986237397E+03  0.41800000000E+01 0.  1.
        -11    1    4    4    0    0 -0.30441640969E+02 -0.34420993203E+02  0.51246602967E+02  0.68831043822E+02  0.00000000000E+00 0.  1.
         11    1    4    4    0    0 -0.29548888965E+02 -0.61834615733E+02 -0.36188712630E+02  0.77500190088E+02  0.00000000000E+00 0. -1.
</event>
<event>
 8    1  0.6834011E-009  0.1990868E+03  0.7561462E-02  0.1150512E+00
          1   -1    0    0  501    0  0.00000000000E+00  0.00000000000E+00  0.43082663282E+03  0.43082663282E+03  0.00000000000E+00 0. -1.
         -1   -1    0    0    0  501 -0.00000000000E+00 -0.00000000000E+00 -0.11866486422E+03  0.11866486422E+03  0.00000000000E+00 0.  1.
         25    2    1    2    0    0  0.16080771894E+03  0.91339764411E+02  0.75269082516E+02  0.23561136065E+03  0.12508078769E+03 0.  0.
         23    2    1    2    0    0 -0.16080771894E+03 -0.91339764411E+02  0.23689268609E+03  0.31388013639E+03  0.90556724021E+02 0.  0.
          5    1    3    3  502    0 -0.64924870814E+01 -0.13522339430E+02 -0.12037890132E+02  0.19682206456E+02  0.41800000000E+01 0. -1.
         -5    1    3    3    0  502  0.16730020602E+03  0.10486210384E+03  0.87306972648E+02  0.21592915419E+03  0.41800000000E+01 0. -1.
        -11    1    4    4    0    0 -0.13294665329E+02 -0.51089484884E+01 -0.71734508346E+01  0.15947033509E+02  0.00000000000E+00 0.  1.
         11    1    4    4    0    0 -0.14751305361E+03 -0.86230815923E+02  0.24406613693E+03  0.29793310288E+03  0.00000000000E+00 0. -1.
</event>
<event>
 8    1  0.6834011E-009  0.1085756E+03  0.7561462E-02  0.1263231E+00
         -2   -1    0    0    0  501 -0.00000000000E+00  0.00000000000E+00  0.80487587406E+02  0.80487587406E+02  0.00000000000E+00 0.  1.
          2   -1    0    0  501    0  0.00000000000E+00 -0.00000000000E+00 -0.36840725907E+03  0.36840725907E+03  0.00000000000E+00 0. -1.
         25    2    1    2    0    0 -0.39922693413E+02 -0.81316966418E+02 -0.27825794730E+03  0.31824754142E+03  0.12509093456E+03 0.  0.
         23    2    1    2    0    0  0.39922693413E+02  0.81316966418E+02 -0.96617243722E+01  0.13064730506E+03  0.93643467070E+02 0.  0.
          5    1    3    3  502    0 -0.36909596845E+02 -0.64705769145E+02 -0.51115342925E+02  0.90440066244E+02  0.41800000000E+01 0.  1.
         -5    1    3    3    0  502 -0.30130965679E+01 -0.16611197273E+02 -0.22714260437E+03  0.22780747518E+03  0.41800000000E+01 0.  1.
        -11    1    4    4    0    0  0.45405206298E+02  0.97774303574E+02  0.50229244676E+01  0.10791977098E+03  0.00000000000E+00 0.  1.
         11    1    4    4    0    0 -0.54825128847E+01 -0.16457337156E+02 -0.14684648840E+02  0.22727534080E+02  0.00000000000E+00 0. -1.
</event>
<event>
 8    1  0.6834011E-009  0.9128112E+02  0.7561462E-02  0.1299779E+00
          2   -1    0    0  501    0  0.00000000000E+00  0.00000000000E+00  0.13071691260E+03  0.13071691260E+03  0.00000000000E+00 0. -1.
         -2   -1    0    0    0  501 -0.00000000000E+00 -0.00000000000E+00 -0.11661963653E+03  0.11661963653E+03  0.00000000000E+00 0.  1.
         25    2    1    2    0    0 -0.54790988483E+01  0.47082125305E+02 -0.26186756860E+02  0.13630774243E+03  0.12508919764E+03 0.  0.
         23    2    1    2    0    0  0.54790988483E+01 -0.47082125305E+02  0.40284032923E+02  0.11102880670E+03  0.91966545876E+02 0.  0.
          5    1    3    3  502    0 -0.34510816384E+02 -0.15366007967E+02  0.29121968433E+02  0.47881855580E+02  0.41800000000E+01 0. -1.
         -5    1    3    3    0  502  0.29031717536E+02  0.62448133272E+02 -0.55308725293E+02  0.88425886853E+02  0.41800000000E+01 0. -1.
        -11    1    4    4    0    0 -0.81544744944E+01 -0.57704618851E+02 -0.88477609816E+01  0.58945749341E+02  0.00000000000E+00 0.  1.
         11    1    4    4    0    0  0.13633573343E+02  0.10622493545E+02  0.49131793905E+02  0.52083057355E+02  0.00000000000E+00 0. -1.
</event>
<event>
 8    1  0.6834011E-009  0.1592905E+03  0.7561462E-02  0.1189500E+00
         -2   -1    0    0    0  501 -0.00000000000E+00  0.00000000000E+00  0.52409226415E+03  0.52409226415E+03  0.00000000000E+00 0.  1.
          2   -1    0    0  501    0  0.00000000000E+00 -0.00000000000E+00 -0.72569666264E+02  0.72569666264E+02  0.00000000000E+00 0. -1.
         25    2    1    2    0    0  0.15609128887E+02  0.14334888459E+03  0.12530567840E+03  0.22834441619E+03  0.12508841571E+03 0.  0.
         23    2    1    2    0    0 -0.15609128887E+02 -0.14334888459E+03  0.32621691948E+03  0.36831751423E+03  0.91911724556E+02 0.  0.
          5    1    3    3  502    0  0.29222285439E+02  0.70120054884E+02 -0.70564256557E+01  0.76406999720E+02  0.41800000000E+01 0.  1.
         -5    1    3    3    0  502 -0.13613156552E+02  0.73228829707E+02  0.13236210406E+03  0.15193741647E+03  0.41800000000E+01 0.  1.
        -11    1    4    4    0    0  0.23154813464E+02 -0.12091554470E+03  0.26748712477E+03  0.29445895513E+03  0.00000000000E+00 0.  1.
         11    1    4    4    0    0 -0.38763942351E+02 -0.22433339895E+02  0.58729794711E+02  0.73858559100E+02  0.00000000000E+00 0. -1.
</event>
<event>
 8    1  0.6834011E-009  0.1094973E+03  0.7561462E-02  0.1261504E+00
         -1   -1    0    0    0  501 -0.00000000000E+00  0.00000000000E+00  0.15387578103E+03  0.15387578103E+03  0.00000000000E+00 0. -1.
          1   -1    0    0  501    0  0.00000000000E+00 -0.00000000000E+00 -0.12568356190E+03  0.12568356190E+03  0.00000000000E+00 0.  1.
         25    2    1    2    0    0  0.41862145732E+02  0.61518256806E+02 -0.30747525530E+02  0.14876259417E+03  0.12509182200E+03 0.  0.
         23    2    1    2    0    0 -0.41862145732E+02 -0.61518256806E+02  0.58939744665E+02  0.13079674877E+03  0.89983114090E+02 0.  0.
          5    1    3    3  502    0 -0.10118815848E+02  0.49111048169E+02  0.36939666756E+02  0.62420324146E+02  0.41800000000E+01 0. -1.
         -5    1    3    3    0  502  0.51980961579E+02  0.12407208637E+02 -0.67687192286E+02  0.86342270021E+02  0.41800000000E+01 0. -1.
        -11    1    4    4    0    0  0.40267186517E+01  0.20607304480E+02  0.19940962089E+02  0.28957165436E+02  0.00000000000E+00 0. -1.
         11    1    4    4    0    0 -0.45888864383E+02 -0.82125561286E+02  0.38998782576E+02  0.10183958333E+03  0.00000000000E+00 0.  1.
</event>
<event>
 8    1  0.6834011E-009  0.9737679E+02  0.7561462E-02  0.1285911E+00
         -1   -1    0    0    0  501 -0.00000000000E+00  0.00000000000E+00  0.39262356887E+02  0.39262356887E+02  0.00000000000E+00 0.  1.
          1   -1    0    0  501    0  0.00000000000E+00 -0.00000000000E+00 -0.66463479701E+03  0.66463479701E+03  0.00000000000E+00 0. -1.
         25    2    1    2    0    0  0.42878251063E+02  0.62685434647E+02 -0.53290506248E+03  0.55263240983E+03  0.12508703633E+03 0.  0.
         23    2    1    2    0    0 -0.42878251063E+02 -0.62685434647E+02 -0.92467377649E+02  0.15126474406E+03  0.92535391802E+02 0.  0.
          5    1    3    3  502    0  0.55107459256E+02  0.54680381675E+02 -0.14583317777E+03  0.16526210801E+03  0.41800000000E+01 0. -1.
         -5    1    3    3    0  502 -0.12229208193E+02  0.80050529727E+01 -0.38707188470E+03  0.38737030182E+03  0.41800000000E+01 0. -1.
        -11    1    4    4    0    0 -0.60814616785E+02 -0.55982552237E+02 -0.33366018397E+02  0.89138964282E+02  0.00000000000E+00 0.  1.
         11    1    4    4    0    0  0.17936365722E+02 -0.67028824107E+01 -0.59101359251E+02  0.62125779780E+02  0.00000000000E+00 0. -1.
</event>
<event>
 8    1  0.6834011E-009  0.1113606E+03  0.7561462E-02  0.1258071E+00
         -2   -1    0    0    0  501 -0.00000000000E+00  0.00000000000E+00  0.75073161789E+02  0.75073161789E+02  0.00000000000E+00 0.  1.
          2   -1    0    0  501    0  0.00000000000E+00 -0.00000000000E+00 -0.19250474401E+03  0.19250474401E+03  0.00000000000E+00 0. -1.
         25    2    1    2    0    0 -0.29910086662E+02  0.17337663751E+02 -0.10707449142E+03  0.16824138280E+03  0.12508000762E+03 0.  0.
         23    2    1    2    0    0  0.29910086662E+02 -0.17337663751E+02 -0.10357090805E+02  0.99336522996E+02  0.92548730961E+02 0.  0.
          5    1    3    3  502    0 -0.26193957254E+01  0.68970021371E+02 -0.42912227360E+02  0.81379707169E+02  0.41800000000E+01 0.  1.
         -5    1    3    3    0  502 -0.27290690937E+02 -0.51632357620E+02 -0.64162264057E+02  0.86861675635E+02  0.41800000000E+01 0.  1.
        -11    1    4    4    0    0  0.16612396551E+02  0.36216199034E+02  0.90205903329E+01  0.40852855978E+02  0.00000000000E+00 0.  1.
         11    1    4    4    0    0  0.13297690112E+02 -0.53553862786E+02 -0.19377681137E+02  0.58483667018E+02  0.00000000000E+00 0. -1.
</event>
<event>
 8    1  0.6834011E-009  0.8050057E+02  0.7561462E-02  0.1327637E+00
          3   -1    0    0  501    0  0.00000000000E+00  0.00000000000E+00  0.65735314034E+02  0.65735314034E+02  0.00000000000E+00 0. -1.
         -3   -1    0    0    0  501 -0.00000000000E+00 -0.00000000000E+00 -0.20166211813E+03  0.20166211813E+03  0.00000000000E+00 0.  1.
         25    2    1    2    0    0  0.12827167904E+02 -0.46464692777E+02 -0.65082911746E+02  0.14901876726E+03  0.12508918291E+03 0.  0.
         23    2    1    2    0    0 -0.12827167904E+02  0.46464692777E+02 -0.70843892352E+02  0.11837866491E+03  0.81677091715E+02 0.  0.
          5    1    3    3  502    0 -0.77626049304E+01  0.60692569256E+01  0.33601638104E+02  0.35265229308E+02  0.41800000000E+01 0.  1.
         -5    1    3    3    0  502  0.20589772835E+02 -0.52533949702E+02 -0.98684549849E+02  0.11375353795E+03  0.41800000000E+01 0.  1.
        -11    1    4    4    0    0  0.18966826365E+02 -0.15222183478E+02 -0.26771143961E+02  0.36168349716E+02  0.00000000000E+00 0. -1.
         11    1    4    4    0    0 -0.31793994269E+02  0.61686876254E+02 -0.44072748391E+02  0.82210315194E+02  0.00000000000E+00 0.  1.
</event>
<event>
 8    1  0.6834011E-009  0.2398095E+03  0.7561462E-02  0.1119920E+00
          1   -1    0    0  501    0  0.00000000000E+00  0.00000000000E+00  0.66695182974E+03  0.66695182974E+03  0.00000000000E+00 0. -1.
         -1   -1    0    0    0  501 -0.00000000000E+00 -0.00000000000E+00 -0.90837215823E+02  0.90837215823E+02  0.00000000000E+00 0.  1.
         25    2    1    2    0    0  0.16772262988E+02  0.22006476117E+03  0.30571797927E+03  0.39726306863E+03  0.12507859501E+03 0.  0.
         23    2    1    2    0    0 -0.16772262988E+02 -0.22006476117E+03  0.27039663465E+03  0.36052597694E+03  0.90304109006E+02 0.  0.
          5    1    3    3  502    0  0.21803751359E+02 -0.26749407187E+01  0.67316824273E+02  0.70933674030E+02  0.41800000000E+01 0. -1.
         -5    1    3    3    0  502 -0.50314883706E+01  0.22273970189E+03  0.23840115500E+03  0.32632939460E+03  0.41800000000E+01 0. -1.
        -11    1    4    4    0    0  0.28231155867E+02 -0.13770076488E+03  0.19363660990E+03  0.23927731924E+03  0.00000000000E+00 0.  1.
         11    1    4    4    0    0 -0.45003418856E+02 -0.82363996294E+02  0.76760024748E+02  0.12124865770E+03  0.00000000000E+00 0. -1.
</event>
<event>
 8    1  0.6834011E-009  0.1002819E+03  0.7561462E-02  0.1279704E+00
         -1   -1    0    0    0  501 -0.00000000000E+00  0.00000000000E+00  0.71002581664E+02  0.71002581664E+02  0.00000000000E+00 0.  1.
          1   -1    0    0  501    0  0.00000000000E+00 -0.00000000000E+00 -0.28828156069E+03  0.28828156069E+03  0.00000000000E+00 0. -1.
         25    2    1    2    0    0 -0.16491764577E+02 -0.22895875394E+01 -0.23429814436E+03  0.26612036538E+03  0.12508880009E+03 0.  0.
         23    2    1    2    0    0  0.16491764577E+02  0.22895875394E+01  0.17019165329E+02  0.93163776983E+02  0.90070066300E+02 0.  0.
          5    1    3    3  502    0 -0.94700745192E+01 -0.56973401071E+02 -0.60529026385E+02  0.83766856072E+02  0.41800000000E+01 0. -1.
         -5    1    3    3    0  502 -0.70216900575E+01  0.54683813531E+02 -0.17376911797E+03  0.18235350930E+03  0.41800000000E+01 0. -1.
        -11    1    4    4    0    0 -0.15216306107E+02  0.37208469787E+02  0.21843077291E+02  0.45750696399E+02  0.00000000000E+00 0.  1.
         11    1    4    4    0    0  0.31708070684E+02 -0.34918882247E+02 -0.48239119618E+01  0.47413080584E+02  0.00000000000E+00 0. -1.
</event>
<event>
 8    1  0.6834011E-009  0.1004673E+03  0.7561462E-02  0.1279316E+00
          1   -1    0    0  501    0  0.00000000000E+00  0.00000000000E+00  0.23362093793E+03  0.23362093793E+03  0.00000000000E+00 0. -1.
         -1   -1    0    0    0  501 -0.00000000000E+00 -0.00000000000E+00 -0.71981021220E+02  0.71981021220E+02  0.00000000000E+00 0.  1.
         25    2    1    2    0    0  0.20889780499E+02 -0.49980693664E+02  0.14045367213E+03  0.19572275969E+03  0.12508282048E+03 0.  0.
         23    2    1    2    0    0 -0.20889780499E+02  0.49980693664E+02  0.21186244581E+02  0.10987919946E+03  0.93220860572E+02 0.  0.
          5    1    3    3  502    0 -0.47672212720E+02 -0.75712190884E+01  0.84820118488E+02  0.97682588645E+02  0.41800000000E+01 0. -1.
         -5    1    3    3    0  502  0.68561993219E+02 -0.42409474576E+02  0.55633553638E+02  0.98040171044E+02  0.41800000000E+01 0. -1.
        -11    1    4    4    0    0 -0.15475273495E+01  0.52258792928E+02 -0.26321916896E+02  0.58533918272E+02  0.00000000000E+00 0.  1.
         11    1    4    4    0    0 -0.19342253150E+02 -0.22780992637E+01  0.47508161478E+02  0.51345281187E+02  0.00000000000E+00 0. -1.
</event>
<event>
 8    1  0.6834011E-009  0.1427122E+03  0.7561462E-02  0.1209725E+00
          2   -1    0    0  501    0  0.00000000000E+00  0.00000000000E+00  0.22108070519E+03  0.22108070519E+03  0.00000000000E+00 0. -1.
         -2   -1    0    0    0  501 -0.00000000000E+00 -0.00000000000E+00 -0.13384218856E+03  0.13384218856E+03  0.00000000000E+00 0.  1.
         25    2    1    2    0    0  0.45272311149E+02  0.83485743107E+02  0.14131510218E+03  0.21127414782E+03  0.12508939194E+03 0.  0.
         23    2    1    2    0    0 -0.45272311149E+02 -0.83485743107E+02 -0.54076585550E+02  0.14364874593E+03  0.93226786084E+02 0.  0.
          5    1    3    3  502    0  0.86599631235E+02  0.61858463147E+02  0.11800949120E+03  0.15896439226E+03  0.41800000000E+01 0.  1.
         -5    1    3    3    0  502 -0.41327320087E+02  0.21627279959E+02  0.23305610978E+02  0.52309755563E+02  0.41800000000E+01 0.  1.
        -11    1    4    4    0    0 -0.19456897932E+02 -0.99714404778E+02 -0.48782449746E+02  0.11269987046E+03  0.00000000000E+00 0. -1.
         11    1    4    4    0    0 -0.25815413216E+02  0.16228661672E+02 -0.52941358035E+01  0.30948875474E+02  0.00000000000E+00 0.  1.
</event>
<event>
 8    1  0.6834011E-009  0.1273122E+03  0.7561462E-02  0.1231499E+00
          4   -1    0    0  501    0  0.00000000000E+00  0.00000000000E+00  0.44622220494E+02  0.44622220494E+02  0.00000000000E+00 0.  1.
         -4   -1    0    0    0  501 -0.00000000000E+00 -0.00000000000E+00 -0.41015566880E+03  0.41015566880E+03  0.00000000000E+00 0. -1.
         25    2    1    2    0    0 -0.17185367267E+02  0.76470056783E+02 -0.15220752822E+03  0.21203119314E+03  0.12508832393E+03 0.  0.
         23    2    1    2    0    0  0.17185367267E+02 -0.76470056783E+02 -0.21332592009E+03  0.24274669616E+03  0.85293633304E+02 0.  0.
          5    1    3    3  502    0 -0.46904907651E+02  0.99303650414E+02 -0.11306192731E+03  0.15767611472E+03  0.41800000000E+01 0.  1.
         -5    1    3    3    0  502  0.29719540384E+02 -0.22833593631E+02 -0.39145600915E+02  0.54355078417E+02  0.41800000000E+01 0.  1.
        -11    1    4    4    0    0 -0.18766234865E+02  0.37187155549E+01 -0.10782718246E+02  0.21960588088E+02  0.00000000000E+00 0.  1.
         11    1    4    4    0    0  0.35951602132E+02 -0.80188772338E+02 -0.20254320184E+03  0.22078610807E+03  0.00000000000E+00 0. -1.
</event>
<event>
 8    1  0.6834011E-009  0.1172453E+03  0.7561462E-02  0.1247712E+00
         -1   -1    0    0    0  501 -0.00000000000E+00  0.00000000000E+00  0.25788087239E+02  0.25788087239E+02  0.00000000000E+00 0.  1.
          1   -1    0    0  501    0  0.00000000000E+00 -0.00000000000E+00 -0.95575445410E+03  0.95575445410E+03  0.00000000000E+00 0. -1.
         25    2    1    2    0    0  0.81736329312E+02 -0.47392504152E+02 -0.69308376006E+03  0.71059015543E+03  0.12508554493E+03 0.  0.
         23    2    1    2    0    0 -0.81736329312E+02  0.47392504152E+02 -0.23688260681E+03  0.27095238592E+03  0.91514747708E+02 0.  0.
          5    1    3    3  502    0  0.11067000875E+02 -0.64752562827E+02 -0.16739334904E+03  0.17987044950E+03  0.41800000000E+01 0.  1.
         -5    1    3    3    0  502  0.70669328437E+02  0.17360058675E+02 -0.52569041102E+03  0.53071970592E+03  0.41800000000E+01 0.  1.
        -11    1    4    4    0    0 -0.83404533749E+01  0.11136891602E+02  0.56194831648E+01  0.15005735839E+02  0.00000000000E+00 0.  1.
         11    1    4    4    0    0 -0.73395875937E+02  0.36255612551E+02 -0.24250208997E+03  0.25594665008E+03  0.00000000000E+00 0. -1.
</event>
<event>
 8    1  0.6834011E-009  0.1344542E+03  0.7561462E-02  0.1220992E+00
         -1   -1    0    0    0  501 -0.00000000000E+00  0.00000000000E+00  0.36896536888E+02  0.36896536888E+02  0.00000000000E+00 0.  1.
          1   -1    0    0  501    0  0.00000000000E+00 -0.00000000000E+00 -0.49137293647E+03  0.49137293647E+03  0.00000000000E+00 0. -1.
         25    2    1    2    0    0  0.75966381156E+02  0.26610864504E+02 -0.24550822131E+03  0.28705682477E+03  0.12509318424E+03 0.  0.
         23    2    1    2    0    0 -0.75966381156E+02 -0.26610864504E+02 -0.20896817827E+03  0.24121264858E+03  0.89648274552E+02 0.  0.
          5    1    3    3  502    0 -0.27604303997E+02  0.34614745380E+02 -0.65163803452E+02  0.78892153458E+02  0.41800000000E+01 0.  1.
         -5    1    3    3    0  502  0.10357068515E+03 -0.80038808758E+01 -0.18034441786E+03  0.20816467132E+03  0.41800000000E+01 0.  1.
        -11    1    4    4    0    0  0.16177557639E+02 -0.23178963191E+02 -0.47881404684E+02  0.55602217764E+02  0.00000000000E+00 0. -1.
         11    1    4    4    0    0 -0.92143938796E+02 -0.34319013130E+01 -0.16108677359E+03  0.18561043082E+03  0.00000000000E+00 0.  1.
</event>
<event>
 8    1  0.6834011E-009  0.1147195E+03  0.7561462E-02  0.1252072E+00
         -2   -1    0    0    0  501 -0.00000000000E+00  0.00000000000E+00  0.80254416993E+03  0.80254416993E+03  0.00000000000E+00 0.  1.
          2   -1    0    0  501    0  0.00000000000E+00 -0.00000000000E+00 -0.24986972732E+02  0.24986972732E+02  0.00000000000E+00 0. -1.
         25    2    1    2    0    0 -0.72114059514E+02 -0.41079008062E+02  0.53730802215E+03  0.55788414702E+03  0.12508752273E+03 0.  0.
         23    2    1    2    0    0  0.72114059514E+02  0.41079008062E+02  0.24024917505E+03  0.26964699564E+03  0.90010630847E+02 0.  0.
          5    1    3    3  502    0 -0.93639268503E+02 -0.39472897993E+02  0.52013754261E+03  0.52998769600E+03  0.41800000000E+01 0.  1.
         -5    1    3    3    0  502  0.21525208990E+02 -0.16061100684E+01  0.17170479541E+02  0.27896451015E+02  0.41800000000E+01 0.  1.
        -11    1    4    4    0    0  0.37952452490E+02 -0.14401931710E+02  0.32744491877E+02  0.52153677102E+02  0.00000000000E+00 0. -1.
         11    1    4    4    0    0  0.34161607024E+02  0.55480939771E+02  0.20750468317E+03  0.21749331854E+03  0.00000000000E+00 0.  1.
</event>
<event>
 8    1  0.6834011E-009  0.1201573E+03  0.7561462E-02  0.1242838E+00
          1   -1    0    0  501    0  0.00000000000E+00  0.00000000000E+00  0.10255834002E+03  0.10255834002E+03  0.00000000000E+00 0. -1.
         -1   -1    0    0    0  501 -0.00000000000E+00 -0.00000000000E+00 -0.15290611189E+03  0.15290611189E+03  0.00000000000E+00 0.  1.
         25    2    1    2    0    0  0.33812250633E+02 -0.49547831820E+02 -0.45892091738E+02  0.14612085108E+03  0.12508782157E+03 0.  0.
         23    2    1    2    0    0 -0.33812250633E+02  0.49547831820E+02 -0.44556801251E+01  0.10934360083E+03  0.91312178960E+02 0.  0.
          5    1    3    3  502    0  0.68907570438E+02 -0.67722821507E+02 -0.20190170635E+02  0.98791442984E+02  0.41800000000E+01 0.  1.
         -5    1    3    3    0  502 -0.35095319805E+02  0.18174989687E+02 -0.25701921103E+02  0.47329408096E+02  0.41800000000E+01 0.  1.
        -11    1    4    4    0    0  0.28693917802E+02  0.13517323062E+02 -0.17196325665E+02  0.36080085337E+02  0.00000000000E+00 0.  1.
         11    1    4    4    0    0 -0.62506168435E+02  0.36030508758E+02  0.12740645540E+02  0.73263515494E+02  0.00000000000E+00 0. -1.
</event>
<event>
 8    1  0.6834011E-009  0.1916309E+03  0.7561462E-02  0.1156999E+00
          1   -1    0    0  501    0  0.00000000000E+00  0.00000000000E+00  0.36219728822E+03  0.36219728822E+03  0.00000000000E+00 0. -1.
         -1   -1    0    0    0  501 -0.00000000000E+00 -0.00000000000E+00 -0.13593904897E+03  0.13593904897E+03  0.00000000000E+00 0.  1.
         25    2    1    2    0    0  0.15624630801E+03  0.94949728383E+02  0.47631463747E+02  0.22659497194E+03  0.12509262682E+03 0.  0.
         23    2    1    2    0    0 -0.15624630801E+03 -0.94949728383E+02  0.17862677550E+03  0.27154136525E+03  0.91645122252E+02 0.  0.
          5    1    3    3  502    0  0.11631483363E+03  0.64578269596E+02  0.90099067820E+02  0.16073209962E+03  0.41800000000E+01 0. -1.
         -5    1    3    3    0  502  0.39931474372E+02  0.30371458787E+02 -0.42467604074E+02  0.65862872319E+02  0.41800000000E+01 0. -1.
        -11    1    4    4    0    0 -0.15304486693E+03 -0.59475490289E+02  0.12165883329E+03  0.20435492887E+03  0.00000000000E+00 0.  1.
         11    1    4    4    0    0 -0.32014410771E+01 -0.35474238093E+02  0.56967942215E+02  0.67186436380E+02  0.00000000000E+00 0. -1.
</event>
<event>
 8    1  0.6834011E-009  0.1992527E+03  0.7561462E-02  0.1150371E+00
          2   -1    0    0  501    0  0.00000000000E+00  0.00000000000E+00  0.91579292087E+03  0.91579292087E+03  0.00000000000E+00 0. -1.
         -2   -1    0    0    0  501 -0.00000000000E+00 -0.00000000000E+00 -0.73664463326E+02  0.73664463326E+02  0.00000000000E+00 0.  1.
         25    2    1    2    0    0 -0.10424739349E+03  0.15861180105E+03  0.69804650808E+03  0.73412675005E+03  0.12509170723E+03 0.  0.
         23    2    1    2    0    0  0.10424739349E+03 -0.15861180105E+03  0.14408194947E+03  0.25533063414E+03  0.91700065901E+02 0.  0.
          5    1    3    3  502    0 -0.54449604937E+02  0.80220922667E+02  0.15280401609E+03  0.18101573314E+03  0.41800000000E+01 0.  1.
         -5    1    3    3    0  502 -0.49797788558E+02  0.78390878386E+02  0.54524249199E+03  0.55311101691E+03  0.41800000000E+01 0.  1.
        -11    1    4    4    0    0  0.28436923357E+02  0.43463036506E+01  0.78904700134E+01  0.29829657767E+02  0.00000000000E+00 0. -1.
         11    1    4    4    0    0  0.75810470137E+02 -0.16295810470E+03  0.13619147945E+03  0.22550097638E+03  0.00000000000E+00 0.  1.
</event>
<event>
 8    1  0.6834011E-009  0.1265090E+03  0.7561462E-02  0.1232730E+00
         -3   -1    0    0    0  501 -0.00000000000E+00  0.00000000000E+00  0.17480463521E+03  0.17480463521E+03  0.00000000000E+00 0.  1.
          3   -1    0    0  501    0  0.00000000000E+00 -0.00000000000E+00 -0.12132962844E+03  0.12132962844E+03  0.00000000000E+00 0. -1.
         25    2    1    2    0    0  0.41674227015E+02  0.86784117552E+02  0.10278517156E+02  0.15818428468E+03  0.12509354799E+03 0.  0.
         23    2    1    2    0    0 -0.41674227015E+02 -0.86784117552E+02  0.43196489609E+02  0.13794997897E+03  0.88859640590E+02 0.  0.
          5    1    3    3  502    0 -0.18803655851E+02  0.56167016964E+02  0.51617300887E+02  0.78677375521E+02  0.41800000000E+01 0.  1.
         -5    1    3    3    0  502  0.60477882865E+02  0.30617100589E+02 -0.41338783731E+02  0.79506909163E+02  0.41800000000E+01 0.  1.
        -11    1    4    4    0    0  0.12655903371E+02 -0.66559948815E+02  0.38015894327E+01  0.67859050676E+02  0.00000000000E+00 0. -1.
         11    1    4    4    0    0 -0.54330130385E+02 -0.20224168737E+02  0.39394900177E+02  0.70090928291E+02  0.00000000000E+00 0.  1.
</event>
<event>
 8    1  0.6834011E-009  0.1652894E+03  0.7561462E-02  0.1182851E+00
          2   -1    0    0  501    0  0.00000000000E+00  0.00000000000E+00  0.42607972291E+03  0.42607972291E+03  0.00000000000E+00 0. -1.
         -2   -1    0    0    0  501 -0.00000000000E+00 -0.00000000000E+00 -0.68939869604E+02  0.68939869604E+02  0.00000000000E+00 0.  1.
         25    2    1    2    0    0  0.12259219686E+03 -0.39661567962E+02  0.14593413934E+03  0.23140285446E+03  0.12509444962E+03 0.  0.
         23    2    1    2    0    0 -0.12259219686E+03  0.39661567962E+02  0.21120571397E+03  0.26361673805E+03  0.91016725188E+02 0.  0.
          5    1    3    3  502    0  0.14044121728E+02 -0.66123477450E+02  0.52375719959E+02  0.85616821165E+02  0.41800000000E+01 0. -1.
         -5    1    3    3    0  502  0.10854807513E+03  0.26461909488E+02  0.93558419376E+02  0.14578603330E+03  0.41800000000E+01 0. -1.
        -11    1    4    4    0    0 -0.53668849310E+02  0.58705275067E+02  0.72778159486E+02  0.10781147993E+03  0.00000000000E+00 0.  1.
         11    1    4    4    0    0 -0.68923347547E+02 -0.19043707105E+02  0.13842755448E+03  0.15580525812E+03  0.00000000000E+00 0. -1.
</event>
<event>
 8    1  0.6834011E-009  0.1199890E+03  0.7561462E-02  0.1243115E+00
          3   -1    0    0  501    0  0.00000000000E+00  0.00000000000E+00  0.60848354492E+02  0.60848354492E+02  0.00000000000E+00 0. -1.
         -3   -1    0    0    0  501 -0.00000000000E+00 -0.00000000000E+00 -0.34544125652E+03  0.34544125652E+03  0.00000000000E+00 0.  1.
         25    2    1    2    0    0  0.83676498367E+02 -0.85837656468E+01 -0.91308153911E+02  0.17623858984E+03  0.12508966451E+03 0.  0.
         23    2    1    2    0    0 -0.83676498367E+02  0.85837656468E+01 -0.19328474812E+03  0.23005102117E+03  0.92135992285E+02 0.  0.
          5    1    3    3  502    0  0.91378357787E+02  0.21664592016E+02 -0.10583689284E+03  0.14155662862E+03  0.41800000000E+01 0. -1.
         -5    1    3    3    0  502 -0.77018594199E+01 -0.30248357662E+02  0.14528738929E+02  0.34681961229E+02  0.41800000000E+01 0. -1.
        -11    1    4    4    0    0  0.12347615311E+02  0.13546087949E+02 -0.55926947906E+01  0.19163463612E+02  0.00000000000E+00 0. -1.
         11    1    4    4    0    0 -0.96024113678E+02 -0.49623223021E+01 -0.18769205333E+03  0.21088755756E+03  0.00000000000E+00 0.  1.
</event>
<event>
 8    1  0.6834011E-009  0.1468517E+03  0.7561462E-02  0.1204396E+00
         -1   -1    0    0    0  501 -0.00000000000E+00  0.00000000000E+00  0.26546355434E+02  0.26546355434E+02  0.00000000000E+00 0.  1.
          1   -1    0    0  501    0  0.00000000000E+00 -0.00000000000E+00 -0.88270015846E+03  0.88270015846E+03  0.00000000000E+00 0. -1.
         25    2    1    2    0    0 -0.30425099015E+02  0.97314857484E+02 -0.39631086407E+03  0.42790366516E+03  0.12507348853E+03 0.  0.
         23    2    1    2    0    0  0.30425099015E+02 -0.97314857484E+02 -0.45984293895E+03  0.48134284874E+03  0.99194462500E+02 0.  0.
          5    1    3    3  502    0 -0.11424856104E+02 -0.30071928305E+02 -0.84608216103E+02  0.90613855679E+02  0.41800000000E+01 0. -1.
         -5    1    3    3    0  502 -0.19000242912E+02  0.12738678579E+03 -0.31170264797E+03  0.33728980948E+03  0.41800000000E+01 0. -1.
        -11    1    4    4    0    0 -0.80386769901E+01 -0.93391380287E+02 -0.39391338837E+03  0.40491274094E+03  0.00000000000E+00 0. -1.
         11    1    4    4    0    0  0.38463776006E+02 -0.39234771970E+01 -0.65929550581E+02  0.76430107796E+02  0.00000000000E+00 0.  1.
</event>
<event>
 8    1  0.6834011E-009  0.9837594E+02  0.7561462E-02  0.1283749E+00
          2   -1    0    0  501    0  0.00000000000E+00  0.00000000000E+00  0.55109228906E+03  0.55109228906E+03  0.00000000000E+00 0. -1.
         -2   -1    0    0    0  501 -0.00000000000E+00 -0.00000000000E+00 -0.31295209447E+02  0.31295209447E+02  0.00000000000E+00 0.  1.
         25    2    1    2    0    0 -0.48860701595E+02 -0.70637340186E+01  0.15948629864E+03  0.20861712714E+03  0.12509181340E+03 0.  0.
         23    2    1    2    0    0  0.48860701595E+02  0.70637340186E+01  0.36031078097E+03  0.37377037137E+03  0.86273791699E+02 0.  0.
          5    1    3    3  502    0 -0.68903738989E+02 -0.23675267156E+02  0.16610869001E+03  0.18143266745E+03  0.41800000000E+01 0.  1.
         -5    1    3    3    0  502  0.20043037393E+02  0.16611533137E+02 -0.66223913626E+01  0.27184459687E+02  0.41800000000E+01 0.  1.
        -11    1    4    4    0    0  0.17411540911E+02  0.44930076552E+02  0.21553291827E+03  0.22085359945E+03  0.00000000000E+00 0. -1.
         11    1    4    4    0    0  0.31449160685E+02 -0.37866342533E+02  0.14477786270E+03  0.15291677192E+03  0.00000000000E+00 0.  1.
</event>
<event>
 8    1  0.6834011E-009  0.1204212E+03  0.7561462E-02  0.1242404E+00
          1   -1    0    0  501    0  0.00000000000E+00  0.00000000000E+00  0.54159554561E+03  0.54159554561E+03  0.00000000000E+00 0.  1.
         -1   -1    0    0    0  501 -0.00000000000E+00 -0.00000000000E+00 -0.34794152332E+02  0.34794152332E+02  0.00000000000E+00 0. -1.
         25    2    1    2    0    0 -0.59444133239E+02 -0.45814216477E+02  0.20471416679E+03  0.25137338451E+03  0.12509252954E+03 0.  0.
         23    2    1    2    0    0  0.59444133239E+02  0.45814216477E+02  0.30208722649E+03  0.32501631343E+03  0.93521998384E+02 0.  0.
          5    1    3    3  502    0 -0.77036122753E+02 -0.77370060758E+02  0.15975986503E+03  0.19354941846E+03  0.41800000000E+01 0. -1.
         -5    1    3    3    0  502  0.17591989514E+02  0.31555844281E+02  0.44954301762E+02  0.57823966055E+02  0.41800000000E+01 0. -1.
        -11    1    4    4    0    0  0.53194780650E+01  0.40476002679E+02  0.23563401024E+03  0.23914428787E+03  0.00000000000E+00 0.  1.
         11    1    4    4    0    0  0.54124655174E+02  0.53382137982E+01  0.66453216251E+02  0.85872025563E+02  0.00000000000E+00 0. -1.
</event>
<event>
 8    1  0.6834011E-009  0.1619428E+03  0.7561462E-02  0.1186521E+00
         -2   -1    0    0    0  501 -0.00000000000E+00  0.00000000000E+00  0.21338035594E+03  0.21338035594E+03  0.00000000000E+00 0.  1.
          2   -1    0    0  501    0  0.00000000000E+00 -0.00000000000E+00 -0.15278742594E+03  0.15278742594E+03  0.00000000000E+00 0. -1.
         25    2    1    2    0    0  0.84794098385E+02 -0.96907544655E+02  0.94746435569E+02  0.20298971373E+03  0.12508727151E+03 0.  0.
         23    2    1    2    0    0 -0.84794098385E+02  0.96907544655E+02 -0.34153505565E+02  0.16317806816E+03  0.94231144811E+02 0.  0.
          5    1    3    3  502    0  0.73437999475E+01 -0.86848556905E+02  0.88885210566E+02  0.12455784315E+03  0.41800000000E+01 0.  1.
         -5    1    3    3    0  502  0.77450298437E+02 -0.10058987751E+02  0.58612250033E+01  0.78431870570E+02  0.41800000000E+01 0.  1.
        -11    1    4    4    0    0 -0.10351931129E+03  0.67603551138E+02 -0.34637887168E+02  0.12839887524E+03  0.00000000000E+00 0. -1.
         11    1    4    4    0    0  0.18725212901E+02  0.29303993517E+02  0.48438160305E+00  0.34779192914E+02  0.00000000000E+00 0.  1.
</event>
<event>
 8    1  0.6834011E-009  0.7176884E+02  0.7561462E-02  0.1354179E+00
         -2   -1    0    0    0  501 -0.00000000000E+00  0.00000000000E+00  0.99242906492E+02  0.99242906492E+02  0.00000000000E+00 0.  1.
          2   -1    0    0  501    0  0.00000000000E+00 -0.00000000000E+00 -0.12258555402E+03  0.12258555402E+03  0.00000000000E+00 0. -1.
         25    2    1    2    0    0 -0.20319431530E+02 -0.42393662811E+01 -0.11346983276E+02  0.12730786244E+03  0.12509071223E+03 0.  0.
         23    2    1    2    0    0  0.20319431530E+02  0.42393662811E+01 -0.11995664256E+02  0.94520598071E+02  0.91429732443E+02 0.  0.
          5    1    3    3  502    0  0.24837948194E+02  0.30293037747E+02  0.35878162146E+02  0.53285145447E+02  0.41800000000E+01 0.  1.
         -5    1    3    3    0  502 -0.45157379724E+02 -0.34532404028E+02 -0.47225145421E+02  0.74022716997E+02  0.41800000000E+01 0.  1.
        -11    1    4    4    0    0 -0.11735376425E+02  0.89263977093E+01 -0.45551653265E+02  0.47878520770E+02  0.00000000000E+00 0. -1.
         11    1    4    4    0    0  0.32054807955E+02 -0.46870314282E+01  0.33555989009E+02  0.46642077302E+02  0.00000000000E+00 0.  1.
</event>
<event>
 8    1  0.6834011E-009  0.1240996E+03  0.7561462E-02  0.1236483E+00
          1   -1    0    0  501    0  0.00000000000E+00  0.00000000000E+00  0.80877094913E+02  0.80877094913E+02  0.00000000000E+00 0. -1.
         -1   -1    0    0    0  501 -0.00000000000E+00 -0.00000000000E+00 -0.20938948875E+03  0.20938948875E+03  0.00000000000E+00 0.  1.
         25    2    1    2    0    0 -0.60925731488E+02  0.37394372116E+02 -0.60771571510E+02  0.15636901134E+03  0.12509116668E+03 0.  0.
         23    2    1    2    0    0  0.60925731488E+02 -0.37394372116E+02 -0.67740822323E+02  0.13389757231E+03  0.90716354863E+02 0.  0.
          5    1    3    3  502    0 -0.60456485444E+02 -0.35303396934E+02 -0.39565903764E+02  0.80524838454E+02  0.41800000000E+01 0.  1.
         -5    1    3    3    0  502 -0.46924604418E+00  0.72697769050E+02 -0.21205667746E+02  0.75844172889E+02  0.41800000000E+01 0.  1.
        -11    1    4    4    0    0  0.19926420822E+02 -0.56575006018E+02 -0.10452884301E+02  0.60885600456E+02  0.00000000000E+00 0. -1.
         11    1    4    4    0    0  0.40999310666E+02  0.19180633902E+02 -0.57287938022E+02  0.73011971859E+02  0.00000000000E+00 0.  1.
</event>
<event>
 8    1  0.6834011E-009  0.1114185E+03  0.7561462E-02  0.1257965E+00
          2   -1    0    0  501    0  0.00000000000E+00  0.00000000000E+00  0.50194523373E+02  0.50194523373E+02  0.00000000000E+00 0. -1.
         -2   -1    0    0    0  501 -0.00000000000E+00 -0.00000000000E+00 -0.33582640683E+03  0.33582640683E+03  0.00000000000E+00 0.  1.
         25    2    1    2    0    0  0.49009575534E+02 -0.44172909494E+02 -0.18998649932E+03  0.23684489957E+03  0.12508977617E+03 0.  0.
         23    2    1    2    0    0 -0.49009575534E+02  0.44172909494E+02 -0.95645384138E+02  0.14917603063E+03  0.93553536446E+02 0.  0.
          5    1    3    3  502    0 -0.43063869027E+01 -0.55708974919E+02 -0.22036885435E+02  0.60209065550E+02  0.41800000000E+01 0. -1.
         -5    1    3    3    0  502  0.53315962437E+02  0.11536065425E+02 -0.16794961388E+03  0.17663583402E+03  0.41800000000E+01 0. -1.
        -11    1    4    4    0    0  0.23916261381E+02  0.29032988764E+02 -0.18409900707E+02  0.41878711048E+02  0.00000000000E+00 0.  1.
         11    1    4    4    0    0 -0.72925836915E+02  0.15139920730E+02 -0.77235483431E+02  0.10729731959E+03  0.00000000000E+00 0. -1.
</event>
<event>
 8    1  0.6834011E-009  0.1554988E+03  0.7561462E-02  0.1193874E+00
          2   -1    0    0  501    0  0.00000000000E+00  0.00000000000E+00  0.13242473355E+04  0.13242473355E+04  0.00000000000E+00 0. -1.
         -2   -1    0    0    0  501 -0.00000000000E+00 -0.00000000000E+00 -0.20288204212E+02  0.20288204212E+02  0.00000000000E+00 0.  1.
         25    2    1    2    0    0  0.14346229993E+02  0.11455847467E+03  0.86344555207E+03  0.88006542539E+03  0.12508986025E+03 0.  0.
         23    2    1    2    0    0 -0.14346229993E+02 -0.11455847467E+03  0.44051357920E+03  0.46447011431E+03  0.91382794835E+02 0.  0.
          5    1    3    3  502    0 -0.50660960743E+02  0.77395501033E+02  0.55235315511E+03  0.56006077963E+03  0.41800000000E+01 0.  1.
         -5    1    3    3    0  502  0.65007190736E+02  0.37162973638E+02  0.31109239697E+03  0.32000464576E+03  0.41800000000E+01 0.  1.
        -11    1    4    4    0    0 -0.48733377682E+02 -0.47549216533E+02  0.15711149259E+03  0.17123052064E+03  0.00000000000E+00 0.  1.
         11    1    4    4    0    0  0.34387147689E+02 -0.67009258138E+02  0.28340208661E+03  0.29323959367E+03  0.00000000000E+00 0. -1.
</event>
<event>
 8    1  0.6834011E-009  0.1512272E+03  0.7561462E-02  0.1198973E+00
          2   -1    0    0  501    0  0.00000000000E+00  0.00000000000E+00  0.78578420842E+03  0.78578420842E+03  0.00000000000E+00 0. -1.
         -2   -1    0    0    0  501 -0.00000000000E+00 -0.00000000000E+00 -0.43324347758E+02  0.43324347758E+02  0.00000000000E+00 0.  1.
         25    2    1    2    0    0  0.14442118910E+03 -0.11169078755E+02  0.46053102805E+03  0.49871624265E+03  0.12508730833E+03 0.  0.
         23    2    1    2    0    0 -0.14442118910E+03  0.11169078755E+02  0.28192883261E+03  0.33039231352E+03  0.93236183949E+02 0.  0.
          5    1    3    3  502    0  0.27191865557E+02  0.12140995917E+02  0.86704603305E+01  0.31296175752E+02  0.41800000000E+01 0. -1.
         -5    1    3    3    0  502  0.11722932355E+03 -0.23310074672E+02  0.45186056772E+03  0.46742006690E+03  0.41800000000E+01 0. -1.
        -11    1    4    4    0    0 -0.96456526172E+02 -0.15826288908E+02  0.98035003774E+02  0.13843841529E+03  0.00000000000E+00 0.  1.
         11    1    4    4    0    0 -0.47964662931E+02  0.26995367663E+02  0.18389382884E+03  0.19195389824E+03  0.00000000000E+00 0. -1.
</event>
<event>
 8    1  0.6834011E-009  0.1518800E+03  0.7561462E-02  0.1198182E+00
          1   -1    0    0  501    0  0.00000000000E+00  0.00000000000E+00  0.89401671171E+03  0.89401671171E+03  0.00000000000E+00 0. -1.
         -1   -1    0    0    0  501 -0.00000000000E+00 -0.00000000000E+00 -0.27562811885E+02  0.27562811885E+02  0.00000000000E+00 0.  1.
         25    2    1    2    0    0 -0.53472610134E+02  0.99398367082E+02  0.45922518643E+03  0.48915720599E+03  0.12509054685E+03 0.  0.
         23    2    1    2    0    0  0.53472610134E+02 -0.99398367082E+02  0.40722871340E+03  0.43242231761E+03  0.91730476588E+02 0.  0.
          5    1    3    3  502    0  0.33695657011E+02  0.59341432040E+01  0.16142849543E+03  0.16506738895E+03  0.41800000000E+01 0.  1.
         -5    1    3    3    0  502 -0.87168267145E+02  0.93464223878E+02  0.29779669100E+03  0.32408981704E+03  0.41800000000E+01 0.  1.
        -11    1    4    4    0    0  0.89089019830E+01 -0.96339508563E+02  0.22734902099E+03  0.24707943417E+03  0.00000000000E+00 0. -1.
         11    1    4    4    0    0  0.44563708151E+02 -0.30588585187E+01  0.17987969241E+03  0.18534288344E+03  0.00000000000E+00 0.  1.
</event>
<event>
 8    1  0.6834011E-009  0.8716865E+02  0.7561462E-02  0.1309857E+00
         -2   -1    0    0    0  501 -0.00000000000E+00  0.00000000000E+00  0.21911735790E+03  0.21911735790E+03  0.00000000000E+00 0.  1.
          2   -1    0    0  501    0  0.00000000000E+00 -0.00000000000E+00 -0.73207095426E+02  0.73207095426E+02  0.00000000000E+00 0. -1.
         25    2    1    2    0    0 -0.55665475864E+02 -0.24857571429E+02  0.96008183634E+02  0.16906160233E+03  0.12509080700E+03 0.  0.
         23    2    1    2    0    0  0.55665475864E+02  0.24857571429E+02  0.49902078836E+02  0.12326285099E+03  0.94799625011E+02 0.  0.
          5    1    3    3  502    0 -0.70533664380E+02  0.12075118836E+02  0.10584979651E+03  0.12783762407E+03  0.41800000000E+01 0. -1.
         -5    1    3    3    0  502  0.14868188515E+02 -0.36932690265E+02 -0.98416128745E+01  0.41223978264E+02  0.41800000000E+01 0. -1.
        -11    1    4    4    0    0  0.20476083217E+02  0.18048341751E+01 -0.27995665840E+02  0.34731609754E+02  0.00000000000E+00 0. -1.
         11    1    4    4    0    0  0.35189392647E+02  0.23052737254E+02  0.77897744676E+02  0.88531241239E+02  0.00000000000E+00 0.  1.
</event>
<event>
 8    1  0.6834011E-009  0.1266121E+03  0.7561462E-02  0.1232571E+00
         -2   -1    0    0    0  501 -0.00000000000E+00  0.00000000000E+00  0.15934435067E+03  0.15934435067E+03  0.00000000000E+00 0.  1.
          2   -1    0    0  501    0  0.00000000000E+00 -0.00000000000E+00 -0.14442102184E+03  0.14442102184E+03  0.00000000000E+00 0. -1.
         25    2    1    2    0    0 -0.87272398797E+02  0.97255226770E+01 -0.50898515546E+02  0.16107274699E+03  0.12507083415E+03 0.  0.
         23    2    1    2    0    0  0.87272398797E+02 -0.97255226770E+01  0.65821844375E+02  0.14269262551E+03  0.91200947341E+02 0.  0.
          5    1    3    3  502    0 -0.11117349700E+03  0.19568114856E+02 -0.66017890903E+02  0.13083689034E+03  0.41800000000E+01 0. -1.
         -5    1    3    3    0  502  0.23901098205E+02 -0.98425921787E+01  0.15119375356E+02  0.30235856650E+02  0.41800000000E+01 0. -1.
        -11    1    4    4    0    0  0.11549698286E+02 -0.32917900133E+02  0.51515522218E+02  0.62216016500E+02  0.00000000000E+00 0.  1.
         11    1    4    4    0    0  0.75722700511E+02  0.23192377456E+02  0.14306322157E+02  0.80476609014E+02  0.00000000000E+00 0. -1.
</event>
<event>
 8    1  0.6834011E-009  0.1494023E+03  0.7561462E-02  0.1201209E+00
         -2   -1    0    0    0  501 -0.00000000000E+00  0.00000000000E+00  0.13141584744E+03  0.13141584744E+03  0.00000000000E+00 0.  1.
          2   -1    0    0  501    0  0.00000000000E+00 -0.00000000000E+00 -0.34023824478E+03  0.34023824478E+03  0.00000000000E+00 0. -1.
         25    2    1    2    0    0 -0.84545270506E+02 -0.11462070856E+03 -0.23511839022E+03  0.30201588055E+03  0.12508846906E+03 0.  0.
         23    2    1    2    0    0  0.84545270506E+02  0.11462070856E+03  0.26295992887E+02  0.16963821167E+03  0.88316668978E+02 0.  0.
          5    1    3    3  502    0 -0.50751146083E+02 -0.27510629090E+02 -0.10662328776E+02  0.58852962513E+02  0.41800000000E+01 0.  1.
         -5    1    3    3    0  502 -0.33794124423E+02 -0.87110079471E+02 -0.22445606144E+03  0.24316291804E+03  0.41800000000E+01 0.  1.
        -11    1    4    4    0    0  0.65951677476E+02  0.10996954075E+03  0.51319299696E+02  0.13811804435E+03  0.00000000000E+00 0.  1.
         11    1    4    4    0    0  0.18593593030E+02  0.46511678107E+01 -0.25023306809E+02  0.31520167313E+02  0.00000000000E+00 0. -1.
</event>
<event>
 8    1  0.6834011E-009  0.1085544E+03  0.7561462E-02  0.1263270E+00
         -2   -1    0    0    0  501 -0.00000000000E+00  0.00000000000E+00  0.64503167980E+02  0.64503167980E+02  0.00000000000E+00 0.  1.
          2   -1    0    0  501    0  0.00000000000E+00 -0.00000000000E+00 -0.18727967087E+03  0.18727967087E+03  0.00000000000E+00 0. -1.
         25    2    1    2    0    0  0.20460357059E+02  0.57986815447E+00 -0.65026439683E+02  0.14245673924E+03  0.12508605933E+03 0.  0.
         23    2    1    2    0    0 -0.20460357059E+02 -0.57986815447E+00 -0.57750063210E+02  0.10932609962E+03  0.90543712086E+02 0.  0.
          5    1    3    3  502    0  0.21509653857E+01  0.61572236838E+02 -0.41683193048E+02  0.74503207877E+02  0.41800000000E+01 0. -1.
         -5    1    3    3    0  502  0.18309391673E+02 -0.60992368683E+02 -0.23343246635E+02  0.67953531362E+02  0.41800000000E+01 0. -1.
        -11    1    4    4    0    0  0.94904063592E+01  0.39995982117E+02 -0.16981274960E+02  0.44475949654E+02  0.00000000000E+00 0.  1.
         11    1    4    4    0    0 -0.29950763418E+02 -0.40575850272E+02 -0.40768788250E+02  0.64850149961E+02  0.00000000000E+00 0. -1.
</event>
<event>
 8    1  0.6834011E-009  0.9995890E+02  0.7561462E-02  0.1280382E+00
         -1   -1    0    0    0  501 -0.00000000000E+00  0.00000000000E+00  0.23029531197E+03  0.23029531197E+03  0.00000000000E+00 0.  1.
          1   -1    0    0  501    0  0.00000000000E+00 -0.00000000000E+00 -0.61056879826E+02  0.61056879826E+02  0.00000000000E+00 0. -1.
         25    2    1    2    0    0 -0.31203263616E+01 -0.75754740525E+01  0.38587418002E+02  0.13116275930E+03  0.12509019289E+03 0.  0.
         23    2    1    2    0    0  0.31203263616E+01  0.75754740525E+01  0.13065101414E+03  0.16018943249E+03  0.92324658363E+02 0.  0.
          5    1    3    3  502    0 -0.31590454288E+02 -0.48090201077E+02  0.54116425267E+02  0.79099204329E+02  0.41800000000E+01 0.  1.
         -5    1    3    3    0  502  0.28470127927E+02  0.40514727025E+02 -0.15529007265E+02  0.52063554975E+02  0.41800000000E+01 0.  1.
        -11    1    4    4    0    0  0.33390726648E+02 -0.29580521591E+02  0.58394250392E+02  0.73483578863E+02  0.00000000000E+00 0. -1.
         11    1    4    4    0    0 -0.30270400286E+02  0.37155995644E+02  0.72256763750E+02  0.86705853628E+02  0.00000000000E+00 0.  1.
</event>
<event>
 8    1  0.6834011E-009  0.8454031E+02  0.7561462E-02  0.1316639E+00
         -1   -1    0    0    0  501 -0.00000000000E+00  0.00000000000E+00  0.50136806390E+02  0.50136806390E+02  0.00000000000E+00 0.  1.
          1   -1    0    0  501    0  0.00000000000E+00 -0.00000000000E+00 -0.25069213193E+03  0.25069213193E+03  0.00000000000E+00 0. -1.
         25    2    1    2    0    0  0.22769784001E+02  0.79805446037E+01 -0.13018237900E+03  0.18214591636E+03  0.12509009109E+03 0.  0.
         23    2    1    2    0    0 -0.22769784001E+02 -0.79805446037E+01 -0.70372946537E+02  0.11868302196E+03  0.92472460447E+02 0.  0.
          5    1    3    3  502    0 -0.37861084285E+02  0.30950380774E+01 -0.11227315151E+03  0.11859921548E+03  0.41800000000E+01 0.  1.
         -5    1    3    3    0  502  0.60630868287E+02  0.48855065263E+01 -0.17909227498E+02  0.63546700881E+02  0.41800000000E+01 0.  1.
        -11    1    4    4    0    0  0.17018271913E+02 -0.21904911624E+02  0.87036073244E+01  0.29072315226E+02  0.00000000000E+00 0.  1.
         11    1    4    4    0    0 -0.39788055915E+02  0.13924367020E+02 -0.79076553861E+02  0.89610706732E+02  0.00000000000E+00 0. -1.
</event>
<event>
 8    1  0.6834011E-009  0.9782525E+02  0.7561462E-02  0.1284937E+00
         -2   -1    0    0    0  501 -0.00000000000E+00  0.00000000000E+00  0.10918428680E+03  0.10918428680E+03  0.00000000000E+00 0. -1.
          2   -1    0    0  501    0  0.00000000000E+00 -0.00000000000E+00 -0.11582721766E+03  0.11582721766E+03  0.00000000000E+00 0.  1.
         25    2    1    2    0    0  0.13007405905E+02 -0.14243775922E+02  0.19925406116E+02  0.12811768448E+03  0.12508014033E+03 0.  0.
         23    2    1    2    0    0 -0.13007405905E+02  0.14243775922E+02 -0.26568336980E+02  0.96893819982E+02  0.91161713784E+02 0.  0.
          5    1    3    3  502    0 -0.37598839418E+02  0.33355469134E+02 -0.11534934547E+02  0.51737676424E+02  0.41800000000E+01 0. -1.
         -5    1    3    3    0  502  0.50606245323E+02 -0.47599245056E+02  0.31460340663E+02  0.76380008053E+02  0.41800000000E+01 0. -1.
        -11    1    4    4    0    0 -0.36298194184E+02 -0.14090286923E+02 -0.41847657547E+02  0.57160489227E+02  0.00000000000E+00 0.  1.
         11    1    4    4    0    0  0.23290788279E+02  0.28334062844E+02  0.15279320566E+02  0.39733330755E+02  0.00000000000E+00 0. -1.
</event>
<event>
 8    1  0.6834011E-009  0.1723804E+03  0.7561462E-02  0.1175388E+00
          2   -1    0    0  501    0  0.00000000000E+00  0.00000000000E+00  0.34312436564E+03  0.34312436564E+03  0.00000000000E+00 0. -1.
         -2   -1    0    0    0  501 -0.00000000000E+00 -0.00000000000E+00 -0.11890526424E+03  0.11890526424E+03  0.00000000000E+00 0.  1.
         25    2    1    2    0    0 -0.16005734254E+00  0.15683690221E+03  0.42701788933E+02  0.20510825842E+03  0.12509242735E+03 0.  0.
         23    2    1    2    0    0  0.16005734254E+00 -0.15683690221E+03  0.18151731246E+03  0.25692137146E+03  0.91990308601E+02 0.  0.
          5    1    3    3  502    0  0.20736294463E+02  0.19472888164E+02  0.58522305375E+02  0.65203680172E+02  0.41800000000E+01 0.  1.
         -5    1    3    3    0  502 -0.20896351806E+02  0.13736401405E+03 -0.15820516442E+02  0.13990457825E+03  0.41800000000E+01 0.  1.
        -11    1    4    4    0    0  0.94832497775E+01 -0.16459810692E+03  0.14903356397E+03  0.22224642183E+03  0.00000000000E+00 0.  1.
         11    1    4    4    0    0 -0.93231924349E+01  0.77612047069E+01  0.32483748494E+02  0.34674949631E+02  0.00000000000E+00 0. -1.
</event>
<event>
 8    1  0.6834011E-009  0.1436155E+03  0.7561462E-02  0.1208545E+00
          2   -1    0    0  501    0  0.00000000000E+00  0.00000000000E+00  0.30160746745E+03  0.30160746745E+03  0.00000000000E+00 0.  1.
         -2   -1    0    0    0  501 -0.00000000000E+00 -0.00000000000E+00 -0.82327196429E+02  0.82327196429E+02  0.00000000000E+00 0. -1.
         25    2    1    2    0    0 -0.31243196303E+02 -0.93602999454E+02  0.19312884005E+03  0.25036670836E+03  0.12508829270E+03 0.  0.
         23    2    1    2    0    0  0.31243196303E+02  0.93602999454E+02  0.26151430970E+02  0.13356795553E+03  0.86132703311E+02 0.  0.
          5    1    3    3  502    0  0.48125460086E+02 -0.27488138939E+02  0.59601382119E+02  0.81495121580E+02  0.41800000000E+01 0.  1.
         -5    1    3    3    0  502 -0.79368656389E+02 -0.66114860514E+02  0.13352745794E+03  0.16887158678E+03  0.41800000000E+01 0.  1.
        -11    1    4    4    0    0  0.15958635372E+02 -0.12994787881E+02  0.14661751841E+02  0.25268745953E+02  0.00000000000E+00 0.  1.
         11    1    4    4    0    0  0.15284560931E+02  0.10659778733E+03  0.11489679129E+02  0.10829920957E+03  0.00000000000E+00 0. -1.
</event>
<event>
 8    1  0.6834011E-009  0.9885905E+02  0.7561462E-02  0.1282714E+00
         -1   -1    0    0    0  501 -0.00000000000E+00  0.00000000000E+00  0.33940543975E+03  0.33940543975E+03  0.00000000000E+00 0.  1.
          1   -1    0    0  501    0  0.00000000000E+00 -0.00000000000E+00 -0.61546969280E+02  0.61546969280E+02  0.00000000000E+00 0. -1.
         25    2    1    2    0    0  0.40404612344E+01  0.23871154577E+02  0.27920628635E+03  0.30690235781E+03  0.12508696792E+03 0.  0.
         23    2    1    2    0    0 -0.40404612344E+01 -0.23871154577E+02 -0.13478158733E+01  0.94050051228E+02  0.90870447234E+02 0.  0.
          5    1    3    3  502    0  0.22783198184E+02  0.70983925810E+02  0.19098744213E+03  0.20506454422E+03  0.41800000000E+01 0.  1.
         -5    1    3    3    0  502 -0.18742736950E+02 -0.47112771234E+02  0.88218844217E+02  0.10183781359E+03  0.41800000000E+01 0.  1.
        -11    1    4    4    0    0 -0.31358169296E+02  0.57484068564E+01  0.29397838148E+02  0.43366021846E+02  0.00000000000E+00 0.  1.
         11    1    4    4    0    0  0.27317708061E+02 -0.29619561433E+02 -0.30745654021E+02  0.50684029382E+02  0.00000000000E+00 0. -1.
</event>
<event>
 8    1  0.6834011E-009  0.1199328E+03  0.7561462E-02  0.1243208E+00
         -2   -1    0    0    0  501 -0.00000000000E+00  0.00000000000E+00  0.14367515520E+02  0.14367515520E+02  0.00000000000E+00 0.  1.
          2   -1    0    0  501    0  0.00000000000E+00 -0.00000000000E+00 -0.10437630926E+04  0.10437630926E+04  0.00000000000E+00 0. -1.
         25    2    1    2    0    0  0.54333333332E+02 -0.26689703905E+00 -0.61199406113E+03  0.62700600360E+03  0.12509042870E+03 0.  0.
         23    2    1    2    0    0 -0.54333333332E+02  0.26689703905E+00 -0.41740151599E+03  0.43112460455E+03  0.93232058641E+02 0.  0.
          5    1    3    3  502    0  0.63472494351E+02  0.50369276943E+02 -0.30040987294E+03  0.31117420485E+03  0.41800000000E+01 0. -1.
         -5    1    3    3    0  502 -0.91391610198E+01 -0.50636173982E+02 -0.31158418819E+03  0.31583179876E+03  0.41800000000E+01 0. -1.
        -11    1    4    4    0    0  0.24028129462E+02  0.13609968617E+02 -0.13216682258E+03  0.13502092891E+03  0.00000000000E+00 0. -1.
         11    1    4    4    0    0 -0.78361462794E+02 -0.13343071578E+02 -0.28523469340E+03  0.29610367565E+03  0.00000000000E+00 0.  1.
</event>
<event>
 8    1  0.6834011E-009  0.7054482E+02  0.7561462E-02  0.1358250E+00
          1   -1    0    0  501    0  0.00000000000E+00  0.00000000000E+00  0.23784214178E+03  0.23784214178E+03  0.00000000000E+00 0. -1.
         -1   -1    0    0    0  501 -0.00000000000E+00 -0.00000000000E+00 -0.47112671207E+02  0.47112671207E+02  0.00000000000E+00 0.  1.
         25    2    1    2    0    0  0.44340714283E+01  0.15743786564E+02  0.11003308209E+03  0.16739781897E+03  0.12508885976E+03 0.  0.
         23    2    1    2    0    0 -0.44340714283E+01 -0.15743786564E+02  0.80696388480E+02  0.11755699401E+03  0.83905970723E+02 0.  0.
          5    1    3    3  502    0 -0.81516956102E+01 -0.24902128532E+02 -0.18232527122E+02  0.32194154625E+02  0.41800000000E+01 0. -1.
         -5    1    3    3    0  502  0.12585767038E+02  0.40645915096E+02  0.12826560921E+03  0.13520366435E+03  0.41800000000E+01 0. -1.
        -11    1    4    4    0    0 -0.29125401658E+02  0.14682359066E+02  0.69549625779E+02  0.76818039128E+02  0.00000000000E+00 0. -1.
         11    1    4    4    0    0  0.24691330230E+02 -0.30426145631E+02  0.11146762701E+02  0.40738954886E+02  0.00000000000E+00 0.  1.
</event>
<event>
 8    1  0.6834011E-009  0.1362661E+03  0.7561462E-02  0.1218443E+00
         -1   -1    0    0    0  501 -0.00000000000E+00  0.00000000000E+00  0.92821453818E+02  0.92821453818E+02  0.00000000000E+00 0.  1.
          1   -1    0    0  501    0  0.00000000000E+00 -0.00000000000E+00 -0.30263705932E+03  0.30263705932E+03  0.00000000000E+00 0. -1.
         25    2    1    2    0    0  0.71328399270E+02  0.75756845438E+02 -0.25323304653E+02  0.16466767566E+03  0.12508930201E+03 0.  0.
         23    2    1    2    0    0 -0.71328399270E+02 -0.75756845438E+02 -0.18449230085E+03  0.23079083747E+03  0.91652394491E+02 0.  0.
          5    1    3    3  502    0  0.14616747888E+02  0.75979462131E+02 -0.60055428048E+02  0.98033947297E+02  0.41800000000E+01 0. -1.
         -5    1    3    3    0  502  0.56711651382E+02 -0.22261669283E+00  0.34732123395E+02  0.66633728368E+02  0.41800000000E+01 0. -1.
        -11    1    4    4    0    0 -0.61932453893E+02 -0.89761512239E-01 -0.92304731965E+02  0.11115664823E+03  0.00000000000E+00 0.  1.
         11    1    4    4    0    0 -0.93959453767E+01 -0.75667083926E+02 -0.92187568882E+02  0.11963418924E+03  0.00000000000E+00 0. -1.
</event>
<event>
 8    1  0.6834011E-009  0.1588450E+03  0.7561462E-02  0.1190007E+00
          2   -1    0    0  501    0  0.00000000000E+00  0.00000000000E+00  0.16966145484E+04  0.16966145484E+04  0.00000000000E+00 0.  1.
         -2   -1    0    0    0  501 -0.00000000000E+00 -0.00000000000E+00 -0.19416358817E+02  0.19416358817E+02  0.00000000000E+00 0. -1.
         25    2    1    2    0    0  0.51897012283E+02 -0.11993746876E+03  0.11899504420E+04  0.12036226989E+04  0.12508897069E+03 0.  0.
         23    2    1    2    0    0 -0.51897012283E+02  0.11993746876E+03  0.48724774764E+03  0.51240820838E+03  0.89852702427E+02 0.  0.
          5    1    3    3  502    0  0.36624033037E+01 -0.13058745381E+03  0.90551563604E+03  0.91490028735E+03  0.41800000000E+01 0. -1.
         -5    1    3    3    0  502  0.48234608979E+02  0.10649985048E+02  0.28443480592E+03  0.28872241150E+03  0.41800000000E+01 0. -1.
        -11    1    4    4    0    0  0.35155893935E+01  0.39953632707E+02  0.48187905679E+02  0.62695505333E+02  0.00000000000E+00 0. -1.
         11    1    4    4    0    0 -0.55412601676E+02  0.79983836055E+02  0.43905984196E+03  0.44971270305E+03  0.00000000000E+00 0.  1.
</event>
